Title
114268
    1ECLIP HB6S    1   4.076   4.631  11.779
    1ECLIP  OB6    2   4.218   4.558  11.908
    1ECLIP  CB6    3   4.181   4.653  11.806
    1ECLIP HB6R    4   4.186   4.757  11.846
    1ECLIP  CB5    5   4.267   4.649  11.681
    1ECLIP  OB5    6   4.261   4.513  11.633
    1ECLIP  HB5    7   4.371   4.677  11.711
    1ECLIP  CB1    8   4.341   4.493  11.515
    1ECLIP  HB1    9   4.448   4.523  11.533
    1ECLIP  OA6   10   4.341   4.361  11.469
    1ECLIP  CA6   11   4.220   4.288  11.493
    1ECLIP HA6R   12   4.133   4.354  11.512
    1ECLIP HA6S   13   4.236   4.220  11.580
    1ECLIP  CB4   14   4.219   4.746  11.571
    1ECLIP  HB4   15   4.113   4.726  11.541
    1ECLIP  OB4   16   4.240   4.880  11.619
    1ECLIP   PB   17   4.110   4.975  11.664
    1ECLIP OPB4   18   4.150   5.060  11.785
    1ECLIP OPB3   19   4.004   4.872  11.701
    1ECLIP OPB2   20   4.074   5.057  11.539
    1ECLIP  CB3   21   4.305   4.721  11.449
    1ECLIP  OB3   22   4.263   4.793  11.337
    1ECLIP  HB3   23   4.413   4.739  11.472
    1ECLIP  C71   24   4.307   4.909  11.320
    1ECLIP  O71   25   4.412   4.958  11.362
    1ECLIP  C72   26   4.247   4.945  11.184
    1ECLIP H72R   27   4.294   4.897  11.096
    1ECLIP H72S   28   4.277   5.046  11.205
    1ECLIP  CB2   29   4.291   4.578  11.404
    1ECLIP  HB2   30   4.181   4.557  11.388
    1ECLIP  NB2   31   4.367   4.554  11.282
    1ECLIP HNB2   32   4.462   4.527  11.294
    1ECLIP  CA4   33   4.308   4.138  11.316
    1ECLIP  HA4   34   4.384   4.216  11.291
    1ECLIP  OA4   35   4.353   4.055  11.419
    1ECLIP HOA4   36   4.378   4.104  11.498
    1ECLIP  CA5   37   4.187   4.206  11.370
    1ECLIP  HA5   38   4.105   4.133  11.393
    1ECLIP  OA5   39   4.144   4.295  11.269
    1ECLIP  CA1   40   4.107   4.230  11.147
    1ECLIP  HA1   41   4.094   4.317  11.078
    1ECLIP  OA1   42   3.988   4.154  11.152
    1ECLIP OPA2   43   3.820   4.159  11.341
    1ECLIP OPA3   44   3.877   4.374  11.221
    1ECLIP OPA4   45   3.745   4.199  11.098
    1ECLIP   PA   46   3.849   4.225  11.207
    1ECLIP  CA3   47   4.278   4.063  11.189
    1ECLIP  HA3   48   4.211   3.976  11.209
    1ECLIP  OA3   49   4.408   4.018  11.158
    1ECLIP  C31   50   4.495   4.083  11.082
    1ECLIP  O31   51   4.496   4.074  10.960
    1ECLIP  C32   52   4.628   4.089  11.157
    1ECLIP H32R   53   4.700   4.023  11.107
    1ECLIP H32S   54   4.622   4.053  11.256
    1ECLIP  CA2   55   4.226   4.159  11.087
    1ECLIP  HA2   56   4.303   4.238  11.070
    1ECLIP  NA2   57   4.195   4.093  10.959
    1ECLIP HNA2   58   4.227   4.001  10.948
    1ECLIP  C73   59   4.096   4.959  11.167
    1ECLIP H73R   60   4.064   5.009  11.262
    1ECLIP  O73   61   4.046   4.832  11.163
    1ECLIP  C81   62   3.935   4.819  11.233
    1ECLIP  O81   63   3.872   4.910  11.288
    1ECLIP  C82   64   3.875   4.697  11.171
    1ECLIP H82R   65   3.782   4.675  11.224
    1ECLIP H82S   66   3.948   4.615  11.191
    1ECLIP  C83   67   3.856   4.709  11.017
    1ECLIP H83R   68   3.953   4.689  10.966
    1ECLIP H83S   69   3.824   4.812  10.990
    1ECLIP  C84   70   3.758   4.604  10.965
    1ECLIP H84R   71   3.654   4.628  10.996
    1ECLIP H84S   72   3.788   4.507  11.013
    1ECLIP  C85   73   3.767   4.584  10.813
    1ECLIP H85R   74   3.877   4.584  10.791
    1ECLIP H85S   75   3.724   4.671  10.760
    1ECLIP  C86   76   3.713   4.448  10.765
    1ECLIP H86R   77   3.606   4.455  10.736
    1ECLIP H86S   78   3.718   4.375  10.849
    1ECLIP  C87   79   3.799   4.386  10.652
    1ECLIP H87R   80   3.751   4.293  10.616
    1ECLIP H87S   81   3.898   4.357  10.694
    1ECLIP  C88   82   3.826   4.485  10.538
    1ECLIP H88R   83   3.903   4.558  10.571
    1ECLIP H88S   84   3.734   4.546  10.524
    1ECLIP  C89   85   3.872   4.418  10.408
    1ECLIP H89R   86   3.914   4.316  10.426
    1ECLIP H89S   87   3.955   4.476  10.362
    1ECLIP C810   88   3.758   4.414  10.306
    1ECLIPH810R   89   3.693   4.501  10.329
    1ECLIPH810S   90   3.699   4.321  10.323
    1ECLIP C811   91   3.804   4.422  10.160
    1ECLIPH811R   92   3.726   4.383  10.090
    1ECLIPH811S   93   3.895   4.358  10.152
    1ECLIP C812   94   3.845   4.562  10.110
    1ECLIPH812R   95   3.888   4.547  10.008
    1ECLIPH812S   96   3.923   4.603  10.177
    1ECLIP C813   97   3.734   4.666  10.100
    1ECLIPH813R   98   3.657   4.627  10.029
    1ECLIPH813S   99   3.684   4.681  10.199
    1ECLIP C814  100   3.784   4.801  10.049
    1ECLIPH814R  101   3.848   4.790   9.958
    1ECLIPH814S  102   3.844   4.850  10.128
    1ECLIPH814T  103   3.698   4.866  10.025
    1ECLIP  C74  104   4.035   5.027  11.038
    1ECLIP H74R  105   4.033   5.132  11.008
    1ECLIP H74S  106   3.927   5.023  11.056
    1ECLIP  C75  107   4.066   4.972  10.902
    1ECLIP H75R  108   3.976   5.006  10.846
    1ECLIP H75S  109   4.071   4.865  10.924
    1ECLIP  C76  110   4.192   5.012  10.828
    1ECLIP H76R  111   4.282   4.970  10.875
    1ECLIP H76S  112   4.204   5.119  10.824
    1ECLIP  C77  113   4.185   4.982  10.680
    1ECLIP H77R  114   4.095   5.037  10.647
    1ECLIP H77S  115   4.158   4.879  10.663
    1ECLIP  C78  116   4.321   5.010  10.617
    1ECLIP H78R  117   4.356   5.113  10.642
    1ECLIP H78S  118   4.392   4.942  10.669
    1ECLIP  C79  119   4.336   4.975  10.467
    1ECLIP H79R  120   4.380   4.874  10.457
    1ECLIP H79S  121   4.406   5.048  10.421
    1ECLIP C710  122   4.208   4.968  10.384
    1ECLIPH710R  123   4.120   4.923  10.430
    1ECLIPH710S  124   4.169   5.067  10.381
    1ECLIP C711  125   4.227   4.936  10.234
    1ECLIPH711R  126   4.307   4.994  10.182
    1ECLIPH711S  127   4.258   4.831  10.227
    1ECLIP C712  128   4.092   4.956  10.166
    1ECLIPH712R  129   4.043   5.046  10.180
    1ECLIPH712S  130   4.012   4.911  10.224
    1ECLIP C713  131   4.084   4.957  10.013
    1ECLIPH713R  132   4.072   4.855  10.026
    1ECLIPH713S  133   3.988   4.969   9.964
    1ECLIP C714  134   4.196   5.010   9.922
    1ECLIPH714R  135   4.186   5.116   9.902
    1ECLIPH714S  136   4.300   4.997   9.957
    1ECLIPH714T  137   4.183   4.973   9.821
    1ECLIP  C51  138   4.315   4.574  11.160
    1ECLIP  O51  139   4.195   4.586  11.144
    1ECLIP  C52  140   4.409   4.586  11.043
    1ECLIP H52R  141   4.443   4.691  11.031
    1ECLIP H52S  142   4.497   4.524  11.061
    1ECLIP  C53  143   4.338   4.540  10.916
    1ECLIP H53R  144   4.268   4.455  10.937
    1ECLIP  O53  145   4.440   4.504  10.826
    1ECLIP  C61  146   4.440   4.380  10.790
    1ECLIP  O61  147   4.378   4.286  10.834
    1ECLIP  C62  148   4.547   4.367  10.697
    1ECLIP H62R  149   4.632   4.364  10.764
    1ECLIP H62S  150   4.572   4.456  10.638
    1ECLIP  C63  151   4.506   4.238  10.627
    1ECLIP H63R  152   4.414   4.231  10.569
    1ECLIP H63S  153   4.538   4.141  10.679
    1ECLIP  C64  154   4.565   4.236  10.493
    1ECLIP H64R  155   4.605   4.131  10.499
    1ECLIP H64S  156   4.653   4.277  10.528
    1ECLIP  C65  157   4.600   4.369  10.404
    1ECLIP H65R  158   4.658   4.445  10.463
    1ECLIP H65S  159   4.509   4.370  10.346
    1ECLIP  C66  160   4.686   4.397  10.271
    1ECLIP H66R  161   4.797   4.395  10.296
    1ECLIP H66S  162   4.680   4.489  10.216
    1ECLIP  C67  163   4.656   4.308  10.148
    1ECLIP H67R  164   4.637   4.207  10.189
    1ECLIP H67S  165   4.745   4.315  10.081
    1ECLIP  C68  166   4.530   4.258  10.076
    1ECLIP H68R  167   4.517   4.355  10.031
    1ECLIP H68S  168   4.459   4.223  10.156
    1ECLIP  C69  169   4.540   4.160   9.952
    1ECLIP H69R  170   4.594   4.062   9.947
    1ECLIP H69S  171   4.600   4.212   9.876
    1ECLIP C610  172   4.412   4.091   9.925
    1ECLIPH610R  173   4.340   4.173   9.935
    1ECLIPH610S  174   4.397   4.014  10.005
    1ECLIP C611  175   4.420   4.028   9.790
    1ECLIPH611R  176   4.496   3.952   9.788
    1ECLIPH611S  177   4.329   3.968   9.774
    1ECLIP C612  178   4.445   4.132   9.680
    1ECLIPH612R  179   4.354   4.196   9.674
    1ECLIPH612S  180   4.532   4.197   9.699
    1ECLIPH612T  181   4.462   4.084   9.582
    1ECLIP  C54  182   4.260   4.658  10.854
    1ECLIP H54R  183   4.336   4.734  10.825
    1ECLIP H54S  184   4.198   4.700  10.935
    1ECLIP  C55  185   4.170   4.627  10.734
    1ECLIP H55R  186   4.098   4.710  10.719
    1ECLIP H55S  187   4.109   4.538  10.757
    1ECLIP  C56  188   4.255   4.614  10.607
    1ECLIP H56R  189   4.331   4.535  10.622
    1ECLIP H56S  190   4.310   4.709  10.587
    1ECLIP  C57  191   4.184   4.572  10.479
    1ECLIP H57R  192   4.098   4.639  10.455
    1ECLIP H57S  193   4.143   4.469  10.492
    1ECLIP  C58  194   4.288   4.567  10.368
    1ECLIP H58R  195   4.347   4.661  10.359
    1ECLIP H58S  196   4.360   4.487  10.390
    1ECLIP  C59  197   4.225   4.535  10.235
    1ECLIP H59R  198   4.152   4.618  10.215
    1ECLIP H59S  199   4.160   4.446  10.243
    1ECLIP C510  200   4.334   4.515  10.125
    1ECLIPH510R  201   4.432   4.474  10.143
    1ECLIPH510S  202   4.378   4.617  10.123
    1ECLIP C511  203   4.273   4.452   9.996
    1ECLIPH511R  204   4.254   4.348   9.980
    1ECLIPH511S  205   4.164   4.483   9.998
    1ECLIP C512  206   4.336   4.476   9.857
    1ECLIPH512R  207   4.247   4.470   9.792
    1ECLIPH512S  208   4.371   4.570   9.833
    1ECLIP C513  209   4.476   4.446   9.807
    1ECLIPH513R  210   4.448   4.344   9.789
    1ECLIPH513S  211   4.545   4.475   9.889
    1ECLIP C514  212   4.537   4.503   9.679
    1ECLIPH514R  213   4.562   4.612   9.686
    1ECLIPH514S  214   4.634   4.456   9.660
    1ECLIPH514T  215   4.472   4.487   9.589
    1ECLIP  C33  216   4.678   4.230  11.198
    1ECLIP H33R  217   4.784   4.211  11.229
    1ECLIP  O33  218   4.612   4.288  11.304
    1ECLIP HO33  219   4.640   4.250  11.387
    1ECLIP  C34  220   4.661   4.333  11.093
    1ECLIP H34R  221   4.578   4.337  11.022
    1ECLIP H34S  222   4.699   4.252  11.044
    1ECLIP  C35  223   4.748   4.457  11.102
    1ECLIP H35R  224   4.854   4.433  11.130
    1ECLIP H35S  225   4.708   4.516  11.186
    1ECLIP  C36  226   4.750   4.537  10.973
    1ECLIP H36R  227   4.666   4.506  10.909
    1ECLIP H36S  228   4.830   4.521  10.902
    1ECLIP  C37  229   4.750   4.682  10.997
    1ECLIP H37R  230   4.855   4.723  10.999
    1ECLIP H37S  231   4.705   4.704  11.095
    1ECLIP  C38  232   4.676   4.748  10.888
    1ECLIP H38R  233   4.568   4.759  10.886
    1ECLIP H38S  234   4.726   4.835  10.923
    1ECLIP  C39  235   4.727   4.713  10.755
    1ECLIP H39R  236   4.725   4.607  10.736
    1ECLIP H39S  237   4.831   4.760  10.775
    1ECLIP C310  238   4.641   4.752  10.633
    1ECLIPH310R  239   4.717   4.820  10.655
    1ECLIPH310S  240   4.544   4.795  10.640
    1ECLIP C311  241   4.669   4.708  10.489
    1ECLIPH311R  242   4.767   4.720  10.518
    1ECLIPH311S  243   4.625   4.616  10.471
    1ECLIP C312  244   4.669   4.777  10.356
    1ECLIPH312R  245   4.581   4.837  10.384
    1ECLIPH312S  246   4.775   4.819  10.334
    1ECLIP C313  247   4.651   4.714  10.226
    1ECLIPH313R  248   4.756   4.688  10.198
    1ECLIPH313S  249   4.580   4.637  10.255
    1ECLIP C314  250   4.585   4.786  10.114
    1ECLIPH314R  251   4.664   4.819  10.047
    1ECLIPH314S  252   4.580   4.745  10.016
    1ECLIPH314T  253   4.516   4.869  10.143
    1ECLIP  C11  254   4.113   4.141  10.861
    1ECLIP  O11  255   4.083   4.258  10.845
    1ECLIP  C12  256   4.059   4.035  10.769
    1ECLIP H12R  257   3.952   4.018  10.792
    1ECLIP H12S  258   4.116   3.941  10.788
    1ECLIP  C13  259   4.072   4.073  10.622
    1ECLIP H13R  260   4.048   4.179  10.601
    1ECLIP  O13  261   3.984   3.989  10.549
    1ECLIP HO13  262   3.956   4.027  10.465
    1ECLIP  C14  263   4.216   4.047  10.580
    1ECLIP H14R  264   4.250   3.955  10.631
    1ECLIP H14S  265   4.274   4.132  10.617
    1ECLIP  C15  266   4.238   4.032  10.431
    1ECLIP H15R  267   4.179   3.946  10.392
    1ECLIP H15S  268   4.341   4.001  10.418
    1ECLIP  C16  269   4.220   4.161  10.354
    1ECLIP H16R  270   4.309   4.227  10.364
    1ECLIP H16S  271   4.136   4.216  10.400
    1ECLIP  C17  272   4.195   4.131  10.206
    1ECLIP H17R  273   4.271   4.056  10.175
    1ECLIP H17S  274   4.209   4.221  10.142
    1ECLIP  C18  275   4.055   4.075  10.183
    1ECLIP H18R  276   4.046   3.984  10.246
    1ECLIP H18S  277   3.979   4.149  10.215
    1ECLIP  C19  278   4.030   4.036  10.038
    1ECLIP H19R  279   3.933   3.981  10.030
    1ECLIP H19S  280   4.112   3.970  10.001
    1ECLIP C110  281   4.024   4.158   9.948
    1ECLIPH110R  282   3.950   4.234   9.983
    1ECLIPH110S  283   4.124   4.204   9.947
    1ECLIP C111  284   3.986   4.115   9.807
    1ECLIPH111R  285   4.050   4.029   9.775
    1ECLIPH111S  286   3.882   4.079   9.812
    1ECLIP C112  287   3.994   4.231   9.707
    1ECLIPH112R  288   3.917   4.303   9.743
    1ECLIPH112S  289   4.092   4.284   9.715
    1ECLIP C113  290   3.977   4.181   9.563
    1ECLIPH113R  291   4.071   4.127   9.538
    1ECLIPH113S  292   3.896   4.105   9.557
    1ECLIP C114  293   3.952   4.283   9.451
    1ECLIPH114R  294   3.865   4.349   9.469
    1ECLIPH114S  295   4.041   4.346   9.433
    1ECLIPH114T  296   3.926   4.226   9.358
    2AKDO    C1  297   4.411   4.677  11.978
    2AKDO   O11  298   4.422   4.802  11.977
    2AKDO   O12  299   4.498   4.593  11.943
    2AKDO    C2  300   4.276   4.618  12.024
    2AKDO    C6  301   4.063   4.674  12.122
    2AKDO    H6  302   4.019   4.626  12.031
    2AKDO    O6  303   4.193   4.721  12.083
    2AKDO    C3  304   4.290   4.507  12.129
    2AKDO   H31  305   4.350   4.545  12.215
    2AKDO   H32  306   4.345   4.423  12.081
    2AKDO    C4  307   4.156   4.456  12.173
    2AKDO    H4  308   4.100   4.420  12.084
    2AKDO    O4  309   4.163   4.356  12.275
    2AKDO    C5  310   4.074   4.567  12.232
    2AKDO    H5  311   3.970   4.526  12.245
    2AKDO    O5  312   4.133   4.604  12.361
    2AKDO    C7  313   3.971   4.791  12.153
    2AKDO    H7  314   4.009   4.841  12.244
    2AKDO    O7  315   3.836   4.747  12.173
    2AKDO   HO7  316   3.799   4.733  12.085
    2AKDO    C8  317   3.972   4.890  12.039
    2AKDO   H81  318   4.078   4.923  12.022
    2AKDO   H82  319   3.937   4.840  11.945
    2AKDO    O8  320   3.890   5.005  12.070
    2AKDO   HO8  321   3.932   5.078  12.024
    3AKDO    C1  322   4.107   4.180  12.114
    3AKDO   O11  323   4.165   4.179  12.001
    3AKDO   O12  324   3.991   4.140  12.141
    3AKDO    C2  325   4.188   4.224  12.239
    3AKDO    C6  326   4.406   4.258  12.313
    3AKDO    H6  327   4.387   4.365  12.338
    3AKDO    O6  328   4.322   4.212  12.206
    3AKDO    C3  329   4.165   4.145  12.369
    3AKDO   H31  330   4.188   4.039  12.348
    3AKDO   H32  331   4.059   4.154  12.398
    3AKDO    C4  332   4.254   4.194  12.480
    3AKDO    H4  333   4.245   4.305  12.486
    3AKDO    O4  334   4.227   4.144  12.609
    3AKDO   HO4  335   4.210   4.217  12.671
    3AKDO    C5  336   4.393   4.171  12.442
    3AKDO    H5  337   4.461   4.203  12.525
    3AKDO    O5  338   4.418   4.029  12.425
    3AKDO   HO5  339   4.362   4.001  12.352
    3AKDO    C7  340   4.537   4.266  12.261
    3AKDO    H7  341   4.516   4.161  12.235
    3AKDO    O7  342   4.611   4.313  12.374
    3AKDO   HO7  343   4.700   4.277  12.367
    3AKDO    C8  344   4.579   4.326  12.130
    3AKDO   H81  345   4.505   4.291  12.057
    3AKDO   H82  346   4.576   4.429  12.151
    3AKDO    O8  347   4.704   4.299  12.066
    3AKDO   HO8  348   4.713   4.203  12.050
    4AHEP    C1  349   4.043   4.649  12.461
    4AHEP    H1  350   4.017   4.751  12.427
    4AHEP    C5  351   3.926   4.451  12.536
    4AHEP    H5  352   4.009   4.393  12.488
    4AHEP    O5  353   3.918   4.578  12.468
    4AHEP    C2  354   4.090   4.670  12.607
    4AHEP    H2  355   4.190   4.718  12.604
    4AHEP    O2  356   4.004   4.762  12.674
    4AHEP   HO2  357   4.058   4.822  12.725
    4AHEP    C3  358   4.104   4.541  12.686
    4AHEP    H3  359   4.184   4.475  12.646
    4AHEP    O3  360   4.132   4.570  12.825
    4AHEP    C4  361   3.969   4.472  12.682
    4AHEP    H4  362   3.889   4.531  12.733
    4AHEP    O4  363   3.989   4.345  12.743
    4AHEP    P4  364   3.915   4.303  12.885
    4AHEP  OP42  365   4.017   4.210  12.950
    4AHEP  OP43  366   3.789   4.233  12.833
    4AHEP  OP44  367   3.886   4.431  12.963
    4AHEP    C6  368   3.792   4.375  12.517
    4AHEP    H6  369   3.814   4.269  12.545
    4AHEP    O6  370   3.684   4.420  12.602
    4AHEP   HO6  371   3.664   4.350  12.666
    4AHEP    C7  372   3.741   4.375  12.371
    4AHEP   H71  373   3.663   4.298  12.357
    4AHEP   H72  374   3.825   4.352  12.302
    4AHEP    O7  375   3.685   4.500  12.327
    4AHEP   HO7  376   3.599   4.503  12.371
    5AHEP    C1  377   4.250   4.518  12.883
    5AHEP    H1  378   4.278   4.421  12.835
    5AHEP    C5  379   4.329   4.737  12.933
    5AHEP    H5  380   4.231   4.774  12.897
    5AHEP    O5  381   4.356   4.612  12.865
    5AHEP    C2  382   4.231   4.494  13.033
    5AHEP    H2  383   4.142   4.426  13.045
    5AHEP    O2  384   4.344   4.426  13.088
    5AHEP   HO2  385   4.323   4.333  13.098
    5AHEP    C3  386   4.201   4.622  13.109
    5AHEP    H3  387   4.107   4.667  13.068
    5AHEP    O3  388   4.188   4.606  13.253
    5AHEP    C4  389   4.316   4.717  13.083
    5AHEP    H4  390   4.413   4.675  13.121
    5AHEP    O4  391   4.280   4.842  13.142
    5AHEP    P4  392   4.372   4.901  13.267
    5AHEP  OP42  393   4.294   5.019  13.322
    5AHEP  OP43  394   4.499   4.945  13.198
    5AHEP  OP44  395   4.387   4.788  13.368
    5AHEP    C6  396   4.432   4.841  12.894
    5AHEP    H6  397   4.405   4.939  12.941
    5AHEP    O6  398   4.564   4.813  12.935
    5AHEP   HO6  399   4.604   4.738  12.893
    5AHEP    C7  400   4.434   4.859  12.746
    5AHEP   H71  401   4.467   4.962  12.737
    5AHEP   H72  402   4.334   4.851  12.697
    5AHEP    O7  403   4.539   4.793  12.677
    6AHEP    C1  404   4.495   4.676  12.616
    6AHEP    H1  405   4.390   4.654  12.642
    6AHEP    C5  406   4.629   4.717  12.433
    6AHEP    H5  407   4.661   4.807  12.488
    6AHEP    O5  408   4.496   4.692  12.476
    6AHEP    C2  409   4.582   4.560  12.659
    6AHEP    H2  410   4.578   4.556  12.771
    6AHEP    O2  411   4.534   4.438  12.610
    6AHEP   HO2  412   4.501   4.391  12.686
    6AHEP    C3  413   4.721   4.589  12.615
    6AHEP    H3  414   4.732   4.683  12.660
    6AHEP    O3  415   4.816   4.495  12.664
    6AHEP   HO3  416   4.872   4.518  12.738
    6AHEP    C4  417   4.728   4.609  12.468
    6AHEP    H4  418   4.706   4.520  12.410
    6AHEP    O4  419   4.860   4.656  12.435
    6AHEP   HO4  420   4.876   4.746  12.461
    6AHEP    C6  421   4.613   4.734  12.282
    6AHEP    H6  422   4.716   4.716  12.250
    6AHEP    O6  423   4.598   4.633  12.195
    6AHEP   HO6  424   4.552   4.672  12.119
    6AHEP    C7  425   4.538   4.860  12.242
    6AHEP   H71  426   4.565   4.915  12.147
    6AHEP   H72  427   4.568   4.923  12.325
    6AHEP    O7  428   4.399   4.862  12.262
    6AHEP   HO7  429   4.392   4.881  12.356
    7AGLC    C1  430   4.057   4.589  13.302
    7AGLC    H1  431   3.986   4.657  13.252
    7AGLC    C5  432   4.098   4.358  13.346
    7AGLC    H5  433   4.203   4.376  13.317
    7AGLC    O5  434   4.016   4.455  13.280
    7AGLC    C2  435   4.043   4.610  13.453
    7AGLC    H2  436   3.941   4.577  13.481
    7AGLC    O2  437   4.050   4.746  13.492
    7AGLC   HO2  438   4.145   4.771  13.492
    7AGLC    C3  439   4.133   4.519  13.533
    7AGLC    H3  440   4.237   4.534  13.497
    7AGLC    O3  441   4.130   4.547  13.676
    7AGLC    C4  442   4.089   4.377  13.497
    7AGLC    H4  443   3.982   4.361  13.529
    7AGLC    O4  444   4.174   4.283  13.562
    7AGLC   HO4  445   4.124   4.211  13.601
    7AGLC    C6  446   4.061   4.223  13.287
    7AGLC   H61  447   4.078   4.225  13.177
    7AGLC   H62  448   4.128   4.142  13.325
    7AGLC    O6  449   3.924   4.194  13.315
    7AGLC   HO6  450   3.926   4.128  13.385
    8AGLC    C1  451   4.256   4.586  13.729
    8AGLC    H1  452   4.333   4.518  13.687
    8AGLC    C5  453   4.210   4.825  13.758
    8AGLC    H5  454   4.106   4.807  13.724
    8AGLC    O5  455   4.292   4.723  13.696
    8AGLC    C2  456   4.264   4.570  13.880
    8AGLC    H2  457   4.370   4.594  13.906
    8AGLC    O2  458   4.238   4.438  13.931
    8AGLC    C3  459   4.174   4.669  13.949
    8AGLC    H3  460   4.071   4.650  13.908
    8AGLC    O3  461   4.174   4.639  14.090
    8AGLC    C4  462   4.218   4.809  13.909
    8AGLC    H4  463   4.325   4.820  13.940
    8AGLC    O4  464   4.141   4.910  13.973
    8AGLC   HO4  465   4.051   4.877  13.980
    8AGLC    C6  466   4.244   4.969  13.710
    8AGLC   H61  467   4.253   4.974  13.599
    8AGLC   H62  468   4.161   5.038  13.738
    8AGLC    O6  469   4.361   5.024  13.771
    8AGLC   HO6  470   4.337   5.059  13.856
    9AGAL    C1  471   4.312   4.332  13.879
    9AGAL    H1  472   4.311   4.338  13.770
    9AGAL    C5  473   4.462   4.316  14.061
    9AGAL    H5  474   4.390   4.388  14.108
    9AGAL    O5  475   4.450   4.332  13.921
    9AGAL    C2  476   4.242   4.204  13.921
    9AGAL    H2  477   4.298   4.122  13.873
    9AGAL    O2  478   4.113   4.208  13.857
    9AGAL    C3  479   4.250   4.183  14.072
    9AGAL    H3  480   4.200   4.267  14.126
    9AGAL    O3  481   4.181   4.066  14.115
    9AGAL   HO3  482   4.111   4.058  14.051
    9AGAL    C4  483   4.398   4.180  14.105
    9AGAL    H4  484   4.413   4.167  14.214
    9AGAL    O4  485   4.450   4.065  14.040
    9AGAL   HO4  486   4.535   4.044  14.084
    9AGAL    C6  487   4.596   4.373  14.116
    9AGAL   H61  488   4.596   4.480  14.107
    9AGAL   H62  489   4.604   4.347  14.225
    9AGAL    O6  490   4.723   4.365  14.047
    9AGAL   HO6  491   4.736   4.292  13.985
   10AGAL    C1  492   3.992   4.158  13.910
   10AGAL    H1  493   4.006   4.052  13.923
   10AGAL    C5  494   3.931   4.349  14.040
   10AGAL    H5  495   4.024   4.394  14.000
   10AGAL    O5  496   3.954   4.206  14.041
   10AGAL    C2  497   3.880   4.187  13.812
   10AGAL    H2  498   3.787   4.140  13.849
   10AGAL    O2  499   3.901   4.122  13.687
   10AGAL   HO2  500   3.815   4.086  13.660
   10AGAL    C3  501   3.858   4.338  13.805
   10AGAL    H3  502   3.957   4.385  13.780
   10AGAL    O3  503   3.765   4.379  13.704
   10AGAL   HO3  504   3.813   4.429  13.639
   10AGAL    C4  505   3.820   4.386  13.943
   10AGAL    H4  506   3.810   4.496  13.945
   10AGAL    O4  507   3.696   4.330  13.983
   10AGAL   HO4  508   3.708   4.237  13.997
   10AGAL    C6  509   3.915   4.414  14.178
   10AGAL   H61  510   3.996   4.380  14.246
   10AGAL   H62  511   3.927   4.525  14.164
   10AGAL    O6  512   3.791   4.387  14.242
   10AGAL   HO6  513   3.805   4.350  14.329
   11BGLC    C1  514   4.256   4.705  14.185
   11BGLC    H1  515   4.222   4.810  14.198
   11BGLC    C5  516   4.481   4.753  14.256
   11BGLC    H5  517   4.463   4.863  14.274
   11BGLC    O5  518   4.395   4.697  14.154
   11BGLC    C2  519   4.239   4.629  14.316
   11BGLC    H2  520   4.269   4.522  14.300
   11BGLC    O2  521   4.103   4.629  14.354
   11BGLC   HO2  522   4.074   4.539  14.367
   11BGLC    C3  523   4.325   4.682  14.428
   11BGLC    H3  524   4.295   4.786  14.454
   11BGLC    O3  525   4.316   4.594  14.541
   11BGLC    C4  526   4.467   4.677  14.383
   11BGLC    H4  527   4.497   4.573  14.356
   11BGLC    O4  528   4.558   4.719  14.483
   11BGLC   HO4  529   4.562   4.650  14.552
   11BGLC    C6  530   4.617   4.735  14.204
   11BGLC   H61  531   4.701   4.769  14.268
   11BGLC   H62  532   4.641   4.650  14.144
   11BGLC    O6  533   4.616   4.807  14.091
   11BGLC   HO6  534   4.689   4.865  14.120
   12BGLCN   C1  535   4.283   4.647  14.668
   12BGLCN   H1  536   4.172   4.657  14.674
   12BGLCN   C5  537   4.305   4.825  14.824
   12BGLCN   H5  538   4.195   4.836  14.831
   12BGLCN   O5  539   4.341   4.774  14.694
   12BGLCN   C2  540   4.333   4.547  14.771
   12BGLCN   H2  541   4.445   4.551  14.767
   12BGLCN    N  542   4.281   4.417  14.741
   12BGLCN   HN  543   4.183   4.411  14.731
   12BGLCN    C  544   4.361   4.310  14.726
   12BGLCN    O  545   4.482   4.316  14.744
   12BGLCN   CT  546   4.295   4.179  14.691
   12BGLCN  HT1  547   4.299   4.109  14.777
   12BGLCN  HT2  548   4.349   4.130  14.608
   12BGLCN  HT3  549   4.190   4.197  14.660
   12BGLCN   C3  550   4.294   4.589  14.912
   12BGLCN   H3  551   4.184   4.594  14.916
   12BGLCN   O3  552   4.336   4.492  15.012
   12BGLCN   C4  553   4.354   4.727  14.932
   12BGLCN   H4  554   4.466   4.723  14.926
   12BGLCN   O4  555   4.320   4.777  15.061
   12BGLCN  HO4  556   4.229   4.804  15.068
   12BGLCN   C6  557   4.366   4.963  14.830
   12BGLCN  H61  558   4.349   5.011  14.928
   12BGLCN  H62  559   4.477   4.955  14.818
   12BGLCN   O6  560   4.314   5.048  14.728
   12BGLCN  HO6  561   4.234   5.094  14.754
   13AGAL    C1  562   4.245   4.470  15.120
   13AGAL    H1  563   4.201   4.567  15.151
   13AGAL    C5  564   4.195   4.242  15.063
   13AGAL    H5  565   4.279   4.254  14.990
   13AGAL    O5  566   4.142   4.375  15.082
   13AGAL    C2  567   4.309   4.413  15.247
   13AGAL    H2  568   4.223   4.392  15.316
   13AGAL    O2  569   4.394   4.506  15.313
   13AGAL    C3  570   4.370   4.277  15.226
   13AGAL    H3  571   4.439   4.281  15.138
   13AGAL    O3  572   4.446   4.230  15.336
   13AGAL   HO3  573   4.528   4.190  15.305
   13AGAL    C4  574   4.258   4.185  15.190
   13AGAL    H4  575   4.306   4.090  15.170
   13AGAL    O4  576   4.165   4.156  15.294
   13AGAL   HO4  577   4.138   4.235  15.341
   13AGAL    C6  578   4.103   4.145  14.990
   13AGAL   H61  579   4.069   4.191  14.896
   13AGAL   H62  580   4.161   4.055  14.963
   13AGAL    O6  581   3.990   4.101  15.063
   13AGAL   HO6  582   4.019   4.038  15.131
   14ARHM    C1  583   4.347   4.553  15.438
   14ARHM    H1  584   4.237   4.554  15.440
   14ARHM    C5  585   4.519   4.699  15.454
   14ARHM    H5  586   4.563   4.662  15.357
   14ARHM    O5  587   4.380   4.688  15.455
   14ARHM    C2  588   4.408   4.470  15.548
   14ARHM    H2  589   4.378   4.365  15.531
   14ARHM    O2  590   4.373   4.509  15.683
   14ARHM    C3  591   4.558   4.482  15.544
   14ARHM    H3  592   4.593   4.461  15.440
   14ARHM    O3  593   4.624   4.389  15.628
   14ARHM   HO3  594   4.609   4.417  15.719
   14ARHM    C4  595   4.593   4.626  15.569
   14ARHM    H4  596   4.550   4.664  15.664
   14ARHM    O4  597   4.735   4.647  15.575
   14ARHM   HO4  598   4.767   4.663  15.665
   14ARHM    C6  599   4.528   4.846  15.454
   14ARHM   H61  600   4.485   4.918  15.385
   14ARHM   H62  601   4.553   4.890  15.548
   14ARHM   H63  602   4.620   4.835  15.402
   15ARHM    C1  603   4.237   4.521  15.711
   15ARHM    H1  604   4.177   4.459  15.641
   15ARHM    C5  605   4.251   4.748  15.800
   15ARHM    H5  606   4.360   4.760  15.781
   15ARHM    O5  607   4.190   4.658  15.704
   15ARHM    C2  608   4.213   4.468  15.851
   15ARHM    H2  609   4.257   4.365  15.857
   15ARHM    O2  610   4.070   4.461  15.867
   15ARHM    C3  611   4.284   4.556  15.950
   15ARHM    H3  612   4.392   4.564  15.920
   15ARHM    O3  613   4.278   4.491  16.077
   15ARHM    C4  614   4.225   4.695  15.940
   15ARHM    H4  615   4.114   4.686  15.953
   15ARHM    O4  616   4.272   4.787  16.037
   15ARHM   HO4  617   4.212   4.863  16.033
   15ARHM    C6  618   4.191   4.888  15.782
   15ARHM   H61  619   4.241   4.967  15.840
   15ARHM   H62  620   4.185   4.914  15.674
   15ARHM   H63  621   4.091   4.885  15.825
   16BMANN   C1  622   4.015   4.413  15.988
   16BMANN   H1  623   4.034   4.488  16.068
   16BMANN   C5  624   4.013   4.245  16.157
   16BMANN   H5  625   4.032   4.327  16.232
   16BMANN   O5  626   4.067   4.285  16.029
   16BMANN   C2  627   3.864   4.402  15.968
   16BMANN   H2  628   3.827   4.504  15.941
   16BMANN    N  629   3.822   4.311  15.863
   16BMANN   HN  630   3.801   4.219  15.892
   16BMANN    C  631   3.799   4.345  15.736
   16BMANN    O  632   3.808   4.458  15.691
   16BMANN   CT  633   3.762   4.229  15.648
   16BMANN  HT1  634   3.654   4.234  15.627
   16BMANN  HT2  635   3.782   4.130  15.693
   16BMANN  HT3  636   3.819   4.235  15.554
   16BMANN   C3  637   3.803   4.361  16.101
   16BMANN   H3  638   3.830   4.439  16.175
   16BMANN   O3  639   3.662   4.356  16.094
   16BMANN  HO3  640   3.625   4.411  16.163
   16BMANN   C4  641   3.862   4.228  16.149
   16BMANN   H4  642   3.838   4.148  16.074
   16BMANN   O4  643   3.810   4.182  16.275
   16BMANN  HO4  644   3.819   4.087  16.280
   16BMANN   C6  645   4.082   4.123  16.215
   16BMANN  H61  646   4.075   4.126  16.326
   16BMANN  H62  647   4.026   4.037  16.182
   16BMANN   O6  648   4.216   4.098  16.176
   16BMANN  HO6  649   4.220   4.018  16.124
   17BGLCN   C1  650   4.396   4.498  16.151
   17BGLCN   H1  651   4.442   4.598  16.135
   17BGLCN   C5  652   4.613   4.403  16.192
   17BGLCN   H5  653   4.663   4.500  16.174
   17BGLCN   O5  654   4.491   4.397  16.114
   17BGLCN   C2  655   4.351   4.480  16.294
   17BGLCN   H2  656   4.311   4.377  16.311
   17BGLCN    N  657   4.244   4.572  16.325
   17BGLCN   HN  658   4.243   4.656  16.272
   17BGLCN    C  659   4.149   4.558  16.418
   17BGLCN    O  660   4.131   4.456  16.483
   17BGLCN   CT  661   4.064   4.681  16.439
   17BGLCN  HT1  662   3.966   4.674  16.388
   17BGLCN  HT2  663   4.121   4.769  16.404
   17BGLCN  HT3  664   4.046   4.694  16.548
   17BGLCN   C3  665   4.475   4.499  16.380
   17BGLCN   H3  666   4.519   4.596  16.346
   17BGLCN   O3  667   4.437   4.510  16.520
   17BGLCN   C4  668   4.574   4.389  16.341
   17BGLCN   H4  669   4.523   4.291  16.349
   17BGLCN   O4  670   4.689   4.390  16.426
   17BGLCN  HO4  671   4.748   4.316  16.407
   17BGLCN   C6  672   4.709   4.291  16.148
   17BGLCN  H61  673   4.814   4.327  16.154
   17BGLCN  H62  674   4.699   4.204  16.217
   17BGLCN   O6  675   4.690   4.243  16.015
   17BGLCN  HO6  676   4.684   4.318  15.955
   18AGAL    C1  677   4.514   4.598  16.599
   18AGAL    H1  678   4.614   4.553  16.617
   18AGAL    C5  679   4.414   4.802  16.522
   18AGAL    H5  680   4.339   4.735  16.476
   18AGAL    O5  681   4.533   4.725  16.537
   18AGAL    C2  682   4.453   4.632  16.734
   18AGAL    H2  683   4.526   4.705  16.776
   18AGAL    O2  684   4.451   4.522  16.824
   18AGAL    C3  685   4.321   4.708  16.721
   18AGAL    H3  686   4.254   4.650  16.653
   18AGAL    O3  687   4.251   4.723  16.845
   18AGAL   HO3  688   4.158   4.700  16.834
   18AGAL    C4  689   4.349   4.840  16.653
   18AGAL    H4  690   4.256   4.896  16.630
   18AGAL    O4  691   4.432   4.923  16.731
   18AGAL   HO4  692   4.381   4.955  16.806
   18AGAL    C6  693   4.433   4.905  16.413
   18AGAL   H61  694   4.456   4.847  16.320
   18AGAL   H62  695   4.337   4.959  16.399
   18AGAL    O6  696   4.538   4.998  16.434
   18AGAL   HO6  697   4.595   4.965  16.505
   19ARHM    C1  698   4.488   4.563  16.953
   19ARHM    H1  699   4.460   4.669  16.971
   19ARHM    C5  700   4.681   4.428  16.960
   19ARHM    H5  701   4.655   4.395  16.857
   19ARHM    O5  702   4.629   4.559  16.979
   19ARHM    C2  703   4.418   4.470  17.047
   19ARHM    H2  704   4.309   4.465  17.022
   19ARHM    O2  705   4.430   4.516  17.182
   19ARHM    C3  706   4.472   4.330  17.032
   19ARHM    H3  707   4.458   4.297  16.926
   19ARHM    O3  708   4.402   4.241  17.118
   19ARHM   HO3  709   4.407   4.280  17.205
   19ARHM    C4  710   4.620   4.331  17.057
   19ARHM    H4  711   4.638   4.367  17.162
   19ARHM    O4  712   4.683   4.205  17.036
   19ARHM   HO4  713   4.669   4.172  16.948
   19ARHM    C6  714   4.832   4.435  16.965
   19ARHM   H61  715   4.865   4.504  16.884
   19ARHM   H62  716   4.876   4.468  17.061
   19ARHM   H63  717   4.872   4.334  16.943
   20ARHM    C1  718   4.346   4.626  17.205
   20ARHM    H1  719   4.277   4.647  17.121
   20ARHM    C5  720   4.492   4.736  17.335
   20ARHM    H5  721   4.577   4.662  17.320
   20ARHM    O5  722   4.414   4.745  17.220
   20ARHM    C2  723   4.270   4.603  17.332
   20ARHM    H2  724   4.223   4.504  17.323
   20ARHM    O2  725   4.173   4.705  17.353
   20ARHM    C3  726   4.359   4.594  17.451
   20ARHM    H3  727   4.438   4.516  17.433
   20ARHM    O3  728   4.282   4.565  17.566
   20ARHM    C4  729   4.426   4.721  17.467
   20ARHM    H4  730   4.360   4.812  17.474
   20ARHM    O4  731   4.517   4.722  17.577
   20ARHM   HO4  732   4.586   4.785  17.552
   20ARHM    C6  733   4.543   4.864  17.332
   20ARHM   H61  734   4.509   4.965  17.353
   20ARHM   H62  735   4.611   4.845  17.419
   20ARHM   H63  736   4.592   4.863  17.231
   21BMANN   C1  737   4.060   4.676  17.277
   21BMANN   H1  738   4.081   4.590  17.208
   21BMANN   C5  739   3.917   4.737  17.101
   21BMANN   H5  740   3.947   4.645  17.045
   21BMANN   O5  741   4.024   4.780  17.188
   21BMANN   C2  742   3.946   4.639  17.371
   21BMANN   H2  743   3.983   4.550  17.429
   21BMANN    N  744   3.908   4.745  17.465
   21BMANN   HN  745   3.908   4.836  17.426
   21BMANN    C  746   3.872   4.724  17.594
   21BMANN    O  747   3.848   4.613  17.638
   21BMANN   CT  748   3.857   4.844  17.684
   21BMANN  HT1  749   3.763   4.899  17.664
   21BMANN  HT2  750   3.943   4.907  17.664
   21BMANN  HT3  751   3.861   4.816  17.791
   21BMANN   C3  752   3.833   4.593  17.283
   21BMANN   H3  753   3.871   4.503  17.229
   21BMANN   O3  754   3.720   4.553  17.360
   21BMANN  HO3  755   3.696   4.629  17.414
   21BMANN   C4  756   3.795   4.701  17.183
   21BMANN   H4  757   3.761   4.791  17.236
   21BMANN   O4  758   3.690   4.665  17.095
   21BMANN  HO4  759   3.611   4.717  17.115
   21BMANN   C6  760   3.886   4.843  16.998
   21BMANN  H61  761   3.825   4.796  16.917
   21BMANN  H62  762   3.823   4.921  17.045
   21BMANN   O6  763   4.003   4.904  16.942
   21BMANN  HO6  764   4.051   4.945  17.015
   22BGLCN   C1  765   4.345   4.484  17.661
   22BGLCN   H1  766   4.456   4.495  17.661
   22BGLCN   C5  767   4.366   4.265  17.746
   22BGLCN   H5  768   4.477   4.281  17.746
   22BGLCN   O5  769   4.311   4.347  17.642
   22BGLCN   C2  770   4.288   4.533  17.791
   22BGLCN   H2  771   4.177   4.519  17.786
   22BGLCN    N  772   4.319   4.673  17.810
   22BGLCN   HN  773   4.408   4.701  17.774
   22BGLCN    C  774   4.240   4.760  17.871
   22BGLCN    O  775   4.132   4.734  17.922
   22BGLCN   CT  776   4.293   4.899  17.876
   22BGLCN  HT1  777   4.251   4.954  17.791
   22BGLCN  HT2  778   4.400   4.895  17.855
   22BGLCN  HT3  779   4.274   4.950  17.973
   22BGLCN   C3  780   4.344   4.451  17.905
   22BGLCN   H3  781   4.455   4.459  17.901
   22BGLCN   O3  782   4.298   4.511  18.027
   22BGLCN   C4  783   4.309   4.306  17.882
   22BGLCN   H4  784   4.198   4.297  17.878
   22BGLCN   O4  785   4.358   4.221  17.987
   22BGLCN  HO4  786   4.288   4.157  18.008
   22BGLCN   C6  787   4.338   4.120  17.714
   22BGLCN  H61  788   4.349   4.059  17.806
   22BGLCN  H62  789   4.234   4.108  17.680
   22BGLCN   O6  790   4.427   4.068  17.617
   22BGLCN  HO6  791   4.420   4.119  17.536
   23AGAL    C1  792   4.364   4.484  18.147
   23AGAL    H1  793   4.338   4.382  18.181
   23AGAL    C5  794   4.553   4.628  18.109
   23AGAL    H5  795   4.499   4.664  18.018
   23AGAL    O5  796   4.507   4.494  18.137
   23AGAL    C2  797   4.317   4.579  18.255
   23AGAL    H2  798   4.371   4.549  18.347
   23AGAL    O2  799   4.175   4.566  18.279
   23AGAL    C3  800   4.362   4.722  18.224
   23AGAL    H3  801   4.326   4.749  18.122
   23AGAL    O3  802   4.306   4.819  18.312
   23AGAL   HO3  803   4.307   4.785  18.401
   23AGAL    C4  804   4.514   4.723  18.222
   23AGAL    H4  805   4.552   4.825  18.202
   23AGAL    O4  806   4.571   4.682  18.346
   23AGAL   HO4  807   4.658   4.645  18.320
   23AGAL    C6  808   4.699   4.622  18.069
   23AGAL   H61  809   4.713   4.541  17.994
   23AGAL   H62  810   4.731   4.716  18.018
   23AGAL    O6  811   4.785   4.597  18.181
   23AGAL   HO6  812   4.877   4.586  18.156
   24ARHM    C1  813   4.130   4.462  18.364
   24ARHM    H1  814   4.211   4.386  18.375
   24ARHM    C5  815   3.899   4.474  18.300
   24ARHM    H5  816   3.928   4.556  18.230
   24ARHM    O5  817   4.014   4.389  18.317
   24ARHM    C2  818   4.099   4.527  18.496
   24ARHM    H2  819   4.186   4.588  18.529
   24ARHM    O2  820   4.065   4.429  18.596
   24ARHM    C3  821   3.982   4.620  18.478
   24ARHM    H3  822   4.009   4.694  18.399
   24ARHM    O3  823   3.958   4.697  18.595
   24ARHM   HO3  824   3.899   4.649  18.654
   24ARHM    C4  825   3.862   4.539  18.432
   24ARHM    H4  826   3.841   4.458  18.506
   24ARHM    O4  827   3.746   4.618  18.418
   24ARHM   HO4  828   3.668   4.566  18.434
   24ARHM    C6  829   3.782   4.397  18.232
   24ARHM   H61  830   3.718   4.470  18.178
   24ARHM   H62  831   3.824   4.327  18.158
   24ARHM   H63  832   3.722   4.340  18.305
   25ARHM    C1  833   4.174   4.362  18.651
   25ARHM    H1  834   4.262   4.373  18.583
   25ARHM    C5  835   4.049   4.187  18.754
   25ARHM    H5  836   3.954   4.233  18.720
   25ARHM    O5  837   4.154   4.221  18.662
   25ARHM    C2  838   4.209   4.423  18.783
   25ARHM    H2  839   4.211   4.535  18.773
   25ARHM    O2  840   4.337   4.375  18.826
   25ARHM    C3  841   4.099   4.392  18.881
   25ARHM    H3  842   4.001   4.432  18.845
   25ARHM    O3  843   4.137   4.449  19.006
   25ARHM    C4  844   4.081   4.244  18.890
   25ARHM    H4  845   4.180   4.202  18.915
   25ARHM    O4  846   3.982   4.209  18.988
   25ARHM   HO4  847   4.020   4.138  19.040
   25ARHM    C6  848   4.027   4.034  18.757
   25ARHM   H61  849   4.014   3.995  18.654
   25ARHM   H62  850   4.114   3.982  18.803
   25ARHM   H63  851   3.937   4.009  18.816
   26BMANN   C1  852   4.446   4.438  18.764
   26BMANN   H1  853   4.415   4.533  18.720
   26BMANN   C5  854   4.613   4.435  18.596
   26BMANN   H5  855   4.574   4.530  18.554
   26BMANN   O5  856   4.505   4.362  18.658
   26BMANN   C2  857   4.548   4.461  18.871
   26BMANN   H2  858   4.497   4.524  18.949
   26BMANN    N  859   4.592   4.333  18.928
   26BMANN   HN  860   4.625   4.268  18.861
   26BMANN    C  861   4.592   4.306  19.058
   26BMANN    O  862   4.539   4.380  19.138
   26BMANN   CT  863   4.666   4.180  19.102
   26BMANN  HT1  864   4.664   4.106  19.020
   26BMANN  HT2  865   4.627   4.136  19.196
   26BMANN  HT3  866   4.771   4.209  19.123
   26BMANN   C3  867   4.661   4.542  18.813
   26BMANN   H3  868   4.625   4.637  18.770
   26BMANN   O3  869   4.752   4.580  18.914
   26BMANN  HO3  870   4.713   4.652  18.964
   26BMANN   C4  871   4.722   4.465  18.698
   26BMANN   H4  872   4.766   4.370  18.734
   26BMANN   O4  873   4.825   4.541  18.638
   26BMANN  HO4  874   4.905   4.531  18.691
   26BMANN   C6  875   4.658   4.351  18.478
   26BMANN  H61  876   4.570   4.305  18.428
   26BMANN  H62  877   4.711   4.413  18.401
   26BMANN   O6  878   4.744   4.248  18.526
   26BMANN  HO6  879   4.829   4.287  18.550
   27BGLCN   C1  880   4.035   4.507  19.083
   27BGLCN   H1  881   3.940   4.450  19.079
   27BGLCN   C5  882   3.913   4.704  19.127
   27BGLCN   H5  883   3.822   4.639  19.129
   27BGLCN   O5  884   4.011   4.641  19.043
   27BGLCN   C2  885   4.094   4.506  19.223
   27BGLCN   H2  886   4.186   4.569  19.220
   27BGLCN    N  887   4.133   4.372  19.266
   27BGLCN   HN  888   4.071   4.298  19.241
   27BGLCN    C  889   4.249   4.351  19.333
   27BGLCN    O  890   4.311   4.443  19.385
   27BGLCN   CT  891   4.304   4.212  19.343
   27BGLCN  HT1  892   4.241   4.144  19.286
   27BGLCN  HT2  893   4.307   4.173  19.446
   27BGLCN  HT3  894   4.408   4.211  19.303
   27BGLCN   C3  895   3.998   4.569  19.318
   27BGLCN   H3  896   3.902   4.511  19.314
   27BGLCN   O3  897   4.059   4.557  19.449
   27BGLCN   C4  898   3.968   4.709  19.269
   27BGLCN   H4  899   4.060   4.770  19.262
   27BGLCN   O4  900   3.875   4.774  19.353
   27BGLCN  HO4  901   3.790   4.730  19.343
   27BGLCN   C6  902   3.871   4.837  19.068
   27BGLCN  H61  903   3.781   4.874  19.121
   27BGLCN  H62  904   3.951   4.914  19.082
   27BGLCN   O6  905   3.841   4.824  18.928
   27BGLCN  HO6  906   3.815   4.907  18.888
   28AGAL    C1  907   3.975   4.572  19.561
   28AGAL    H1  908   3.950   4.680  19.569
   28AGAL    C5  909   3.877   4.353  19.550
   28AGAL    H5  910   3.961   4.327  19.480
   28AGAL    O5  911   3.853   4.496  19.542
   28AGAL    C2  912   4.036   4.533  19.698
   28AGAL    H2  913   3.951   4.558  19.766
   28AGAL    O2  914   4.149   4.607  19.746
   28AGAL    C3  915   4.061   4.383  19.705
   28AGAL    H3  916   4.128   4.356  19.620
   28AGAL    O3  917   4.128   4.337  19.822
   28AGAL   HO3  918   4.208   4.289  19.798
   28AGAL    C4  919   3.929   4.314  19.686
   28AGAL    H4  920   3.948   4.204  19.686
   28AGAL    O4  921   3.833   4.343  19.785
   28AGAL   HO4  922   3.832   4.270  19.847
   28AGAL    C6  923   3.756   4.274  19.502
   28AGAL   H61  924   3.742   4.302  19.396
   28AGAL   H62  925   3.772   4.164  19.512
   28AGAL    O6  926   3.631   4.300  19.564
   28AGAL   HO6  927   3.601   4.387  19.536
   29ARHM    C1  928   4.133   4.634  19.884
   29ARHM    H1  929   4.068   4.557  19.932
   29ARHM    C5  930   4.152   4.868  19.849
   29ARHM    H5  931   4.168   4.846  19.741
   29ARHM    O5  932   4.073   4.763  19.906
   29ARHM    C2  933   4.266   4.629  19.954
   29ARHM    H2  934   4.313   4.531  19.929
   29ARHM    O2  935   4.250   4.643  20.097
   29ARHM    C3  936   4.353   4.737  19.898
   29ARHM    H3  937   4.367   4.722  19.790
   29ARHM    O3  938   4.481   4.730  19.958
   29ARHM   HO3  939   4.518   4.819  19.956
   29ARHM    C4  940   4.290   4.873  19.916
   29ARHM    H4  941   4.283   4.892  20.024
   29ARHM    O4  942   4.373   4.980  19.870
   29ARHM   HO4  943   4.401   4.972  19.779
   29ARHM    C6  944   4.060   4.991  19.858
   29ARHM   H61  945   3.962   4.962  19.813
   29ARHM   H62  946   4.045   5.022  19.963
   29ARHM   H63  947   4.104   5.074  19.799
   30ARHM    C1  948   4.249   4.525  20.174
   30ARHM    H1  949   4.340   4.465  20.152
   30ARHM    C5  950   4.010   4.511  20.185
   30ARHM    H5  951   4.009   4.606  20.127
   30ARHM    O5  952   4.133   4.444  20.152
   30ARHM    C2  953   4.249   4.565  20.319
   30ARHM    H2  954   4.337   4.631  20.339
   30ARHM    O2  955   4.253   4.447  20.397
   30ARHM    C3  956   4.123   4.637  20.359
   30ARHM    H3  957   4.113   4.722  20.289
   30ARHM    O3  958   4.133   4.694  20.491
   30ARHM    C4  959   4.005   4.547  20.332
   30ARHM    H4  960   4.012   4.453  20.391
   30ARHM    O4  961   3.880   4.603  20.368
   30ARHM   HO4  962   3.845   4.666  20.305
   30ARHM    C6  963   3.889   4.427  20.142
   30ARHM   H61  964   3.796   4.486  20.159
   30ARHM   H62  965   3.895   4.407  20.033
   30ARHM   H63  966   3.883   4.332  20.198
   31BMANN   C1  967   4.381   4.403  20.426
   31BMANN   H1  968   4.448   4.487  20.452
   31BMANN   C5  969   4.563   4.272  20.351
   31BMANN   H5  970   4.626   4.360  20.384
   31BMANN   O5  971   4.435   4.324  20.319
   31BMANN   C2  972   4.361   4.315  20.544
   31BMANN   H2  973   4.325   4.381  20.628
   31BMANN    N  974   4.260   4.214  20.519
   31BMANN   HN  975   4.242   4.194  20.423
   31BMANN    C  976   4.183   4.161  20.614
   31BMANN    O  977   4.190   4.199  20.730
   31BMANN   CT  978   4.084   4.058  20.570
   31BMANN  HT1  979   4.131   3.993  20.493
   31BMANN  HT2  980   3.995   4.108  20.527
   31BMANN  HT3  981   4.050   3.996  20.656
   31BMANN   C3  982   4.496   4.264  20.585
   31BMANN   H3  983   4.567   4.347  20.602
   31BMANN   O3  984   4.484   4.205  20.712
   31BMANN  HO3  985   4.397   4.223  20.749
   31BMANN   C4  986   4.551   4.181  20.469
   31BMANN   H4  987   4.489   4.091  20.447
   31BMANN   O4  988   4.685   4.143  20.477
   31BMANN  HO4  989   4.724   4.185  20.554
   31BMANN   C6  990   4.637   4.202  20.237
   31BMANN  H61  991   4.743   4.184  20.265
   31BMANN  H62  992   4.594   4.100  20.222
   31BMANN   O6  993   4.636   4.273  20.113
   31BMANN  HO6  994   4.684   4.357  20.114
   32BGLCN   C1  995   4.104   4.607  20.598
   32BGLCN   H1  996   4.144   4.507  20.578
   32BGLCN   C5  997   3.940   4.497  20.729
   32BGLCN   H5  998   3.985   4.401  20.695
   32BGLCN   O5  999   3.965   4.594  20.627
   32BGLCN   C2 1000   4.174   4.659  20.722
   32BGLCN   H2 1001   4.121   4.753  20.752
   32BGLCN    N 1002   4.312   4.690  20.692
   32BGLCN   HN 1003   4.351   4.630  20.624
   32BGLCN    C 1004   4.387   4.789  20.743
   32BGLCN    O 1005   4.347   4.869  20.825
   32BGLCN   CT 1006   4.527   4.797  20.689
   32BGLCN  HT1 1007   4.530   4.738  20.596
   32BGLCN  HT2 1008   4.601   4.756  20.760
   32BGLCN  HT3 1009   4.554   4.902  20.667
   32BGLCN   C3 1010   4.157   4.553  20.829
   32BGLCN   H3 1011   4.191   4.457  20.784
   32BGLCN   O3 1012   4.239   4.577  20.945
   32BGLCN   C4 1013   4.009   4.541  20.857
   32BGLCN   H4 1014   3.971   4.641  20.888
   32BGLCN   O4 1015   3.981   4.448  20.960
   32BGLCN  HO4 1016   3.978   4.498  21.042
   32BGLCN   C6 1017   3.790   4.472  20.741
   32BGLCN  H61 1018   3.768   4.387  20.808
   32BGLCN  H62 1019   3.742   4.561  20.784
   32BGLCN   O6 1020   3.731   4.445  20.614
   32BGLCN  HO6 1021   3.789   4.391  20.560
   33AGAL    C1 1022   4.289   4.458  21.004
   33AGAL    H1 1023   4.214   4.376  20.997
   33AGAL    C5 1024   4.518   4.508  20.956
   33AGAL    H5 1025   4.475   4.604  20.920
   33AGAL    O5 1026   4.411   4.412  20.942
   33AGAL    C2 1027   4.320   4.483  21.150
   33AGAL    H2 1028   4.366   4.390  21.189
   33AGAL    O2 1029   4.197   4.499  21.224
   33AGAL    C3 1030   4.427   4.590  21.165
   33AGAL    H3 1031   4.398   4.682  21.109
   33AGAL    O3 1032   4.444   4.637  21.298
   33AGAL   HO3 1033   4.463   4.566  21.360
   33AGAL    C4 1034   4.555   4.536  21.101
   33AGAL    H4 1035   4.631   4.616  21.102
   33AGAL    O4 1036   4.613   4.421  21.161
   33AGAL   HO4 1037   4.560   4.379  21.228
   33AGAL    C6 1038   4.635   4.480  20.862
   33AGAL   H61 1039   4.593   4.487  20.760
   33AGAL   H62 1040   4.715   4.557  20.873
   33AGAL    O6 1041   4.699   4.354  20.876
   33AGAL   HO6 1042   4.653   4.285  20.827
   34ARHM    C1 1043   4.188   4.421  21.341
   34ARHM    H1 1044   4.280   4.437  21.401
   34ARHM    C5 1045   4.062   4.239  21.242
   34ARHM    H5 1046   4.070   4.286  21.142
   34ARHM    O5 1047   4.178   4.278  21.319
   34ARHM    C2 1048   4.066   4.471  21.418
   34ARHM    H2 1049   4.070   4.583  21.421
   34ARHM    O2 1050   4.056   4.424  21.555
   34ARHM    C3 1051   3.942   4.435  21.337
   34ARHM    H3 1052   3.948   4.481  21.236
   34ARHM    O3 1053   3.824   4.487  21.401
   34ARHM   HO3 1054   3.758   4.511  21.334
   34ARHM    C4 1055   3.936   4.285  21.315
   34ARHM    H4 1056   3.937   4.232  21.414
   34ARHM    O4 1057   3.818   4.246  21.245
   34ARHM   HO4 1058   3.742   4.251  21.305
   34ARHM    C6 1059   4.058   4.086  21.215
   34ARHM   H61 1060   4.056   4.035  21.311
   34ARHM   H62 1061   3.962   4.059  21.168
   34ARHM   H63 1062   4.141   4.046  21.154
   35ARHM    C1 1063   4.165   4.446  21.642
   35ARHM    H1 1064   4.208   4.547  21.623
   35ARHM    C5 1065   4.218   4.211  21.657
   35ARHM    H5 1066   4.135   4.185  21.587
   35ARHM    O5 1067   4.267   4.345  21.630
   35ARHM    C2 1068   4.115   4.442  21.787
   35ARHM    H2 1069   4.036   4.518  21.802
   35ARHM    O2 1070   4.222   4.468  21.879
   35ARHM    C3 1071   4.057   4.306  21.819
   35ARHM    H3 1072   3.974   4.284  21.748
   35ARHM    O3 1073   3.996   4.307  21.949
   35ARHM   HO3 1074   4.049   4.354  22.014
   35ARHM    C4 1075   4.165   4.201  21.801
   35ARHM    H4 1076   4.250   4.220  21.870
   35ARHM    O4 1077   4.117   4.069  21.826
   35ARHM   HO4 1078   4.026   4.057  21.797
   35ARHM    C6 1079   4.330   4.110  21.622
   35ARHM   H61 1080   4.352   4.109  21.513
   35ARHM   H62 1081   4.420   4.135  21.681
   35ARHM   H63 1082   4.296   4.007  21.647
   36BMANN   C1 1083   4.265   4.602  21.885
   36BMANN   H1 1084   4.184   4.669  21.851
   36BMANN   C5 1085   4.416   4.768  21.810
   36BMANN   H5 1086   4.333   4.832  21.787
   36BMANN   O5 1087   4.378   4.628  21.803
   36BMANN   C2 1088   4.300   4.631  22.029
   36BMANN   H2 1089   4.205   4.616  22.085
   36BMANN    N 1090   4.402   4.543  22.085
   36BMANN   HN 1091   4.476   4.516  22.024
   36BMANN    C 1092   4.406   4.515  22.216
   36BMANN    O 1093   4.318   4.547  22.295
   36BMANN   CT 1094   4.526   4.443  22.268
   36BMANN  HT1 1095   4.619   4.485  22.223
   36BMANN  HT2 1096   4.521   4.334  22.249
   36BMANN  HT3 1097   4.531   4.459  22.378
   36BMANN   C3 1098   4.336   4.779  22.039
   36BMANN   H3 1099   4.250   4.840  22.002
   36BMANN   O3 1100   4.365   4.820  22.173
   36BMANN  HO3 1101   4.300   4.882  22.207
   36BMANN   C4 1102   4.454   4.808  21.951
   36BMANN   H4 1103   4.543   4.750  21.984
   36BMANN   O4 1104   4.488   4.945  21.958
   36BMANN  HO4 1105   4.506   4.955  22.053
   36BMANN   C6 1106   4.518   4.803  21.708
   36BMANN  H61 1107   4.490   4.773  21.605
   36BMANN  H62 1108   4.535   4.913  21.707
   36BMANN   O6 1109   4.632   4.733  21.749
   36BMANN  HO6 1110   4.692   4.790  21.799
    1ECLIP HB6S 1111   3.351   3.241  11.779
    1ECLIP  OB6 1112   3.201   3.298  11.907
    1ECLIP  CB6 1113   3.249   3.208  11.806
    1ECLIP HB6R 1114   3.256   3.104  11.846
    1ECLIP  CB5 1115   3.163   3.201  11.680
    1ECLIP  OB5 1116   3.152   3.337  11.633
    1ECLIP  HB5 1117   3.064   3.161  11.710
    1ECLIP  CB1 1118   3.071   3.346  11.514
    1ECLIP  HB1 1119   2.969   3.306  11.532
    1ECLIP  OA6 1120   3.056   3.479  11.469
    1ECLIP  CA6 1121   3.168   3.566  11.492
    1ECLIP HA6R 1122   3.263   3.510  11.512
    1ECLIP HA6S 1123   3.145   3.630  11.581
    1ECLIP  CB4 1124   3.223   3.111  11.569
    1ECLIP  HB4 1125   3.326   3.142  11.541
    1ECLIP  OB4 1126   3.216   2.977  11.621
    1ECLIP   PB 1127   3.353   2.896  11.668
    1ECLIP OPB4 1128   3.315   2.805  11.787
    1ECLIP OPB3 1129   3.454   3.007  11.705
    1ECLIP OPB2 1130   3.390   2.809  11.547
    1ECLIP  CB3 1131   3.136   3.121  11.445
    1ECLIP  OB3 1132   3.187   3.050  11.331
    1ECLIP  HB3 1133   3.031   3.093  11.470
    1ECLIP  C71 1134   3.150   2.925  11.313
    1ECLIP  O71 1135   3.048   2.876  11.361
    1ECLIP  C72 1136   3.206   2.880  11.175
    1ECLIP H72R 1137   3.171   2.951  11.096
    1ECLIP H72S 1138   3.167   2.779  11.152
    1ECLIP  CB2 1139   3.132   3.267  11.403
    1ECLIP  HB2 1140   3.238   3.302  11.387
    1ECLIP  NB2 1141   3.052   3.283  11.281
    1ECLIP HNB2 1142   2.955   3.299  11.293
    1ECLIP  CA4 1143   3.059   3.709  11.317
    1ECLIP  HA4 1144   2.996   3.621  11.289
    1ECLIP  OA4 1145   2.996   3.782  11.423
    1ECLIP HOA4 1146   2.992   3.723  11.498
    1ECLIP  CA5 1147   3.189   3.654  11.370
    1ECLIP  HA5 1148   3.263   3.733  11.393
    1ECLIP  OA5 1149   3.243   3.569  11.270
    1ECLIP  CA1 1150   3.272   3.637  11.147
    1ECLIP  HA1 1151   3.295   3.552  11.078
    1ECLIP  OA1 1152   3.383   3.724  11.149
    1ECLIP OPA2 1153   3.540   3.747  11.340
    1ECLIP OPA3 1154   3.519   3.521  11.223
    1ECLIP OPA4 1155   3.630   3.709  11.099
    1ECLIP   PA 1156   3.529   3.672  11.207
    1ECLIP  CA3 1157   3.080   3.788  11.189
    1ECLIP  HA3 1158   3.141   3.878  11.209
    1ECLIP  OA3 1159   2.947   3.830  11.157
    1ECLIP  C31 1160   2.862   3.760  11.086
    1ECLIP  O31 1161   2.869   3.741  10.966
    1ECLIP  C32 1162   2.733   3.733  11.165
    1ECLIP H32R 1163   2.653   3.783  11.108
    1ECLIP H32S 1164   2.743   3.780  11.265
    1ECLIP  CA2 1165   3.145   3.695  11.087
    1ECLIP  HA2 1166   3.077   3.608  11.070
    1ECLIP  NA2 1167   3.170   3.763  10.959
    1ECLIP HNA2 1168   3.127   3.851  10.949
    1ECLIP  C73 1169   3.360   2.880  11.172
    1ECLIP H73R 1170   3.397   2.830  11.265
    1ECLIP  O73 1171   3.401   3.017  11.163
    1ECLIP  C81 1172   3.508   3.058  11.231
    1ECLIP  O81 1173   3.583   2.987  11.296
    1ECLIP  C82 1174   3.553   3.192  11.170
    1ECLIP H82R 1175   3.645   3.227  11.222
    1ECLIP H82S 1176   3.475   3.268  11.192
    1ECLIP  C83 1177   3.578   3.188  11.017
    1ECLIP H83R 1178   3.479   3.197  10.965
    1ECLIP H83S 1179   3.622   3.090  10.990
    1ECLIP  C84 1180   3.664   3.305  10.965
    1ECLIP H84R 1181   3.770   3.293  10.996
    1ECLIP H84S 1182   3.622   3.398  11.013
    1ECLIP  C85 1183   3.652   3.323  10.813
    1ECLIP H85R 1184   3.544   3.311  10.791
    1ECLIP H85S 1185   3.706   3.242  10.760
    1ECLIP  C86 1186   3.690   3.465  10.765
    1ECLIP H86R 1187   3.798   3.471  10.736
    1ECLIP H86S 1188   3.677   3.537  10.849
    1ECLIP  C87 1189   3.598   3.516  10.652
    1ECLIP H87R 1190   3.635   3.615  10.616
    1ECLIP H87S 1191   3.496   3.534  10.694
    1ECLIP  C88 1192   3.583   3.415  10.538
    1ECLIP H88R 1193   3.515   3.334  10.571
    1ECLIP H88S 1194   3.682   3.365  10.524
    1ECLIP  C89 1195   3.529   3.477  10.408
    1ECLIP H89R 1196   3.477   3.573  10.426
    1ECLIP H89S 1197   3.454   3.409  10.362
    1ECLIP C810 1198   3.643   3.493  10.307
    1ECLIPH810R 1199   3.718   3.415  10.330
    1ECLIPH810S 1200   3.690   3.593  10.323
    1ECLIP C811 1201   3.598   3.478  10.162
    1ECLIPH811R 1202   3.670   3.527  10.091
    1ECLIPH811S 1203   3.500   3.530  10.158
    1ECLIP C812 1204   3.569   3.335  10.114
    1ECLIPH812R 1205   3.527   3.344  10.010
    1ECLIPH812S 1206   3.493   3.289  10.179
    1ECLIP C813 1207   3.683   3.235  10.121
    1ECLIPH813R 1208   3.770   3.272  10.079
    1ECLIPH813S 1209   3.735   3.227  10.218
    1ECLIP C814 1210   3.657   3.102  10.053
    1ECLIPH814R 1211   3.596   3.110   9.959
    1ECLIPH814S 1212   3.603   3.041  10.127
    1ECLIPH814T 1213   3.753   3.052  10.026
    1ECLIP  C74 1214   3.424   2.809  11.049
    1ECLIP H74R 1215   3.399   2.701  11.040
    1ECLIP H74S 1216   3.534   2.814  11.068
    1ECLIP  C75 1217   3.400   2.881  10.915
    1ECLIP H75R 1218   3.493   2.872  10.855
    1ECLIP H75S 1219   3.384   2.989  10.934
    1ECLIP  C76 1220   3.282   2.829  10.832
    1ECLIP H76R 1221   3.187   2.869  10.874
    1ECLIP H76S 1222   3.275   2.718  10.835
    1ECLIP  C77 1223   3.292   2.869  10.684
    1ECLIP H77R 1224   3.378   2.818  10.636
    1ECLIP H77S 1225   3.304   2.977  10.668
    1ECLIP  C78 1226   3.162   2.834  10.618
    1ECLIP H78R 1227   3.140   2.727  10.638
    1ECLIP H78S 1228   3.090   2.899  10.673
    1ECLIP  C79 1229   3.145   2.864  10.470
    1ECLIP H79R 1230   3.089   2.959  10.455
    1ECLIP H79S 1231   3.092   2.775  10.433
    1ECLIP C710 1232   3.266   2.855  10.382
    1ECLIPH710R 1233   3.343   2.923  10.422
    1ECLIPH710S 1234   3.301   2.749  10.385
    1ECLIP C711 1235   3.240   2.893  10.237
    1ECLIPH711R 1236   3.163   2.824  10.194
    1ECLIPH711S 1237   3.202   2.997  10.229
    1ECLIP C712 1238   3.375   2.885  10.166
    1ECLIPH712R 1239   3.406   2.778  10.164
    1ECLIPH712S 1240   3.448   2.943  10.224
    1ECLIP C713 1241   3.366   2.940  10.027
    1ECLIPH713R 1242   3.338   3.048  10.024
    1ECLIPH713S 1243   3.461   2.927   9.969
    1ECLIP C714 1244   3.260   2.855   9.969
    1ECLIPH714R 1245   3.304   2.755   9.947
    1ECLIPH714S 1246   3.153   2.860   9.993
    1ECLIPH714T 1247   3.227   2.908   9.883
    1ECLIP  C51 1248   3.107   3.270  11.160
    1ECLIP  O51 1249   3.227   3.271  11.144
    1ECLIP  C52 1250   3.015   3.248  11.042
    1ECLIP H52R 1251   2.994   3.140  11.030
    1ECLIP H52S 1252   2.920   3.300  11.062
    1ECLIP  C53 1253   3.078   3.304  10.912
    1ECLIP H53R 1254   3.138   3.395  10.935
    1ECLIP  O53 1255   2.969   3.329  10.821
    1ECLIP  C61 1256   2.941   3.455  10.789
    1ECLIP  O61 1257   3.004   3.553  10.822
    1ECLIP  C62 1258   2.820   3.459  10.695
    1ECLIP H62R 1259   2.728   3.454  10.757
    1ECLIP H62S 1260   2.823   3.365  10.637
    1ECLIP  C63 1261   2.818   3.587  10.607
    1ECLIP H63R 1262   2.920   3.600  10.564
    1ECLIP H63S 1263   2.796   3.677  10.669
    1ECLIP  C64 1264   2.721   3.585  10.487
    1ECLIP H64R 1265   2.723   3.684  10.435
    1ECLIP H64S 1266   2.619   3.568  10.528
    1ECLIP  C65 1267   2.758   3.474  10.389
    1ECLIP H65R 1268   2.747   3.381  10.450
    1ECLIP H65S 1269   2.864   3.482  10.358
    1ECLIP  C66 1270   2.673   3.455  10.262
    1ECLIP H66R 1271   2.567   3.442  10.290
    1ECLIP H66S 1272   2.710   3.361  10.215
    1ECLIP  C67 1273   2.679   3.563  10.154
    1ECLIP H67R 1274   2.657   3.665  10.194
    1ECLIP H67S 1275   2.604   3.541  10.074
    1ECLIP  C68 1276   2.814   3.574  10.088
    1ECLIP H68R 1277   2.855   3.479  10.047
    1ECLIP H68S 1278   2.884   3.615  10.165
    1ECLIP  C69 1279   2.798   3.664   9.970
    1ECLIP H69R 1280   2.728   3.746   9.986
    1ECLIP H69S 1281   2.766   3.603   9.883
    1ECLIP C610 1282   2.926   3.728   9.942
    1ECLIPH610R 1283   3.000   3.646   9.950
    1ECLIPH610S 1284   2.953   3.813  10.010
    1ECLIP C611 1285   2.919   3.785   9.805
    1ECLIPH611R 1286   2.828   3.843   9.814
    1ECLIPH611S 1287   2.994   3.860   9.795
    1ECLIP C612 1288   2.934   3.694   9.684
    1ECLIPH612R 1289   3.029   3.641   9.672
    1ECLIPH612S 1290   2.866   3.622   9.719
    1ECLIPH612T 1291   2.903   3.728   9.583
    1ECLIP  C54 1292   3.170   3.194  10.853
    1ECLIP H54R 1293   3.105   3.109  10.825
    1ECLIP H54S 1294   3.238   3.159  10.934
    1ECLIP  C55 1295   3.257   3.234  10.733
    1ECLIP H55R 1296   3.338   3.160  10.719
    1ECLIP H55S 1297   3.308   3.330  10.756
    1ECLIP  C56 1298   3.172   3.238  10.605
    1ECLIP H56R 1299   3.087   3.307  10.622
    1ECLIP H56S 1300   3.128   3.137  10.587
    1ECLIP  C57 1301   3.237   3.287  10.477
    1ECLIP H57R 1302   3.330   3.231  10.454
    1ECLIP H57S 1303   3.266   3.394  10.491
    1ECLIP  C58 1304   3.136   3.278  10.360
    1ECLIP H58R 1305   3.086   3.179  10.358
    1ECLIP H58S 1306   3.055   3.351  10.382
    1ECLIP  C59 1307   3.202   3.303  10.223
    1ECLIP H59R 1308   3.285   3.231  10.208
    1ECLIP H59S 1309   3.246   3.405  10.232
    1ECLIP C510 1310   3.108   3.284  10.100
    1ECLIPH510R 1311   3.010   3.333  10.118
    1ECLIPH510S 1312   3.090   3.175  10.088
    1ECLIP C511 1313   3.162   3.335   9.965
    1ECLIPH511R 1314   3.148   3.445   9.963
    1ECLIPH511S 1315   3.272   3.314   9.957
    1ECLIP C512 1316   3.093   3.278   9.839
    1ECLIPH512R 1317   3.157   3.297   9.749
    1ECLIPH512S 1318   3.080   3.168   9.848
    1ECLIP C513 1319   2.959   3.342   9.802
    1ECLIPH513R 1320   2.972   3.452   9.788
    1ECLIPH513S 1321   2.884   3.331   9.882
    1ECLIP C514 1322   2.908   3.278   9.673
    1ECLIPH514R 1323   2.906   3.168   9.674
    1ECLIPH514S 1324   2.799   3.294   9.663
    1ECLIPH514T 1325   2.961   3.320   9.584
    1ECLIP  C33 1326   2.691   3.586  11.183
    1ECLIP H33R 1327   2.586   3.583  11.222
    1ECLIP  O33 1328   2.771   3.523  11.281
    1ECLIP HO33 1329   2.748   3.547  11.371
    1ECLIP  C34 1330   2.696   3.502  11.055
    1ECLIP H34R 1331   2.799   3.495  11.015
    1ECLIP H34S 1332   2.628   3.542  10.976
    1ECLIP  C35 1333   2.664   3.361  11.090
    1ECLIP H35R 1334   2.561   3.363  11.128
    1ECLIP H35S 1335   2.720   3.316  11.173
    1ECLIP  C36 1336   2.687   3.266  10.975
    1ECLIP H36R 1337   2.749   3.305  10.896
    1ECLIP H36S 1338   2.586   3.279  10.951
    1ECLIP  C37 1339   2.702   3.117  10.997
    1ECLIP H37R 1340   2.605   3.061  10.987
    1ECLIP H37S 1341   2.743   3.094  11.096
    1ECLIP  C38 1342   2.777   3.046  10.894
    1ECLIP H38R 1343   2.885   3.059  10.886
    1ECLIP H38S 1344   2.743   2.949  10.930
    1ECLIP  C39 1345   2.720   3.071  10.764
    1ECLIP H39R 1346   2.718   3.178  10.755
    1ECLIP H39S 1347   2.621   3.013  10.773
    1ECLIP C310 1348   2.806   3.038  10.643
    1ECLIPH310R 1349   2.759   2.949  10.680
    1ECLIPH310S 1350   2.912   3.045  10.654
    1ECLIP C311 1351   2.800   3.078  10.494
    1ECLIPH311R 1352   2.708   3.024  10.517
    1ECLIPH311S 1353   2.808   3.184  10.479
    1ECLIP C312 1354   2.778   3.021  10.350
    1ECLIPH312R 1355   2.884   2.998  10.363
    1ECLIPH312S 1356   2.696   2.940  10.344
    1ECLIP C313 1357   2.792   3.100  10.223
    1ECLIPH313R 1358   2.688   3.083  10.205
    1ECLIPH313S 1359   2.845   3.186  10.262
    1ECLIP C314 1360   2.859   3.055  10.097
    1ECLIPH314R 1361   2.768   3.007  10.049
    1ECLIPH314S 1362   2.861   3.074   9.991
    1ECLIPH314T 1363   2.944   2.994  10.136
    1ECLIP  C11 1364   3.257   3.724  10.862
    1ECLIP  O11 1365   3.301   3.611  10.846
    1ECLIP  C12 1366   3.299   3.836  10.769
    1ECLIP H12R 1367   3.403   3.865  10.792
    1ECLIP H12S 1368   3.232   3.922  10.788
    1ECLIP  C13 1369   3.287   3.797  10.622
    1ECLIP H13R 1370   3.325   3.694  10.601
    1ECLIP  O13 1371   3.367   3.889  10.548
    1ECLIP HO13 1372   3.400   3.855  10.465
    1ECLIP  C14 1373   3.138   3.806  10.581
    1ECLIP H14R 1374   3.089   3.891  10.633
    1ECLIP H14S 1375   3.091   3.711  10.615
    1ECLIP  C15 1376   3.110   3.820  10.433
    1ECLIP H15R 1377   3.165   3.909  10.395
    1ECLIP H15S 1378   3.001   3.840  10.419
    1ECLIP  C16 1379   3.149   3.692  10.359
    1ECLIP H16R 1380   3.071   3.614  10.366
    1ECLIP H16S 1381   3.241   3.649  10.404
    1ECLIP  C17 1382   3.178   3.725  10.214
    1ECLIP H17R 1383   3.095   3.792  10.178
    1ECLIP H17S 1384   3.168   3.631  10.156
    1ECLIP  C18 1385   3.320   3.788  10.206
    1ECLIP H18R 1386   3.311   3.886  10.262
    1ECLIP H18S 1387   3.398   3.720  10.241
    1ECLIP  C19 1388   3.383   3.820  10.072
    1ECLIP H19R 1389   3.445   3.909  10.054
    1ECLIP H19S 1390   3.288   3.877  10.067
    1ECLIP C110 1391   3.426   3.701   9.972
    1ECLIPH110R 1392   3.491   3.623  10.000
    1ECLIPH110S 1393   3.350   3.617   9.978
    1ECLIP C111 1394   3.459   3.741   9.820
    1ECLIPH111R 1395   3.394   3.812   9.778
    1ECLIPH111S 1396   3.534   3.820   9.815
    1ECLIP C112 1397   3.415   3.641   9.703
    1ECLIPH112R 1398   3.485   3.567   9.736
    1ECLIPH112S 1399   3.317   3.586   9.704
    1ECLIP C113 1400   3.400   3.691   9.559
    1ECLIPH113R 1401   3.294   3.713   9.531
    1ECLIPH113S 1402   3.470   3.778   9.548
    1ECLIP C114 1403   3.417   3.598   9.449
    1ECLIPH114R 1404   3.519   3.586   9.475
    1ECLIPH114S 1405   3.348   3.514   9.440
    1ECLIPH114T 1406   3.435   3.637   9.350
    2AKDO    C1 1407   3.024   3.159  11.978
    2AKDO   O11 1408   3.027   3.034  11.977
    2AKDO   O12 1409   2.928   3.234  11.943
    2AKDO    C2 1410   3.152   3.233  12.024
    2AKDO    C6 1411   3.369   3.200  12.122
    2AKDO    H6 1412   3.407   3.253  12.031
    2AKDO    O6 1413   3.246   3.139  12.082
    2AKDO    C3 1414   3.124   3.341  12.129
    2AKDO   H31 1415   3.069   3.296  12.215
    2AKDO   H32 1416   3.059   3.418  12.082
    2AKDO    C4 1417   3.250   3.407  12.174
    2AKDO    H4 1418   3.303   3.448  12.084
    2AKDO    O4 1419   3.227   3.507  12.273
    2AKDO    C5 1420   3.346   3.306  12.233
    2AKDO    H5 1421   3.444   3.357  12.245
    2AKDO    O5 1422   3.291   3.262  12.362
    2AKDO    C7 1423   3.474   3.095  12.153
    2AKDO    H7 1424   3.444   3.040  12.244
    2AKDO    O7 1425   3.602   3.159  12.172
    2AKDO   HO7 1426   3.640   3.169  12.085
    2AKDO    C8 1427   3.485   2.996  12.038
    2AKDO   H81 1428   3.384   2.951  12.022
    2AKDO   H82 1429   3.512   3.051  11.945
    2AKDO    O8 1430   3.583   2.893  12.062
    2AKDO   HO8 1431   3.547   2.812  12.024
    3AKDO    C1 1432   3.263   3.689  12.116
    3AKDO   O11 1433   3.207   3.684  12.002
    3AKDO   O12 1434   3.380   3.725  12.144
    3AKDO    C2 1435   3.181   3.636  12.237
    3AKDO    C6 1436   2.957   3.585  12.315
    3AKDO    H6 1437   2.985   3.479  12.334
    3AKDO    O6 1438   3.039   3.639  12.209
    3AKDO    C3 1439   3.202   3.715  12.369
    3AKDO   H31 1440   3.174   3.822  12.351
    3AKDO   H32 1441   3.310   3.716  12.396
    3AKDO    C4 1442   3.120   3.654  12.479
    3AKDO    H4 1443   3.143   3.545  12.484
    3AKDO    O4 1444   3.145   3.709  12.607
    3AKDO   HO4 1445   3.172   3.641  12.672
    3AKDO    C5 1446   2.975   3.666  12.441
    3AKDO    H5 1447   2.915   3.623  12.525
    3AKDO    O5 1448   2.933   3.801  12.421
    3AKDO   HO5 1449   2.995   3.838  12.357
    3AKDO    C7 1450   2.813   3.586  12.272
    3AKDO    H7 1451   2.782   3.691  12.249
    3AKDO    O7 1452   2.729   3.538  12.378
    3AKDO   HO7 1453   2.639   3.550  12.345
    3AKDO    C8 1454   2.798   3.501  12.149
    3AKDO   H81 1455   2.869   3.531  12.071
    3AKDO   H82 1456   2.823   3.397  12.170
    3AKDO    O8 1457   2.665   3.512  12.099
    3AKDO   HO8 1458   2.667   3.596  12.051
    4AHEP    C1 1459   3.386   3.228  12.461
    4AHEP    H1 1460   3.424   3.129  12.427
    4AHEP    C5 1461   3.480   3.437  12.536
    4AHEP    H5 1462   3.392   3.486  12.488
    4AHEP    O5 1463   3.502   3.312  12.468
    4AHEP    C2 1464   3.340   3.202  12.606
    4AHEP    H2 1465   3.247   3.142  12.604
    4AHEP    O2 1466   3.436   3.122  12.672
    4AHEP   HO2 1467   3.396   3.054  12.725
    4AHEP    C3 1468   3.313   3.328  12.686
    4AHEP    H3 1469   3.226   3.384  12.646
    4AHEP    O3 1470   3.290   3.294  12.824
    4AHEP    C4 1471   3.440   3.411  12.682
    4AHEP    H4 1472   3.525   3.362  12.733
    4AHEP    O4 1473   3.405   3.534  12.743
    4AHEP    P4 1474   3.475   3.584  12.885
    4AHEP  OP42 1475   3.364   3.665  12.951
    4AHEP  OP43 1476   3.596   3.665  12.838
    4AHEP  OP44 1477   3.512   3.460  12.967
    4AHEP    C6 1478   3.605   3.529  12.515
    4AHEP    H6 1479   3.571   3.631  12.544
    4AHEP    O6 1480   3.722   3.499  12.596
    4AHEP   HO6 1481   3.727   3.564  12.670
    4AHEP    C7 1482   3.655   3.534  12.370
    4AHEP   H71 1483   3.723   3.621  12.357
    4AHEP   H72 1484   3.568   3.548  12.302
    4AHEP    O7 1485   3.729   3.420  12.322
    4AHEP   HO7 1486   3.806   3.417  12.379
    5AHEP    C1 1487   3.167   3.333  12.882
    5AHEP    H1 1488   3.127   3.426  12.834
    5AHEP    C5 1489   3.116   3.106  12.931
    5AHEP    H5 1490   3.217   3.081  12.896
    5AHEP    O5 1491   3.074   3.226  12.863
    5AHEP    C2 1492   3.182   3.360  13.032
    5AHEP    H2 1493   3.262   3.437  13.044
    5AHEP    O2 1494   3.060   3.417  13.084
    5AHEP   HO2 1495   3.072   3.511  13.098
    5AHEP    C3 1496   3.226   3.235  13.109
    5AHEP    H3 1497   3.324   3.202  13.068
    5AHEP    O3 1498   3.238   3.253  13.253
    5AHEP    C4 1499   3.124   3.127  13.083
    5AHEP    H4 1500   3.023   3.159  13.120
    5AHEP    O4 1501   3.170   3.006  13.144
    5AHEP    P4 1502   3.086   2.937  13.270
    5AHEP  OP42 1503   3.180   2.831  13.327
    5AHEP  OP43 1504   2.969   2.872  13.199
    5AHEP  OP44 1505   3.061   3.049  13.371
    5AHEP    C6 1506   3.026   2.992  12.891
    5AHEP    H6 1507   3.059   2.897  12.942
    5AHEP    O6 1508   2.899   3.029  12.941
    5AHEP   HO6 1509   2.837   3.074  12.887
    5AHEP    C7 1510   3.025   2.964  12.742
    5AHEP   H71 1511   3.017   2.853  12.730
    5AHEP   H72 1512   3.122   2.993  12.696
    5AHEP    O7 1513   2.912   3.022  12.676
    6AHEP    C1 1514   2.937   3.148  12.621
    6AHEP    H1 1515   3.039   3.181  12.642
    6AHEP    C5 1516   2.806   3.102  12.438
    6AHEP    H5 1517   2.774   3.008  12.491
    6AHEP    O5 1518   2.936   3.134  12.482
    6AHEP    C2 1519   2.834   3.255  12.660
    6AHEP    H2 1520   2.841   3.259  12.771
    6AHEP    O2 1521   2.875   3.380  12.610
    6AHEP   HO2 1522   2.902   3.433  12.685
    6AHEP    C3 1523   2.694   3.221  12.613
    6AHEP    H3 1524   2.655   3.132  12.643
    6AHEP    O3 1525   2.590   3.310  12.659
    6AHEP   HO3 1526   2.546   3.274  12.737
    6AHEP    C4 1527   2.694   3.202  12.465
    6AHEP    H4 1528   2.707   3.293  12.407
    6AHEP    O4 1529   2.569   3.136  12.431
    6AHEP   HO4 1530   2.564   3.043  12.457
    6AHEP    C6 1531   2.849   3.091  12.291
    6AHEP    H6 1532   2.741   3.084  12.274
    6AHEP    O6 1533   2.823   3.181  12.190
    6AHEP   HO6 1534   2.873   3.147  12.113
    6AHEP    C7 1535   2.953   2.976  12.252
    6AHEP   H71 1536   2.938   2.918  12.156
    6AHEP   H72 1537   2.949   2.902  12.334
    6AHEP    O7 1538   3.089   2.992  12.272
    6AHEP   HO7 1539   3.083   2.968  12.363
    7AGLC    C1 1540   3.365   3.285  13.302
    7AGLC    H1 1541   3.444   3.225  13.252
    7AGLC    C5 1542   3.296   3.511  13.345
    7AGLC    H5 1543   3.192   3.483  13.317
    7AGLC    O5 1544   3.390   3.424  13.280
    7AGLC    C2 1545   3.381   3.267  13.453
    7AGLC    H2 1546   3.480   3.311  13.480
    7AGLC    O2 1547   3.389   3.131  13.494
    7AGLC   HO2 1548   3.298   3.093  13.490
    7AGLC    C3 1549   3.281   3.347  13.533
    7AGLC    H3 1550   3.180   3.319  13.497
    7AGLC    O3 1551   3.289   3.319  13.676
    7AGLC    C4 1552   3.308   3.493  13.497
    7AGLC    H4 1553   3.412   3.521  13.529
    7AGLC    O4 1554   3.212   3.577  13.560
    7AGLC   HO4 1555   3.257   3.650  13.605
    7AGLC    C6 1556   3.318   3.650  13.288
    7AGLC   H61 1557   3.303   3.644  13.177
    7AGLC   H62 1558   3.244   3.725  13.325
    7AGLC    O6 1559   3.450   3.696  13.313
    7AGLC   HO6 1560   3.449   3.756  13.387
    8AGLC    C1 1561   3.168   3.265  13.728
    8AGLC    H1 1562   3.082   3.322  13.687
    8AGLC    C5 1563   3.240   3.033  13.758
    8AGLC    H5 1564   3.342   3.063  13.724
    8AGLC    O5 1565   3.148   3.126  13.697
    8AGLC    C2 1566   3.157   3.280  13.880
    8AGLC    H2 1567   3.055   3.244  13.906
    8AGLC    O2 1568   3.169   3.413  13.931
    8AGLC    C3 1569   3.258   3.193  13.948
    8AGLC    H3 1570   3.359   3.223  13.908
    8AGLC    O3 1571   3.255   3.222  14.090
    8AGLC    C4 1572   3.230   3.050  13.909
    8AGLC    H4 1573   3.125   3.025  13.939
    8AGLC    O4 1574   3.317   2.961  13.977
    8AGLC   HO4 1575   3.406   2.998  13.974
    8AGLC    C6 1576   3.225   2.886  13.711
    8AGLC   H61 1577   3.216   2.880  13.600
    8AGLC   H62 1578   3.316   2.828  13.737
    8AGLC    O6 1579   3.117   2.817  13.773
    8AGLC   HO6 1580   3.141   2.786  13.860
    9AGAL    C1 1581   3.083   3.511  13.880
    9AGAL    H1 1582   3.084   3.508  13.770
    9AGAL    C5 1583   2.933   3.512  14.065
    9AGAL    H5 1584   3.009   3.445  14.112
    9AGAL    O5 1585   2.947   3.494  13.923
    9AGAL    C2 1586   3.136   3.647  13.921
    9AGAL    H2 1587   3.068   3.721  13.873
    9AGAL    O2 1588   3.264   3.663  13.856
    9AGAL    C3 1589   3.124   3.667  14.070
    9AGAL    H3 1590   3.185   3.591  14.125
    9AGAL    O3 1591   3.176   3.794  14.108
    9AGAL   HO3 1592   3.259   3.803  14.060
    9AGAL    C4 1593   2.977   3.652  14.105
    9AGAL    H4 1594   2.963   3.662  14.215
    9AGAL    O4 1595   2.896   3.752  14.043
    9AGAL   HO4 1596   2.818   3.765  14.098
    9AGAL    C6 1597   2.799   3.465  14.121
    9AGAL   H61 1598   2.785   3.358  14.096
    9AGAL   H62 1599   2.800   3.472  14.232
    9AGAL    O6 1600   2.685   3.538  14.077
    9AGAL   HO6 1601   2.644   3.489  14.005
   10AGAL    C1 1602   3.380   3.725  13.911
   10AGAL    H1 1603   3.361   3.835  13.920
   10AGAL    C5 1604   3.463   3.538  14.041
   10AGAL    H5 1605   3.376   3.483  14.001
   10AGAL    O5 1606   3.421   3.677  14.042
   10AGAL    C2 1607   3.494   3.706  13.812
   10AGAL    H2 1608   3.581   3.763  13.848
   10AGAL    O2 1609   3.467   3.766  13.684
   10AGAL   HO2 1610   3.551   3.811  13.661
   10AGAL    C3 1611   3.531   3.558  13.806
   10AGAL    H3 1612   3.439   3.501  13.781
   10AGAL    O3 1613   3.629   3.530  13.707
   10AGAL   HO3 1614   3.591   3.476  13.637
   10AGAL    C4 1615   3.577   3.514  13.944
   10AGAL    H4 1616   3.600   3.405  13.944
   10AGAL    O4 1617   3.694   3.583  13.984
   10AGAL   HO4 1618   3.669   3.673  13.998
   10AGAL    C6 1619   3.487   3.474  14.179
   10AGAL   H61 1620   3.402   3.499  14.246
   10AGAL   H62 1621   3.486   3.364  14.164
   10AGAL    O6 1622   3.607   3.508  14.250
   10AGAL   HO6 1623   3.588   3.561  14.327
   11BGLC    C1 1624   3.180   3.147  14.184
   11BGLC    H1 1625   3.228   3.048  14.198
   11BGLC    C5 1626   2.958   3.068  14.243
   11BGLC    H5 1627   2.991   2.965  14.271
   11BGLC    O5 1628   3.042   3.133  14.145
   11BGLC    C2 1629   3.187   3.225  14.315
   11BGLC    H2 1630   3.145   3.328  14.301
   11BGLC    O2 1631   3.322   3.242  14.353
   11BGLC   HO2 1632   3.338   3.336  14.366
   11BGLC    C3 1633   3.108   3.161  14.426
   11BGLC    H3 1634   3.151   3.062  14.453
   11BGLC    O3 1635   3.106   3.249  14.541
   11BGLC    C4 1636   2.966   3.149  14.376
   11BGLC    H4 1637   2.928   3.252  14.354
   11BGLC    O4 1638   2.881   3.099  14.478
   11BGLC   HO4 1639   2.872   3.165  14.549
   11BGLC    C6 1640   2.812   3.078  14.188
   11BGLC   H61 1641   2.751   3.071  14.277
   11BGLC   H62 1642   2.798   3.171  14.137
   11BGLC    O6 1643   2.751   3.010  14.078
   11BGLC   HO6 1644   2.743   2.913  14.096
   12BGLCN   C1 1645   3.148   3.201  14.668
   12BGLCN   H1 1646   3.259   3.204  14.673
   12BGLCN   C5 1647   3.147   3.022  14.824
   12BGLCN   H5 1648   3.258   3.024  14.831
   12BGLCN   O5 1649   3.103   3.069  14.695
   12BGLCN   C2 1650   3.087   3.295  14.771
   12BGLCN   H2 1651   2.976   3.278  14.766
   12BGLCN    N 1652   3.122   3.431  14.742
   12BGLCN   HN 1653   3.220   3.448  14.731
   12BGLCN    C 1654   3.031   3.527  14.728
   12BGLCN    O 1655   2.912   3.507  14.745
   12BGLCN   CT 1656   3.082   3.664  14.696
   12BGLCN  HT1 1657   3.071   3.734  14.780
   12BGLCN  HT2 1658   3.025   3.709  14.614
   12BGLCN  HT3 1659   3.184   3.658  14.660
   12BGLCN   C3 1660   3.131   3.258  14.912
   12BGLCN   H3 1661   3.242   3.267  14.916
   12BGLCN   O3 1662   3.077   3.348  15.014
   12BGLCN   C4 1663   3.088   3.114  14.931
   12BGLCN   H4 1664   2.978   3.107  14.919
   12BGLCN   O4 1665   3.121   3.070  15.061
   12BGLCN  HO4 1666   3.215   3.055  15.066
   12BGLCN   C6 1667   3.102   2.878  14.831
   12BGLCN  H61 1668   3.129   2.831  14.929
   12BGLCN  H62 1669   2.992   2.873  14.819
   12BGLCN   O6 1670   3.162   2.801  14.726
   12BGLCN  HO6 1671   3.248   2.769  14.754
   13AGAL    C1 1672   3.165   3.382  15.120
   13AGAL    H1 1673   3.220   3.291  15.152
   13AGAL    C5 1674   3.187   3.615  15.063
   13AGAL    H5 1675   3.106   3.592  14.990
   13AGAL    O5 1676   3.255   3.488  15.084
   13AGAL    C2 1677   3.095   3.433  15.246
   13AGAL    H2 1678   3.177   3.462  15.316
   13AGAL    O2 1679   3.021   3.330  15.312
   13AGAL    C3 1680   3.018   3.561  15.225
   13AGAL    H3 1681   2.950   3.548  15.137
   13AGAL    O3 1682   2.936   3.594  15.335
   13AGAL   HO3 1683   2.854   3.638  15.307
   13AGAL    C4 1684   3.117   3.669  15.187
   13AGAL    H4 1685   3.061   3.761  15.160
   13AGAL    O4 1686   3.208   3.702  15.293
   13AGAL   HO4 1687   3.245   3.624  15.334
   13AGAL    C6 1688   3.266   3.723  14.991
   13AGAL   H61 1689   3.306   3.680  14.897
   13AGAL   H62 1690   3.197   3.807  14.967
   13AGAL    O6 1691   3.374   3.778  15.064
   13AGAL   HO6 1692   3.341   3.838  15.134
   14ARHM    C1 1693   3.073   3.290  15.437
   14ARHM    H1 1694   3.183   3.299  15.440
   14ARHM    C5 1695   2.916   3.129  15.454
   14ARHM    H5 1696   2.867   3.158  15.357
   14ARHM    O5 1697   3.053   3.154  15.451
   14ARHM    C2 1698   3.004   3.364  15.548
   14ARHM    H2 1699   3.021   3.472  15.531
   14ARHM    O2 1700   3.042   3.329  15.682
   14ARHM    C3 1701   2.856   3.335  15.544
   14ARHM    H3 1702   2.818   3.352  15.440
   14ARHM    O3 1703   2.781   3.424  15.625
   14ARHM   HO3 1704   2.790   3.398  15.717
   14ARHM    C4 1705   2.836   3.189  15.570
   14ARHM    H4 1706   2.883   3.153  15.665
   14ARHM    O4 1707   2.696   3.158  15.578
   14ARHM   HO4 1708   2.665   3.128  15.663
   14ARHM    C6 1709   2.954   2.989  15.456
   14ARHM   H61 1710   3.010   2.924  15.389
   14ARHM   H62 1711   2.929   2.942  15.555
   14ARHM   H63 1712   2.881   2.972  15.371
   15ARHM    C1 1713   3.179   3.331  15.711
   15ARHM    H1 1714   3.231   3.399  15.641
   15ARHM    C5 1715   3.192   3.104  15.800
   15ARHM    H5 1716   3.085   3.078  15.781
   15ARHM    O5 1717   3.241   3.201  15.705
   15ARHM    C2 1718   3.195   3.388  15.850
   15ARHM    H2 1719   3.140   3.484  15.857
   15ARHM    O2 1720   3.336   3.413  15.867
   15ARHM    C3 1721   3.135   3.292  15.949
   15ARHM    H3 1722   3.029   3.272  15.920
   15ARHM    O3 1723   3.135   3.358  16.076
   15ARHM    C4 1724   3.210   3.161  15.940
   15ARHM    H4 1725   3.317   3.184  15.956
   15ARHM    O4 1726   3.178   3.065  16.038
   15ARHM   HO4 1727   3.244   2.995  16.030
   15ARHM    C6 1728   3.273   2.974  15.783
   15ARHM   H61 1729   3.231   2.889  15.841
   15ARHM   H62 1730   3.277   2.948  15.675
   15ARHM   H63 1731   3.377   2.986  15.817
   16BMANN   C1 1732   3.387   3.467  15.987
   16BMANN   H1 1733   3.376   3.390  16.068
   16BMANN   C5 1734   3.370   3.634  16.156
   16BMANN   H5 1735   3.360   3.551  16.231
   16BMANN   O5 1736   3.321   3.588  16.028
   16BMANN   C2 1737   3.535   3.497  15.967
   16BMANN   H2 1738   3.587   3.402  15.941
   16BMANN    N 1739   3.565   3.592  15.862
   16BMANN   HN 1740   3.581   3.685  15.893
   16BMANN    C 1741   3.592   3.562  15.735
   16BMANN    O 1742   3.597   3.449  15.692
   16BMANN   CT 1743   3.614   3.679  15.642
   16BMANN  HT1 1744   3.718   3.691  15.614
   16BMANN  HT2 1745   3.580   3.773  15.688
   16BMANN  HT3 1746   3.563   3.662  15.546
   16BMANN   C3 1747   3.590   3.544  16.099
   16BMANN   H3 1748   3.570   3.463  16.171
   16BMANN   O3 1749   3.730   3.565  16.093
   16BMANN  HO3 1750   3.773   3.515  16.163
   16BMANN   C4 1751   3.517   3.668  16.147
   16BMANN   H4 1752   3.533   3.751  16.073
   16BMANN   O4 1753   3.563   3.717  16.273
   16BMANN  HO4 1754   3.544   3.812  16.281
   16BMANN   C6 1755   3.291   3.750  16.213
   16BMANN  H61 1756   3.296   3.745  16.324
   16BMANN  H62 1757   3.337   3.846  16.180
   16BMANN   O6 1758   3.154   3.753  16.173
   16BMANN  HO6 1759   3.138   3.832  16.121
   17BGLCN   C1 1760   3.018   3.336  16.151
   17BGLCN   H1 1761   2.985   3.231  16.135
   17BGLCN   C5 1762   2.790   3.402  16.192
   17BGLCN   H5 1763   2.751   3.300  16.170
   17BGLCN   O5 1764   2.911   3.424  16.115
   17BGLCN   C2 1765   3.060   3.359  16.295
   17BGLCN   H2 1766   3.089   3.466  16.312
   17BGLCN    N 1767   3.179   3.280  16.324
   17BGLCN   HN 1768   3.186   3.195  16.273
   17BGLCN    C 1769   3.270   3.305  16.417
   17BGLCN    O 1770   3.274   3.408  16.483
   17BGLCN   CT 1771   3.369   3.192  16.439
   17BGLCN  HT1 1772   3.465   3.210  16.388
   17BGLCN  HT2 1773   3.322   3.098  16.404
   17BGLCN  HT3 1774   3.388   3.181  16.547
   17BGLCN   C3 1775   2.940   3.324  16.381
   17BGLCN   H3 1776   2.911   3.222  16.348
   17BGLCN   O3 1777   2.981   3.322  16.521
   17BGLCN   C4 1778   2.827   3.418  16.340
   17BGLCN   H4 1779   2.863   3.520  16.342
   17BGLCN   O4 1780   2.714   3.408  16.426
   17BGLCN  HO4 1781   2.650   3.479  16.409
   17BGLCN   C6 1782   2.684   3.503  16.149
   17BGLCN  H61 1783   2.583   3.458  16.153
   17BGLCN  H62 1784   2.683   3.591  16.217
   17BGLCN   O6 1785   2.701   3.553  16.016
   17BGLCN  HO6 1786   2.704   3.481  15.951
   18AGAL    C1 1787   2.918   3.228  16.605
   18AGAL    H1 1788   2.811   3.256  16.618
   18AGAL    C5 1789   3.043   3.033  16.526
   18AGAL    H5 1790   3.107   3.107  16.477
   18AGAL    O5 1791   2.921   3.100  16.548
   18AGAL    C2 1792   2.981   3.199  16.737
   18AGAL    H2 1793   2.915   3.117  16.777
   18AGAL    O2 1794   2.968   3.309  16.825
   18AGAL    C3 1795   3.120   3.137  16.723
   18AGAL    H3 1796   3.178   3.202  16.655
   18AGAL    O3 1797   3.188   3.131  16.847
   18AGAL   HO3 1798   3.280   3.161  16.836
   18AGAL    C4 1799   3.108   3.002  16.656
   18AGAL    H4 1800   3.207   2.957  16.632
   18AGAL    O4 1801   3.035   2.905  16.730
   18AGAL   HO4 1802   3.087   2.881  16.808
   18AGAL    C6 1803   3.032   2.928  16.417
   18AGAL   H61 1804   3.000   2.981  16.323
   18AGAL   H62 1805   3.132   2.885  16.399
   18AGAL    O6 1806   2.942   2.820  16.443
   18AGAL   HO6 1807   2.870   2.849  16.501
   19ARHM    C1 1808   2.934   3.262  16.953
   19ARHM    H1 1809   2.974   3.160  16.972
   19ARHM    C5 1810   2.724   3.375  16.961
   19ARHM    H5 1811   2.747   3.411  16.858
   19ARHM    O5 1812   2.793   3.251  16.978
   19ARHM    C2 1813   2.993   3.363  17.047
   19ARHM    H2 1814   3.100   3.379  17.023
   19ARHM    O2 1815   2.987   3.317  17.181
   19ARHM    C3 1816   2.923   3.495  17.032
   19ARHM    H3 1817   2.932   3.528  16.926
   19ARHM    O3 1818   2.985   3.595  17.112
   19ARHM   HO3 1819   2.991   3.557  17.201
   19ARHM    C4 1820   2.775   3.478  17.060
   19ARHM    H4 1821   2.764   3.439  17.165
   19ARHM    O4 1822   2.700   3.599  17.050
   19ARHM   HO4 1823   2.706   3.630  16.958
   19ARHM    C6 1824   2.572   3.351  16.964
   19ARHM   H61 1825   2.551   3.278  16.884
   19ARHM   H62 1826   2.537   3.311  17.061
   19ARHM   H63 1827   2.518   3.445  16.943
   20ARHM    C1 1828   3.088   3.223  17.206
   20ARHM    H1 1829   3.155   3.204  17.121
   20ARHM    C5 1830   2.958   3.108  17.338
   20ARHM    H5 1831   2.862   3.167  17.324
   20ARHM    O5 1832   3.033   3.104  17.220
   20ARHM    C2 1833   3.160   3.253  17.332
   20ARHM    H2 1834   3.194   3.357  17.321
   20ARHM    O2 1835   3.265   3.159  17.353
   20ARHM    C3 1836   3.072   3.251  17.451
   20ARHM    H3 1837   2.982   3.317  17.434
   20ARHM    O3 1838   3.143   3.286  17.567
   20ARHM    C4 1839   3.019   3.122  17.471
   20ARHM    H4 1840   3.094   3.036  17.477
   20ARHM    O4 1841   2.930   3.106  17.583
   20ARHM   HO4 1842   2.870   3.035  17.557
   20ARHM    C6 1843   2.931   2.989  17.329
   20ARHM   H61 1844   2.985   2.892  17.336
   20ARHM   H62 1845   2.860   2.987  17.419
   20ARHM   H63 1846   2.867   2.995  17.233
   21BMANN   C1 1847   3.374   3.199  17.277
   21BMANN   H1 1848   3.343   3.282  17.208
   21BMANN   C5 1849   3.522   3.154  17.102
   21BMANN   H5 1850   3.483   3.243  17.046
   21BMANN   O5 1851   3.420   3.099  17.188
   21BMANN   C2 1852   3.481   3.248  17.371
   21BMANN   H2 1853   3.434   3.333  17.428
   21BMANN    N 1854   3.530   3.148  17.465
   21BMANN   HN 1855   3.545   3.058  17.426
   21BMANN    C 1856   3.563   3.172  17.594
   21BMANN    O 1857   3.574   3.285  17.640
   21BMANN   CT 1858   3.590   3.052  17.683
   21BMANN  HT1 1859   3.691   3.011  17.664
   21BMANN  HT2 1860   3.513   2.975  17.668
   21BMANN  HT3 1861   3.586   3.081  17.790
   21BMANN   C3 1862   3.589   3.305  17.282
   21BMANN   H3 1863   3.542   3.389  17.227
   21BMANN   O3 1864   3.696   3.357  17.357
   21BMANN  HO3 1865   3.732   3.289  17.414
   21BMANN   C4 1866   3.639   3.201  17.184
   21BMANN   H4 1867   3.684   3.114  17.238
   21BMANN   O4 1868   3.738   3.251  17.096
   21BMANN  HO4 1869   3.821   3.207  17.116
   21BMANN   C6 1870   3.566   3.054  16.998
   21BMANN  H61 1871   3.621   3.106  16.917
   21BMANN  H62 1872   3.636   2.982  17.045
   21BMANN   O6 1873   3.455   2.984  16.944
   21BMANN  HO6 1874   3.412   2.936  17.016
   22BGLCN   C1 1875   3.069   3.358  17.661
   22BGLCN   H1 1876   2.960   3.333  17.660
   22BGLCN   C5 1877   3.021   3.572  17.747
   22BGLCN   H5 1878   2.913   3.543  17.747
   22BGLCN   O5 1879   3.087   3.498  17.643
   22BGLCN   C2 1880   3.129   3.314  17.792
   22BGLCN   H2 1881   3.239   3.340  17.786
   22BGLCN    N 1882   3.113   3.172  17.809
   22BGLCN   HN 1883   3.029   3.133  17.775
   22BGLCN    C 1884   3.201   3.091  17.871
   22BGLCN    O 1885   3.305   3.129  17.922
   22BGLCN   CT 1886   3.162   2.947  17.875
   22BGLCN  HT1 1887   3.213   2.899  17.789
   22BGLCN  HT2 1888   3.052   2.937  17.864
   22BGLCN  HT3 1889   3.192   2.901  17.972
   22BGLCN   C3 1890   3.064   3.389  17.905
   22BGLCN   H3 1891   2.954   3.369  17.902
   22BGLCN   O3 1892   3.118   3.335  18.026
   22BGLCN   C4 1893   3.083   3.537  17.883
   22BGLCN   H4 1894   3.192   3.558  17.878
   22BGLCN   O4 1895   3.028   3.614  17.990
   22BGLCN  HO4 1896   3.088   3.688  18.008
   22BGLCN   C6 1897   3.036   3.718  17.714
   22BGLCN  H61 1898   3.015   3.777  17.805
   22BGLCN  H62 1899   3.140   3.741  17.682
   22BGLCN   O6 1900   2.942   3.761  17.616
   22BGLCN  HO6 1901   2.952   3.712  17.534
   23AGAL    C1 1902   3.049   3.354  18.147
   23AGAL    H1 1903   3.062   3.458  18.181
   23AGAL    C5 1904   2.879   3.190  18.110
   23AGAL    H5 1905   2.935   3.158  18.018
   23AGAL    O5 1906   2.908   3.329  18.136
   23AGAL    C2 1907   3.108   3.266  18.254
   23AGAL    H2 1908   3.049   3.289  18.347
   23AGAL    O2 1909   3.247   3.297  18.278
   23AGAL    C3 1910   3.079   3.120  18.224
   23AGAL    H3 1911   3.116   3.096  18.122
   23AGAL    O3 1912   3.151   3.033  18.310
   23AGAL   HO3 1913   3.135   3.060  18.400
   23AGAL    C4 1914   2.928   3.099  18.222
   23AGAL    H4 1915   2.904   2.993  18.198
   23AGAL    O4 1916   2.866   3.130  18.346
   23AGAL   HO4 1917   2.777   3.160  18.323
   23AGAL    C6 1918   2.733   3.181  18.071
   23AGAL   H61 1919   2.709   3.258  17.994
   23AGAL   H62 1920   2.718   3.081  18.023
   23AGAL    O6 1921   2.643   3.195  18.181
   23AGAL   HO6 1922   2.551   3.195  18.152
   24ARHM    C1 1923   3.278   3.405  18.365
   24ARHM    H1 1924   3.189   3.470  18.375
   24ARHM    C5 1925   3.508   3.424  18.305
   24ARHM    H5 1926   3.482   3.342  18.239
   24ARHM    O5 1927   3.383   3.492  18.319
   24ARHM    C2 1928   3.316   3.343  18.497
   24ARHM    H2 1929   3.237   3.271  18.529
   24ARHM    O2 1930   3.339   3.443  18.598
   24ARHM    C3 1931   3.444   3.264  18.479
   24ARHM    H3 1932   3.425   3.188  18.399
   24ARHM    O3 1933   3.478   3.191  18.597
   24ARHM   HO3 1934   3.531   3.248  18.653
   24ARHM    C4 1935   3.553   3.359  18.435
   24ARHM    H4 1936   3.567   3.441  18.509
   24ARHM    O4 1937   3.676   3.292  18.416
   24ARHM   HO4 1938   3.750   3.352  18.434
   24ARHM    C6 1939   3.616   3.508  18.233
   24ARHM   H61 1940   3.688   3.442  18.179
   24ARHM   H62 1941   3.567   3.574  18.158
   24ARHM   H63 1942   3.670   3.573  18.304
   25ARHM    C1 1943   3.223   3.499  18.651
   25ARHM    H1 1944   3.137   3.477  18.583
   25ARHM    C5 1945   3.325   3.687  18.756
   25ARHM    H5 1946   3.425   3.651  18.721
   25ARHM    O5 1947   3.226   3.642  18.661
   25ARHM    C2 1948   3.195   3.433  18.783
   25ARHM    H2 1949   3.207   3.322  18.773
   25ARHM    O2 1950   3.063   3.464  18.827
   25ARHM    C3 1951   3.300   3.478  18.881
   25ARHM    H3 1952   3.401   3.448  18.844
   25ARHM    O3 1953   3.271   3.418  19.007
   25ARHM    C4 1954   3.298   3.628  18.894
   25ARHM    H4 1955   3.197   3.663  18.927
   25ARHM    O4 1956   3.394   3.671  18.990
   25ARHM   HO4 1957   3.356   3.742  19.042
   25ARHM    C6 1958   3.330   3.841  18.757
   25ARHM   H61 1959   3.339   3.880  18.653
   25ARHM   H62 1960   3.239   3.883  18.803
   25ARHM   H63 1961   3.418   3.874  18.815
   26BMANN   C1 1962   2.962   3.389  18.764
   26BMANN   H1 1963   3.002   3.295  18.721
   26BMANN   C5 1964   2.794   3.375  18.595
   26BMANN   H5 1965   2.845   3.285  18.554
   26BMANN   O5 1966   2.893   3.458  18.659
   26BMANN   C2 1967   2.862   3.355  18.870
   26BMANN   H2 1968   2.918   3.300  18.947
   26BMANN    N 1969   2.802   3.474  18.929
   26BMANN   HN 1970   2.763   3.539  18.865
   26BMANN    C 1971   2.799   3.502  19.060
   26BMANN    O 1972   2.860   3.433  19.140
   26BMANN   CT 1973   2.713   3.620  19.102
   26BMANN  HT1 1974   2.707   3.694  19.020
   26BMANN  HT2 1975   2.747   3.669  19.196
   26BMANN  HT3 1976   2.612   3.581  19.121
   26BMANN   C3 1977   2.761   3.260  18.810
   26BMANN   H3 1978   2.814   3.171  18.768
   26BMANN   O3 1979   2.673   3.211  18.909
   26BMANN  HO3 1980   2.720   3.148  18.964
   26BMANN   C4 1981   2.690   3.332  18.697
   26BMANN   H4 1982   2.637   3.422  18.735
   26BMANN   O4 1983   2.591   3.252  18.635
   26BMANN  HO4 1984   2.517   3.244  18.696
   26BMANN   C6 1985   2.739   3.453  18.477
   26BMANN  H61 1986   2.823   3.507  18.429
   26BMANN  H62 1987   2.697   3.384  18.400
   26BMANN   O6 1988   2.638   3.547  18.514
   26BMANN  HO6 1989   2.565   3.497  18.550
   27BGLCN   C1 1990   3.377   3.370  19.084
   27BGLCN   H1 1991   3.466   3.437  19.080
   27BGLCN   C5 1992   3.521   3.187  19.128
   27BGLCN   H5 1993   3.604   3.262  19.130
   27BGLCN   O5 1994   3.417   3.239  19.043
   27BGLCN   C2 1995   3.319   3.363  19.223
   27BGLCN   H2 1996   3.235   3.289  19.220
   27BGLCN    N 1997   3.265   3.492  19.266
   27BGLCN   HN 1998   3.319   3.572  19.242
   27BGLCN    C 1999   3.147   3.501  19.332
   27BGLCN    O 2000   3.095   3.404  19.386
   27BGLCN   CT 2001   3.078   3.635  19.338
   27BGLCN  HT1 2002   3.130   3.708  19.272
   27BGLCN  HT2 2003   3.072   3.673  19.442
   27BGLCN  HT3 2004   2.973   3.621  19.303
   27BGLCN   C3 2005   3.421   3.310  19.319
   27BGLCN   H3 2006   3.509   3.379  19.314
   27BGLCN   O3 2007   3.359   3.317  19.449
   27BGLCN   C4 2008   3.468   3.173  19.271
   27BGLCN   H4 2009   3.381   3.103  19.270
   27BGLCN   O4 2010   3.569   3.120  19.355
   27BGLCN  HO4 2011   3.649   3.172  19.345
   27BGLCN   C6 2012   3.578   3.061  19.068
   27BGLCN  H61 2013   3.673   3.035  19.121
   27BGLCN  H62 2014   3.508   2.975  19.082
   27BGLCN   O6 2015   3.607   3.079  18.929
   27BGLCN  HO6 2016   3.636   2.998  18.890
   28AGAL    C1 2017   3.444   3.312  19.560
   28AGAL    H1 2018   3.481   3.207  19.569
   28AGAL    C5 2019   3.516   3.540  19.549
   28AGAL    H5 2020   3.430   3.557  19.479
   28AGAL    O5 2021   3.556   3.401  19.541
   28AGAL    C2 2022   3.380   3.343  19.697
   28AGAL    H2 2023   3.467   3.329  19.766
   28AGAL    O2 2024   3.277   3.256  19.747
   28AGAL    C3 2025   3.338   3.489  19.705
   28AGAL    H3 2026   3.268   3.509  19.621
   28AGAL    O3 2027   3.268   3.528  19.823
   28AGAL   HO3 2028   3.181   3.562  19.797
   28AGAL    C4 2029   3.460   3.573  19.685
   28AGAL    H4 2030   3.429   3.680  19.685
   28AGAL    O4 2031   3.557   3.556  19.787
   28AGAL   HO4 2032   3.550   3.631  19.846
   28AGAL    C6 2033   3.627   3.633  19.502
   28AGAL   H61 2034   3.640   3.614  19.393
   28AGAL   H62 2035   3.599   3.741  19.513
   28AGAL    O6 2036   3.752   3.618  19.567
   28AGAL   HO6 2037   3.795   3.535  19.542
   29ARHM    C1 2038   3.296   3.232  19.885
   29ARHM    H1 2039   3.350   3.316  19.933
   29ARHM    C5 2040   3.302   2.999  19.850
   29ARHM    H5 2041   3.284   3.023  19.744
   29ARHM    O5 2042   3.369   3.111  19.908
   29ARHM    C2 2043   3.163   3.221  19.953
   29ARHM    H2 2044   3.104   3.313  19.928
   29ARHM    O2 2045   3.180   3.209  20.096
   29ARHM    C3 2046   3.088   3.104  19.895
   29ARHM    H3 2047   3.073   3.118  19.786
   29ARHM    O3 2048   2.960   3.099  19.955
   29ARHM   HO3 2049   2.937   3.006  19.960
   29ARHM    C4 2050   3.166   2.976  19.916
   29ARHM    H4 2051   3.177   2.963  20.025
   29ARHM    O4 2052   3.101   2.857  19.869
   29ARHM   HO4 2053   3.067   2.867  19.779
   29ARHM    C6 2054   3.405   2.886  19.854
   29ARHM   H61 2055   3.500   2.927  19.814
   29ARHM   H62 2056   3.419   2.852  19.956
   29ARHM   H63 2057   3.373   2.799  19.794
   30ARHM    C1 2058   3.167   3.327  20.173
   30ARHM    H1 2059   3.069   3.376  20.152
   30ARHM    C5 2060   3.403   3.368  20.186
   30ARHM    H5 2061   3.414   3.274  20.128
   30ARHM    O5 2062   3.274   3.422  20.152
   30ARHM    C2 2063   3.171   3.287  20.319
   30ARHM    H2 2064   3.091   3.211  20.339
   30ARHM    O2 2065   3.153   3.404  20.397
   30ARHM    C3 2066   3.305   3.229  20.358
   30ARHM    H3 2067   3.324   3.144  20.288
   30ARHM    O3 2068   3.301   3.171  20.491
   30ARHM    C4 2069   3.412   3.331  20.333
   30ARHM    H4 2070   3.396   3.424  20.392
   30ARHM    O4 2071   3.542   3.284  20.367
   30ARHM   HO4 2072   3.584   3.232  20.299
   30ARHM    C6 2073   3.514   3.464  20.141
   30ARHM   H61 2074   3.613   3.417  20.159
   30ARHM   H62 2075   3.505   3.485  20.033
   30ARHM   H63 2076   3.509   3.558  20.199
   31BMANN   C1 2077   3.020   3.434  20.426
   31BMANN   H1 2078   2.965   3.341  20.452
   31BMANN   C5 2079   2.822   3.546  20.356
   31BMANN   H5 2080   2.771   3.450  20.386
   31BMANN   O5 2081   2.956   3.508  20.322
   31BMANN   C2 2082   3.030   3.524  20.545
   31BMANN   H2 2083   3.074   3.462  20.628
   31BMANN    N 2084   3.120   3.635  20.519
   31BMANN   HN 2085   3.135   3.655  20.422
   31BMANN    C 2086   3.190   3.696  20.613
   31BMANN    O 2087   3.183   3.660  20.730
   31BMANN   CT 2088   3.278   3.810  20.569
   31BMANN  HT1 2089   3.223   3.868  20.493
   31BMANN  HT2 2090   3.372   3.769  20.526
   31BMANN  HT3 2091   3.304   3.874  20.656
   31BMANN   C3 2092   2.891   3.561  20.587
   31BMANN   H3 2093   2.831   3.468  20.603
   31BMANN   O3 2094   2.893   3.626  20.712
   31BMANN  HO3 2095   2.981   3.610  20.750
   31BMANN   C4 2096   2.822   3.638  20.477
   31BMANN   H4 2097   2.878   3.730  20.449
   31BMANN   O4 2098   2.691   3.677  20.513
   31BMANN  HO4 2099   2.645   3.605  20.556
   31BMANN   C6 2100   2.747   3.606  20.238
   31BMANN  H61 2101   2.641   3.617  20.260
   31BMANN  H62 2102   2.779   3.710  20.221
   31BMANN   O6 2103   2.759   3.532  20.116
   31BMANN  HO6 2104   2.710   3.449  20.119
   32BGLCN   C1 2105   3.320   3.261  20.597
   32BGLCN   H1 2106   3.269   3.357  20.577
   32BGLCN   C5 2107   3.470   3.388  20.728
   32BGLCN   H5 2108   3.416   3.480  20.694
   32BGLCN   O5 2109   3.456   3.289  20.626
   32BGLCN   C2 2110   3.258   3.204  20.722
   32BGLCN   H2 2111   3.321   3.116  20.752
   32BGLCN    N 2112   3.125   3.158  20.696
   32BGLCN   HN 2113   3.078   3.207  20.624
   32BGLCN    C 2114   3.069   3.050  20.748
   32BGLCN    O 2115   3.119   2.973  20.829
   32BGLCN   CT 2116   2.936   3.029  20.692
   32BGLCN  HT1 2117   2.920   3.085  20.598
   32BGLCN  HT2 2118   2.855   3.059  20.763
   32BGLCN  HT3 2119   2.926   2.921  20.669
   32BGLCN   C3 2120   3.262   3.309  20.829
   32BGLCN   H3 2121   3.218   3.401  20.784
   32BGLCN   O3 2122   3.183   3.278  20.945
   32BGLCN   C4 2123   3.407   3.338  20.857
   32BGLCN   H4 2124   3.456   3.243  20.888
   32BGLCN   O4 2125   3.424   3.433  20.961
   32BGLCN  HO4 2126   3.429   3.384  21.044
   32BGLCN   C6 2127   3.616   3.427  20.739
   32BGLCN  H61 2128   3.621   3.514  20.804
   32BGLCN  H62 2129   3.676   3.346  20.786
   32BGLCN   O6 2130   3.673   3.466  20.614
   32BGLCN  HO6 2131   3.608   3.514  20.562
   33AGAL    C1 2132   3.119   3.389  21.004
   33AGAL    H1 2133   3.185   3.479  20.997
   33AGAL    C5 2134   2.898   3.312  20.958
   33AGAL    H5 2135   2.951   3.222  20.921
   33AGAL    O5 2136   2.992   3.420  20.942
   33AGAL    C2 2137   3.092   3.360  21.151
   33AGAL    H2 2138   3.034   3.447  21.190
   33AGAL    O2 2139   3.216   3.360  21.223
   33AGAL    C3 2140   2.998   3.240  21.167
   33AGAL    H3 2141   3.037   3.153  21.109
   33AGAL    O3 2142   2.989   3.190  21.300
   33AGAL   HO3 2143   2.961   3.260  21.360
   33AGAL    C4 2144   2.864   3.278  21.103
   33AGAL    H4 2145   2.796   3.189  21.103
   33AGAL    O4 2146   2.789   3.380  21.169
   33AGAL   HO4 2147   2.840   3.440  21.225
   33AGAL    C6 2148   2.779   3.326  20.862
   33AGAL   H61 2149   2.821   3.324  20.760
   33AGAL   H62 2150   2.710   3.240  20.874
   33AGAL    O6 2151   2.699   3.443  20.876
   33AGAL   HO6 2152   2.735   3.518  20.827
   34ARHM    C1 2153   3.216   3.438  21.342
   34ARHM    H1 2154   3.127   3.410  21.401
   34ARHM    C5 2155   3.319   3.634  21.244
   34ARHM    H5 2156   3.317   3.587  21.143
   34ARHM    O5 2157   3.209   3.581  21.320
   34ARHM    C2 2158   3.342   3.401  21.417
   34ARHM    H2 2159   3.352   3.290  21.420
   34ARHM    O2 2160   3.346   3.451  21.553
   34ARHM    C3 2161   3.462   3.452  21.337
   34ARHM    H3 2162   3.461   3.405  21.236
   34ARHM    O3 2163   3.586   3.415  21.399
   34ARHM   HO3 2164   3.652   3.399  21.331
   34ARHM    C4 2165   3.449   3.601  21.317
   34ARHM    H4 2166   3.443   3.653  21.415
   34ARHM    O4 2167   3.563   3.652  21.248
   34ARHM   HO4 2168   3.639   3.655  21.308
   34ARHM    C6 2169   3.304   3.788  21.222
   34ARHM   H61 2170   3.300   3.846  21.316
   34ARHM   H62 2171   3.396   3.823  21.175
   34ARHM   H63 2172   3.220   3.816  21.155
   35ARHM    C1 2173   3.241   3.417  21.643
   35ARHM    H1 2174   3.207   3.313  21.623
   35ARHM    C5 2175   3.162   3.642  21.657
   35ARHM    H5 2176   3.242   3.676  21.587
   35ARHM    O5 2177   3.129   3.505  21.632
   35ARHM    C2 2178   3.291   3.425  21.787
   35ARHM    H2 2179   3.379   3.358  21.802
   35ARHM    O2 2180   3.188   3.387  21.880
   35ARHM    C3 2181   3.334   3.566  21.819
   35ARHM    H3 2182   3.415   3.598  21.748
   35ARHM    O3 2183   3.394   3.574  21.949
   35ARHM   HO3 2184   3.347   3.512  22.005
   35ARHM    C4 2185   3.214   3.659  21.801
   35ARHM    H4 2186   3.131   3.629  21.870
   35ARHM    O4 2187   3.248   3.794  21.831
   35ARHM   HO4 2188   3.337   3.814  21.799
   35ARHM    C6 2189   3.039   3.728  21.621
   35ARHM   H61 2190   3.016   3.726  21.512
   35ARHM   H62 2191   2.951   3.692  21.678
   35ARHM   H63 2192   3.064   3.832  21.648
   36BMANN   C1 2193   3.162   3.250  21.885
   36BMANN   H1 2194   3.249   3.191  21.849
   36BMANN   C5 2195   3.034   3.072  21.808
   36BMANN   H5 2196   3.125   3.029  21.771
   36BMANN   O5 2197   3.053   3.213  21.804
   36BMANN   C2 2198   3.130   3.215  22.029
   36BMANN   H2 2199   3.222   3.242  22.085
   36BMANN    N 2200   3.018   3.291  22.086
   36BMANN   HN 2201   2.941   3.309  22.025
   36BMANN    C 2202   3.011   3.318  22.219
   36BMANN    O 2203   3.106   3.299  22.294
   36BMANN   CT 2204   2.882   3.376  22.270
   36BMANN  HT1 2205   2.796   3.324  22.223
   36BMANN  HT2 2206   2.875   3.485  22.251
   36BMANN  HT3 2207   2.876   3.362  22.381
   36BMANN   C3 2208   3.114   3.065  22.038
   36BMANN   H3 2209   3.206   3.015  22.002
   36BMANN   O3 2210   3.092   3.020  22.170
   36BMANN  HO3 2211   3.160   2.963  22.205
   36BMANN   C4 2212   3.003   3.023  21.949
   36BMANN   H4 2213   2.913   3.075  21.986
   36BMANN   O4 2214   2.980   2.883  21.959
   36BMANN  HO4 2215   2.962   2.870  22.053
   36BMANN   C6 2216   2.935   3.034  21.709
   36BMANN  H61 2217   2.960   3.058  21.604
   36BMANN  H62 2218   2.932   2.922  21.707
   36BMANN   O6 2219   2.818   3.104  21.750
   36BMANN  HO6 2220   2.767   3.038  21.801
    1ECLIP HB6S 2221   4.891   3.597  11.779
    1ECLIP  OB6 2222   4.970   3.737  11.908
    1ECLIP  CB6 2223   4.874   3.703  11.806
    1ECLIP HB6R 2224   4.770   3.711  11.846
    1ECLIP  CB5 2225   4.881   3.788  11.680
    1ECLIP  OB5 2226   5.017   3.776  11.632
    1ECLIP  HB5 2227   4.858   3.892  11.711
    1ECLIP  CB1 2228   5.040   3.855  11.515
    1ECLIP  HB1 2229   5.016   3.962  11.533
    1ECLIP  OA6 2230   5.173   3.849  11.469
    1ECLIP  CA6 2231   5.241   3.724  11.493
    1ECLIP HA6R 2232   5.171   3.640  11.512
    1ECLIP HA6S 2233   5.308   3.737  11.581
    1ECLIP  CB4 2234   4.783   3.743  11.570
    1ECLIP  HB4 2235   4.797   3.636  11.542
    1ECLIP  OB4 2236   4.652   3.771  11.623
    1ECLIP   PB 2237   4.551   3.648  11.669
    1ECLIP OPB4 2238   4.467   3.692  11.790
    1ECLIP OPB3 2239   4.646   3.532  11.703
    1ECLIP OPB2 2240   4.465   3.620  11.547
    1ECLIP  CB3 2241   4.809   3.826  11.446
    1ECLIP  OB3 2242   4.737   3.785  11.329
    1ECLIP  HB3 2243   4.796   3.934  11.469
    1ECLIP  C71 2244   4.610   3.820  11.326
    1ECLIP  O71 2245   4.569   3.913  11.394
    1ECLIP  C72 2246   4.563   3.786  11.180
    1ECLIP H72R 2247   4.635   3.816  11.100
    1ECLIP H72S 2248   4.464   3.823  11.155
    1ECLIP  CB2 2249   4.952   3.808  11.403
    1ECLIP  HB2 2250   4.969   3.698  11.387
    1ECLIP  NB2 2251   4.979   3.885  11.281
    1ECLIP HNB2 2252   5.013   3.977  11.295
    1ECLIP  CA4 2253   5.399   3.811  11.316
    1ECLIP  HA4 2254   5.321   3.885  11.288
    1ECLIP  OA4 2255   5.482   3.869  11.418
    1ECLIP HOA4 2256   5.428   3.868  11.498
    1ECLIP  CA5 2257   5.324   3.691  11.370
    1ECLIP  HA5 2258   5.391   3.604  11.393
    1ECLIP  OA5 2259   5.232   3.651  11.270
    1ECLIP  CA1 2260   5.294   3.611  11.147
    1ECLIP  HA1 2261   5.206   3.602  11.079
    1ECLIP  OA1 2262   5.360   3.487  11.150
    1ECLIP OPA2 2263   5.357   3.328  11.336
    1ECLIP OPA3 2264   5.134   3.380  11.226
    1ECLIP OPA4 2265   5.309   3.245  11.099
    1ECLIP   PA 2266   5.283   3.352  11.206
    1ECLIP  CA3 2267   5.475   3.778  11.189
    1ECLIP  HA3 2268   5.552   3.700  11.210
    1ECLIP  OA3 2269   5.541   3.903  11.156
    1ECLIP  C31 2270   5.469   3.993  11.086
    1ECLIP  O31 2271   5.465   3.994  10.965
    1ECLIP  C32 2272   5.474   4.126  11.164
    1ECLIP H32R 2273   5.535   4.197  11.106
    1ECLIP H32S 2274   5.518   4.109  11.264
    1ECLIP  CA2 2275   5.372   3.727  11.088
    1ECLIP  HA2 2276   5.296   3.807  11.070
    1ECLIP  NA2 2277   5.434   3.691  10.959
    1ECLIP HNA2 2278   5.528   3.719  10.948
    1ECLIP  C73 2279   4.534   3.638  11.173
    1ECLIP H73R 2280   4.476   3.613  11.265
    1ECLIP  O73 2281   4.662   3.579  11.163
    1ECLIP  C81 2282   4.685   3.468  11.232
    1ECLIP  O81 2283   4.601   3.405  11.295
    1ECLIP  C82 2284   4.810   3.403  11.171
    1ECLIP H82R 2285   4.830   3.308  11.223
    1ECLIP H82S 2286   4.897   3.470  11.192
    1ECLIP  C83 2287   4.802   3.381  11.017
    1ECLIP H83R 2288   4.826   3.477  10.965
    1ECLIP H83S 2289   4.698   3.353  10.990
    1ECLIP  C84 2290   4.903   3.277  10.965
    1ECLIP H84R 2291   4.875   3.175  10.996
    1ECLIP H84S 2292   5.001   3.303  11.013
    1ECLIP  C85 2293   4.923   3.286  10.813
    1ECLIP H85R 2294   4.928   3.394  10.791
    1ECLIP H85S 2295   4.835   3.246  10.760
    1ECLIP  C86 2296   5.057   3.225  10.765
    1ECLIP H86R 2297   5.045   3.119  10.736
    1ECLIP H86S 2298   5.130   3.227  10.849
    1ECLIP  C87 2299   5.122   3.308  10.652
    1ECLIP H87R 2300   5.213   3.256  10.616
    1ECLIP H87S 2301   5.156   3.406  10.694
    1ECLIP  C88 2302   5.025   3.339  10.538
    1ECLIP H88R 2303   4.956   3.419  10.571
    1ECLIP H88S 2304   4.960   3.250  10.524
    1ECLIP  C89 2305   5.094   3.382  10.408
    1ECLIP H89R 2306   5.198   3.419  10.426
    1ECLIP H89S 2307   5.040   3.468  10.362
    1ECLIP C810 2308   5.093   3.268  10.306
    1ECLIPH810R 2309   5.003   3.207  10.329
    1ECLIPH810S 2310   5.183   3.205  10.323
    1ECLIP C811 2311   5.086   3.314  10.160
    1ECLIPH811R 2312   5.122   3.235  10.090
    1ECLIPH811S 2313   5.153   3.402  10.154
    1ECLIP C812 2314   4.949   3.362  10.110
    1ECLIPH812R 2315   4.966   3.404  10.008
    1ECLIPH812S 2316   4.912   3.442  10.177
    1ECLIP C813 2317   4.840   3.255  10.100
    1ECLIPH813R 2318   4.875   3.177  10.029
    1ECLIPH813S 2319   4.822   3.206  10.199
    1ECLIP C814 2320   4.708   3.312  10.049
    1ECLIPH814R 2321   4.721   3.375   9.958
    1ECLIPH814S 2322   4.661   3.375  10.128
    1ECLIPH814T 2323   4.638   3.230  10.025
    1ECLIP  C74 2324   4.453   3.593  11.049
    1ECLIP H74R 2325   4.350   3.636  11.041
    1ECLIP H74S 2326   4.439   3.484  11.067
    1ECLIP  C75 2327   4.527   3.606  10.914
    1ECLIP H75R 2328   4.503   3.515  10.855
    1ECLIP H75S 2329   4.637   3.604  10.933
    1ECLIP  C76 2330   4.495   3.731  10.831
    1ECLIP H76R 2331   4.550   3.819  10.874
    1ECLIP H76S 2332   4.386   3.756  10.835
    1ECLIP  C77 2333   4.534   3.719  10.682
    1ECLIP H77R 2334   4.470   3.642  10.635
    1ECLIP H77S 2335   4.637   3.687  10.668
    1ECLIP  C78 2336   4.524   3.858  10.616
    1ECLIP H78R 2337   4.426   3.897  10.645
    1ECLIP H78S 2338   4.596   3.923  10.669
    1ECLIP  C79 2339   4.558   3.867  10.466
    1ECLIP H79R 2340   4.663   3.898  10.455
    1ECLIP H79S 2341   4.510   3.950  10.415
    1ECLIP C710 2342   4.523   3.746  10.381
    1ECLIPH710R 2343   4.577   3.658  10.422
    1ECLIPH710S 2344   4.414   3.728  10.385
    1ECLIP C711 2345   4.564   3.763  10.235
    1ECLIPH711R 2346   4.509   3.849  10.190
    1ECLIPH711S 2347   4.674   3.782  10.228
    1ECLIP C712 2348   4.533   3.633  10.160
    1ECLIPH712R 2349   4.423   3.617  10.162
    1ECLIPH712S 2350   4.580   3.551  10.219
    1ECLIP C713 2351   4.585   3.629  10.018
    1ECLIPH713R 2352   4.697   3.641  10.020
    1ECLIPH713S 2353   4.563   3.532   9.969
    1ECLIP C714 2354   4.519   3.733   9.932
    1ECLIPH714R 2355   4.410   3.725   9.921
    1ECLIPH714S 2356   4.550   3.837   9.960
    1ECLIPH714T 2357   4.544   3.707   9.829
    1ECLIP  C51 2358   4.958   3.833  11.159
    1ECLIP  O51 2359   4.938   3.714  11.144
    1ECLIP  C52 2360   4.956   3.926  11.041
    1ECLIP H52R 2361   4.854   3.963  11.022
    1ECLIP H52S 2362   5.019   4.013  11.061
    1ECLIP  C53 2363   4.998   3.855  10.912
    1ECLIP H53R 2364   5.078   3.781  10.934
    1ECLIP  O53 2365   5.039   3.958  10.820
    1ECLIP  C61 2366   5.168   3.965  10.787
    1ECLIP  O61 2367   5.255   3.888  10.822
    1ECLIP  C62 2368   5.191   4.085  10.695
    1ECLIP H62R 2369   5.202   4.176  10.756
    1ECLIP H62S 2370   5.098   4.097  10.637
    1ECLIP  C63 2371   5.318   4.066  10.606
    1ECLIP H63R 2372   5.314   3.964  10.564
    1ECLIP H63S 2373   5.409   4.075  10.669
    1ECLIP  C64 2374   5.331   4.163  10.487
    1ECLIP H64R 2375   5.428   4.145  10.435
    1ECLIP H64S 2376   5.331   4.266  10.528
    1ECLIP  C65 2377   5.216   4.144  10.389
    1ECLIP H65R 2378   5.127   4.170  10.450
    1ECLIP H65S 2379   5.207   4.038  10.358
    1ECLIP  C66 2380   5.211   4.232  10.263
    1ECLIP H66R 2381   5.212   4.339  10.293
    1ECLIP H66S 2382   5.113   4.210  10.216
    1ECLIP  C67 2383   5.319   4.212  10.157
    1ECLIP H67R 2384   5.422   4.216  10.196
    1ECLIP H67S 2385   5.308   4.288  10.075
    1ECLIP  C68 2386   5.313   4.079  10.090
    1ECLIP H68R 2387   5.209   4.062  10.060
    1ECLIP H68S 2388   5.337   4.000  10.165
    1ECLIP  C69 2389   5.408   4.086   9.968
    1ECLIP H69R 2390   5.493   4.154   9.976
    1ECLIP H69S 2391   5.343   4.115   9.883
    1ECLIP C610 2392   5.488   3.961   9.945
    1ECLIPH610R 2393   5.402   3.919   9.989
    1ECLIPH610S 2394   5.544   3.901  10.016
    1ECLIP C611 2395   5.546   3.947   9.805
    1ECLIPH611R 2396   5.634   4.007   9.804
    1ECLIPH611S 2397   5.589   3.846   9.788
    1ECLIP C612 2398   5.479   4.009   9.684
    1ECLIPH612R 2399   5.462   3.905   9.674
    1ECLIPH612S 2400   5.379   4.055   9.705
    1ECLIPH612T 2401   5.482   3.982   9.576
    1ECLIP  C54 2402   4.873   3.783  10.854
    1ECLIP H54R 2403   4.799   3.861  10.824
    1ECLIP H54S 2404   4.827   3.722  10.934
    1ECLIP  C55 2405   4.898   3.690  10.734
    1ECLIP H55R 2406   4.812   3.622  10.719
    1ECLIP H55S 2407   4.985   3.624  10.757
    1ECLIP  C56 2408   4.915   3.774  10.608
    1ECLIP H56R 2409   4.998   3.846  10.623
    1ECLIP H56S 2410   4.823   3.833  10.588
    1ECLIP  C57 2411   4.954   3.701  10.482
    1ECLIP H57R 2412   4.884   3.618  10.456
    1ECLIP H57S 2413   5.055   3.655  10.492
    1ECLIP  C58 2414   4.960   3.804  10.373
    1ECLIP H58R 2415   4.871   3.869  10.363
    1ECLIP H58S 2416   5.048   3.872  10.386
    1ECLIP  C59 2417   4.974   3.727  10.249
    1ECLIP H59R 2418   4.888   3.658  10.226
    1ECLIP H59S 2419   5.069   3.671  10.246
    1ECLIP C510 2420   4.967   3.817  10.140
    1ECLIPH510R 2421   5.029   3.911  10.135
    1ECLIPH510S 2422   4.862   3.855  10.138
    1ECLIP C511 2423   4.992   3.717  10.036
    1ECLIPH511R 2424   5.096   3.676  10.026
    1ECLIPH511S 2425   4.942   3.619  10.019
    1ECLIP C512 2426   4.927   3.830   9.951
    1ECLIPH512R 2427   4.896   3.739   9.886
    1ECLIPH512S 2428   4.826   3.826   9.962
    1ECLIP C513 2429   4.991   4.009   9.909
    1ECLIPH513R 2430   5.081   4.011   9.838
    1ECLIPH513S 2431   5.054   4.059   9.972
    1ECLIP C514 2432   5.011   4.118   9.789
    1ECLIPH514R 2433   4.941   4.125   9.714
    1ECLIPH514S 2434   5.106   4.161   9.743
    1ECLIPH514T 2435   4.996   4.059   9.710
    1ECLIP  C33 2436   5.336   4.192  11.183
    1ECLIP H33R 2437   5.349   4.296  11.222
    1ECLIP  O33 2438   5.264   4.121  11.282
    1ECLIP HO33 2439   5.287   4.143  11.372
    1ECLIP  C34 2440   5.251   4.196  11.057
    1ECLIP H34R 2441   5.232   4.097  11.014
    1ECLIP H34S 2442   5.301   4.259  10.979
    1ECLIP  C35 2443   5.112   4.245  11.086
    1ECLIP H35R 2444   5.125   4.329  11.155
    1ECLIP H35S 2445   5.051   4.200  11.165
    1ECLIP  C36 2446   5.045   4.255  10.950
    1ECLIP H36R 2447   5.060   4.167  10.891
    1ECLIP H36S 2448   5.068   4.342  10.884
    1ECLIP  C37 2449   4.902   4.250  10.967
    1ECLIP H37R 2450   4.884   4.355  10.953
    1ECLIP H37S 2451   4.887   4.222  11.071
    1ECLIP  C38 2452   4.807   4.199  10.862
    1ECLIP H38R 2453   4.798   4.090  10.868
    1ECLIP H38S 2454   4.696   4.222  10.869
    1ECLIP  C39 2455   4.856   4.265  10.738
    1ECLIP H39R 2456   4.962   4.260  10.721
    1ECLIP H39S 2457   4.821   4.373  10.729
    1ECLIP C310 2458   4.815   4.171  10.631
    1ECLIPH310R 2459   4.725   4.213  10.671
    1ECLIPH310S 2460   4.766   4.075  10.643
    1ECLIP C311 2461   4.857   4.208  10.486
    1ECLIPH311R 2462   4.870   4.322  10.488
    1ECLIPH311S 2463   4.944   4.145  10.478
    1ECLIP C312 2464   4.791   4.137  10.359
    1ECLIPH312R 2465   4.689   4.102  10.345
    1ECLIPH312S 2466   4.721   4.203  10.344
    1ECLIP C313 2467   4.859   4.134  10.220
    1ECLIPH313R 2468   4.899   4.236  10.196
    1ECLIPH313S 2469   4.932   4.066  10.259
    1ECLIP C314 2470   4.792   4.065  10.094
    1ECLIPH314R 2471   4.725   4.128  10.053
    1ECLIPH314S 2472   4.811   4.115   9.995
    1ECLIPH314T 2473   4.696   4.009  10.112
    1ECLIP  C11 2474   5.382   3.611  10.862
    1ECLIP  O11 2475   5.263   3.586  10.846
    1ECLIP  C12 2476   5.485   3.552  10.769
    1ECLIP H12R 2477   5.497   3.444  10.792
    1ECLIP H12S 2478   5.581   3.604  10.788
    1ECLIP  C13 2479   5.449   3.570  10.622
    1ECLIP H13R 2480   5.342   3.549  10.601
    1ECLIP  O13 2481   5.527   3.476  10.549
    1ECLIP HO13 2482   5.489   3.449  10.465
    1ECLIP  C14 2483   5.482   3.715  10.581
    1ECLIP H14R 2484   5.574   3.750  10.633
    1ECLIP H14S 2485   5.396   3.777  10.614
    1ECLIP  C15 2486   5.501   3.740  10.433
    1ECLIP H15R 2487   5.580   3.672  10.394
    1ECLIP H15S 2488   5.538   3.845  10.420
    1ECLIP  C16 2489   5.370   3.721  10.358
    1ECLIP H16R 2490   5.305   3.811  10.365
    1ECLIP H16S 2491   5.311   3.638  10.402
    1ECLIP  C17 2492   5.400   3.694  10.212
    1ECLIP H17R 2493   5.478   3.766  10.177
    1ECLIP H17S 2494   5.307   3.716  10.156
    1ECLIP  C18 2495   5.450   3.550  10.193
    1ECLIP H18R 2496   5.540   3.534  10.253
    1ECLIP H18S 2497   5.369   3.478  10.220
    1ECLIP  C19 2498   5.486   3.517  10.052
    1ECLIP H19R 2499   5.539   3.421  10.035
    1ECLIP H19S 2500   5.549   3.599  10.005
    1ECLIP C110 2501   5.346   3.503   9.996
    1ECLIPH110R 2502   5.263   3.438  10.013
    1ECLIPH110S 2503   5.346   3.592   9.957
    1ECLIP C111 2504   5.333   3.478   9.852
    1ECLIPH111R 2505   5.445   3.489   9.846
    1ECLIPH111S 2506   5.381   3.381   9.854
    1ECLIP C112 2507   5.203   3.518   9.732
    1ECLIPH112R 2508   5.152   3.435   9.765
    1ECLIPH112S 2509   5.130   3.601   9.769
    1ECLIP C113 2510   5.222   3.500   9.551
    1ECLIPH113R 2511   5.303   3.549   9.495
    1ECLIPH113S 2512   5.277   3.415   9.505
    1ECLIP C114 2513   5.165   3.452   9.434
    1ECLIPH114R 2514   5.109   3.363   9.467
    1ECLIPH114S 2515   5.129   3.554   9.410
    1ECLIPH114T 2516   5.217   3.414   9.337
    2AKDO    C1 2517   4.860   3.933  11.978
    2AKDO   O11 2518   4.735   3.952  11.979
    2AKDO   O12 2519   4.948   4.017  11.945
    2AKDO    C2 2520   4.913   3.795  12.024
    2AKDO    C6 2521   4.848   3.585  12.122
    2AKDO    H6 2522   4.893   3.539  12.031
    2AKDO    O6 2523   4.806   3.717  12.083
    2AKDO    C3 2524   5.024   3.805  12.129
    2AKDO   H31 2525   4.990   3.866  12.215
    2AKDO   H32 2526   5.111   3.856  12.081
    2AKDO    C4 2527   5.070   3.669  12.173
    2AKDO    H4 2528   5.103   3.611  12.084
    2AKDO    O4 2529   5.173   3.678  12.273
    2AKDO    C5 2530   4.956   3.591  12.232
    2AKDO    H5 2531   4.991   3.486  12.244
    2AKDO    O5 2532   4.922   3.651  12.361
    2AKDO    C7 2533   4.727   3.499  12.153
    2AKDO    H7 2534   4.679   3.538  12.244
    2AKDO    O7 2535   4.766   3.362  12.174
    2AKDO   HO7 2536   4.771   3.323  12.087
    2AKDO    C8 2537   4.626   3.504  12.041
    2AKDO   H81 2538   4.601   3.611  12.021
    2AKDO   H82 2539   4.673   3.465  11.947
    2AKDO    O8 2540   4.504   3.435  12.077
    2AKDO   HO8 2541   4.441   3.474  12.015
    3AKDO    C1 2542   5.346   3.610  12.117
    3AKDO   O11 2543   5.355   3.665  12.003
    3AKDO   O12 2544   5.368   3.489  12.146
    3AKDO    C2 2545   5.307   3.701  12.237
    3AKDO    C6 2546   5.293   3.930  12.315
    3AKDO    H6 2547   5.183   3.919  12.335
    3AKDO    O6 2548   5.333   3.841  12.208
    3AKDO    C3 2549   5.381   3.667  12.368
    3AKDO   H31 2550   5.491   3.678  12.351
    3AKDO   H32 2551   5.365   3.561  12.395
    3AKDO    C4 2552   5.335   3.759  12.478
    3AKDO    H4 2553   5.224   3.752  12.485
    3AKDO    O4 2554   5.388   3.724  12.605
    3AKDO   HO4 2555   5.318   3.711  12.671
    3AKDO    C5 2556   5.371   3.899  12.442
    3AKDO    H5 2557   5.337   3.966  12.525
    3AKDO    O5 2558   5.512   3.917  12.421
    3AKDO   HO5 2559   5.537   3.852  12.355
    3AKDO    C7 2560   5.316   4.071  12.271
    3AKDO    H7 2561   5.424   4.086  12.250
    3AKDO    O7 2562   5.276   4.161  12.375
    3AKDO   HO7 2563   5.307   4.249  12.349
    3AKDO    C8 2564   5.235   4.093  12.147
    3AKDO   H81 2565   5.258   4.019  12.069
    3AKDO   H82 2566   5.128   4.089  12.168
    3AKDO    O8 2567   5.264   4.219  12.093
    3AKDO   HO8 2568   5.352   4.210  12.058
    4AHEP    C1 2569   4.872   3.564  12.461
    4AHEP    H1 2570   4.768   3.543  12.427
    4AHEP    C5 2571   5.063   3.437  12.536
    4AHEP    H5 2572   5.125   3.517  12.488
    4AHEP    O5 2573   4.936   3.435  12.468
    4AHEP    C2 2574   4.853   3.613  12.606
    4AHEP    H2 2575   4.809   3.715  12.603
    4AHEP    O2 2576   4.755   3.534  12.672
    4AHEP   HO2 2577   4.705   3.589  12.731
    4AHEP    C3 2578   4.983   3.620  12.686
    4AHEP    H3 2579   5.052   3.697  12.645
    4AHEP    O3 2580   4.953   3.651  12.824
    4AHEP    C4 2581   5.045   3.481  12.682
    4AHEP    H4 2582   4.982   3.405  12.733
    4AHEP    O4 2583   5.173   3.494  12.743
    4AHEP    P4 2584   5.211   3.418  12.885
    4AHEP  OP42 2585   5.312   3.514  12.948
    4AHEP  OP43 2586   5.269   3.281  12.841
    4AHEP  OP44 2587   5.084   3.411  12.968
    4AHEP    C6 2588   5.134   3.300  12.516
    4AHEP    H6 2589   5.240   3.318  12.545
    4AHEP    O6 2590   5.086   3.190  12.596
    4AHEP   HO6 2591   5.150   3.175  12.668
    4AHEP    C7 2592   5.131   3.250  12.370
    4AHEP   H71 2593   5.203   3.167  12.357
    4AHEP   H72 2594   5.160   3.333  12.301
    4AHEP    O7 2595   5.004   3.201  12.323
    4AHEP   HO7 2596   4.997   3.120  12.373
    5AHEP    C1 2597   5.011   3.765  12.882
    5AHEP    H1 2598   5.109   3.788  12.834
    5AHEP    C5 2599   4.795   3.855  12.932
    5AHEP    H5 2600   4.754   3.758  12.896
    5AHEP    O5 2601   4.922   3.877  12.866
    5AHEP    C2 2602   5.035   3.745  13.033
    5AHEP    H2 2603   5.098   3.653  13.045
    5AHEP    O2 2604   5.108   3.856  13.086
    5AHEP   HO2 2605   5.198   3.829  13.100
    5AHEP    C3 2606   4.905   3.721  13.109
    5AHEP    H3 2607   4.857   3.629  13.067
    5AHEP    O3 2608   4.920   3.709  13.253
    5AHEP    C4 2609   4.815   3.840  13.083
    5AHEP    H4 2610   4.863   3.934  13.121
    5AHEP    O4 2611   4.687   3.813  13.142
    5AHEP    P4 2612   4.635   3.912  13.266
    5AHEP  OP42 2613   4.514   3.837  13.321
    5AHEP  OP43 2614   4.596   4.045  13.201
    5AHEP  OP44 2615   4.748   3.919  13.368
    5AHEP    C6 2616   4.693   3.963  12.892
    5AHEP    H6 2617   4.595   3.939  12.940
    5AHEP    O6 2618   4.732   4.095  12.934
    5AHEP   HO6 2619   4.807   4.127  12.886
    5AHEP    C7 2620   4.668   3.963  12.743
    5AHEP   H71 2621   4.561   3.989  12.727
    5AHEP   H72 2622   4.682   3.863  12.698
    5AHEP    O7 2623   4.744   4.066  12.679
    6AHEP    C1 2624   4.861   4.018  12.619
    6AHEP    H1 2625   4.880   3.913  12.642
    6AHEP    C5 2626   4.832   4.154  12.437
    6AHEP    H5 2627   4.744   4.186  12.497
    6AHEP    O5 2628   4.848   4.020  12.479
    6AHEP    C2 2629   4.980   4.103  12.661
    6AHEP    H2 2630   4.986   4.095  12.772
    6AHEP    O2 2631   5.099   4.046  12.609
    6AHEP   HO2 2632   5.150   4.013  12.683
    6AHEP    C3 2633   4.958   4.247  12.621
    6AHEP    H3 2634   4.865   4.276  12.675
    6AHEP    O3 2635   5.067   4.335  12.657
    6AHEP   HO3 2636   5.050   4.388  12.735
    6AHEP    C4 2637   4.942   4.249  12.472
    6AHEP    H4 2638   5.033   4.222  12.417
    6AHEP    O4 2639   4.905   4.378  12.423
    6AHEP   HO4 2640   4.819   4.406  12.455
    6AHEP    C6 2641   4.809   4.148  12.289
    6AHEP    H6 2642   4.792   4.253  12.263
    6AHEP    O6 2643   4.913   4.127  12.200
    6AHEP   HO6 2644   4.872   4.077  12.127
    6AHEP    C7 2645   4.698   4.051  12.256
    6AHEP   H71 2646   4.657   4.076  12.154
    6AHEP   H72 2647   4.632   4.072  12.344
    6AHEP    O7 2648   4.684   3.914  12.272
    6AHEP   HO7 2649   4.664   3.917  12.364
    7AGLC    C1 2650   4.936   3.579  13.303
    7AGLC    H1 2651   4.870   3.515  13.249
    7AGLC    C5 2652   5.166   3.607  13.347
    7AGLC    H5 2653   5.155   3.714  13.319
    7AGLC    O5 2654   5.067   3.532  13.279
    7AGLC    C2 2655   4.910   3.562  13.453
    7AGLC    H2 2656   4.937   3.457  13.480
    7AGLC    O2 2657   4.773   3.577  13.490
    7AGLC   HO2 2658   4.754   3.673  13.491
    7AGLC    C3 2659   5.005   3.647  13.534
    7AGLC    H3 2660   4.995   3.751  13.497
    7AGLC    O3 2661   4.977   3.646  13.677
    7AGLC    C4 2662   5.145   3.596  13.498
    7AGLC    H4 2663   5.155   3.489  13.529
    7AGLC    O4 2664   5.240   3.677  13.565
    7AGLC   HO4 2665   5.312   3.626  13.603
    7AGLC    C6 2666   5.300   3.564  13.287
    7AGLC   H61 2667   5.295   3.581  13.177
    7AGLC   H62 2668   5.384   3.625  13.326
    7AGLC    O6 2669   5.329   3.425  13.307
    7AGLC   HO6 2670   5.370   3.417  13.393
    8AGLC    C1 2671   4.944   3.774  13.729
    8AGLC    H1 2672   5.014   3.849  13.688
    8AGLC    C5 2673   4.704   3.740  13.757
    8AGLC    H5 2674   4.717   3.635  13.724
    8AGLC    O5 2675   4.810   3.817  13.697
    8AGLC    C2 2676   4.959   3.781  13.880
    8AGLC    H2 2677   4.941   3.887  13.907
    8AGLC    O2 2678   5.089   3.747  13.931
    8AGLC    C3 2679   4.856   3.695  13.949
    8AGLC    H3 2680   4.871   3.592  13.908
    8AGLC    O3 2681   4.886   3.693  14.090
    8AGLC    C4 2682   4.719   3.746  13.909
    8AGLC    H4 2683   4.713   3.853  13.940
    8AGLC    O4 2684   4.613   3.672  13.970
    8AGLC   HO4 2685   4.646   3.583  13.980
    8AGLC    C6 2686   4.562   3.779  13.711
    8AGLC   H61 2687   4.555   3.789  13.600
    8AGLC   H62 2688   4.489   3.701  13.740
    8AGLC    O6 2689   4.514   3.899  13.772
    8AGLC   HO6 2690   4.475   3.877  13.858
    9AGAL    C1 2691   5.199   3.818  13.880
    9AGAL    H1 2692   5.197   3.820  13.770
    9AGAL    C5 2693   5.225   3.965  14.065
    9AGAL    H5 2694   5.147   3.902  14.111
    9AGAL    O5 2695   5.206   3.955  13.923
    9AGAL    C2 2696   5.325   3.743  13.921
    9AGAL    H2 2697   5.409   3.800  13.874
    9AGAL    O2 2698   5.320   3.613  13.857
    9AGAL    C3 2699   5.347   3.751  14.071
    9AGAL    H3 2700   5.262   3.704  14.125
    9AGAL    O3 2701   5.462   3.679  14.114
    9AGAL   HO3 2702   5.467   3.604  14.052
    9AGAL    C4 2703   5.357   3.899  14.106
    9AGAL    H4 2704   5.368   3.911  14.216
    9AGAL    O4 2705   5.474   3.958  14.052
    9AGAL   HO4 2706   5.483   4.046  14.089
    9AGAL    C6 2707   5.200   4.105  14.121
    9AGAL   H61 2708   5.096   4.138  14.096
    9AGAL   H62 2709   5.205   4.103  14.232
    9AGAL    O6 2710   5.293   4.205  14.079
    9AGAL   HO6 2711   5.253   4.251  14.004
   10AGAL    C1 2712   5.364   3.489  13.911
   10AGAL    H1 2713   5.475   3.490  13.921
   10AGAL    C5 2714   5.167   3.438  14.041
   10AGAL    H5 2715   5.126   3.533  14.000
   10AGAL    O5 2716   5.310   3.455  14.041
   10AGAL    C2 2717   5.326   3.381  13.811
   10AGAL    H2 2718   5.369   3.286  13.849
   10AGAL    O2 2719   5.387   3.396  13.683
   10AGAL   HO2 2720   5.428   3.310  13.667
   10AGAL    C3 2721   5.174   3.368  13.806
   10AGAL    H3 2722   5.132   3.468  13.781
   10AGAL    O3 2723   5.131   3.276  13.706
   10AGAL   HO3 2724   5.080   3.320  13.637
   10AGAL    C4 2725   5.126   3.329  13.944
   10AGAL    H4 2726   5.015   3.327  13.945
   10AGAL    O4 2727   5.175   3.201  13.984
   10AGAL   HO4 2728   5.269   3.211  13.996
   10AGAL    C6 2729   5.099   3.427  14.179
   10AGAL   H61 2730   5.138   3.505  14.246
   10AGAL   H62 2731   4.989   3.444  14.164
   10AGAL    O6 2732   5.109   3.302  14.246
   10AGAL   HO6 2733   5.161   3.308  14.327
   11BGLC    C1 2734   4.824   3.778  14.185
   11BGLC    H1 2735   4.718   3.748  14.198
   11BGLC    C5 2736   4.787   4.004  14.258
   11BGLC    H5 2737   4.679   3.981  14.287
   11BGLC    O5 2738   4.837   3.916  14.152
   11BGLC    C2 2739   4.900   3.759  14.316
   11BGLC    H2 2740   5.006   3.783  14.297
   11BGLC    O2 2741   4.895   3.623  14.355
   11BGLC   HO2 2742   4.983   3.587  14.366
   11BGLC    C3 2743   4.852   3.848  14.429
   11BGLC    H3 2744   4.747   3.823  14.455
   11BGLC    O3 2745   4.940   3.833  14.542
   11BGLC    C4 2746   4.866   3.990  14.383
   11BGLC    H4 2747   4.971   4.014  14.357
   11BGLC    O4 2748   4.823   4.082  14.482
   11BGLC   HO4 2749   4.891   4.087  14.551
   11BGLC    C6 2750   4.790   4.137  14.198
   11BGLC   H61 2751   4.774   4.224  14.267
   11BGLC   H62 2752   4.876   4.162  14.132
   11BGLC    O6 2753   4.683   4.122  14.111
   11BGLC   HO6 2754   4.627   4.200  14.125
   12BGLCN   C1 2755   4.884   3.804  14.669
   12BGLCN   H1 2756   4.869   3.694  14.675
   12BGLCN   C5 2757   4.707   3.834  14.823
   12BGLCN   H5 2758   4.691   3.723  14.832
   12BGLCN   O5 2759   4.760   3.868  14.694
   12BGLCN   C2 2760   4.986   3.849  14.772
   12BGLCN   H2 2761   4.987   3.961  14.766
   12BGLCN    N 2762   5.114   3.792  14.741
   12BGLCN   HN 2763   5.113   3.693  14.737
   12BGLCN    C 2764   5.225   3.865  14.728
   12BGLCN    O 2765   5.226   3.985  14.743
   12BGLCN   CT 2766   5.351   3.792  14.693
   12BGLCN  HT1 2767   5.422   3.794  14.778
   12BGLCN  HT2 2768   5.403   3.842  14.610
   12BGLCN  HT3 2769   5.328   3.688  14.661
   12BGLCN   C3 2770   4.942   3.812  14.912
   12BGLCN   H3 2771   4.932   3.701  14.917
   12BGLCN   O3 2772   5.040   3.850  15.013
   12BGLCN   C4 2773   4.806   3.878  14.931
   12BGLCN   H4 2774   4.817   3.990  14.925
   12BGLCN   O4 2775   4.753   3.851  15.060
   12BGLCN  HO4 2776   4.727   3.758  15.065
   12BGLCN   C6 2777   4.572   3.900  14.829
   12BGLCN  H61 2778   4.525   3.880  14.927
   12BGLCN  H62 2779   4.584   4.010  14.818
   12BGLCN   O6 2780   4.484   3.851  14.728
   12BGLCN  HO6 2781   4.439   3.773  14.761
   13AGAL    C1 2782   5.060   3.757  15.121
   13AGAL    H1 2783   4.960   3.717  15.152
   13AGAL    C5 2784   5.286   3.698  15.064
   13AGAL    H5 2785   5.276   3.782  14.991
   13AGAL    O5 2786   5.151   3.651  15.085
   13AGAL    C2 2787   5.121   3.819  15.248
   13AGAL    H2 2788   5.137   3.732  15.317
   13AGAL    O2 2789   5.027   3.906  15.312
   13AGAL    C3 2790   5.261   3.875  15.226
   13AGAL    H3 2791   5.258   3.944  15.139
   13AGAL    O3 2792   5.315   3.950  15.337
   13AGAL   HO3 2793   5.355   4.031  15.300
   13AGAL    C4 2794   5.350   3.760  15.188
   13AGAL    H4 2795   5.450   3.800  15.159
   13AGAL    O4 2796   5.370   3.668  15.296
   13AGAL   HO4 2797   5.286   3.642  15.333
   13AGAL    C6 2798   5.379   3.603  14.991
   13AGAL   H61 2799   5.330   3.569  14.897
   13AGAL   H62 2800   5.473   3.658  14.967
   13AGAL    O6 2801   5.416   3.488  15.067
   13AGAL   HO6 2802   5.479   3.516  15.134
   14ARHM    C1 2803   4.976   3.866  15.437
   14ARHM    H1 2804   4.972   3.755  15.441
   14ARHM    C5 2805   4.835   4.056  15.455
   14ARHM    H5 2806   4.875   4.091  15.357
   14ARHM    O5 2807   4.842   3.912  15.455
   14ARHM    C2 2808   5.065   3.921  15.547
   14ARHM    H2 2809   5.168   3.886  15.529
   14ARHM    O2 2810   5.027   3.888  15.682
   14ARHM    C3 2811   5.060   4.072  15.542
   14ARHM    H3 2812   5.083   4.105  15.438
   14ARHM    O3 2813   5.160   4.133  15.623
   14ARHM   HO3 2814   5.132   4.122  15.715
   14ARHM    C4 2815   4.917   4.115  15.569
   14ARHM    H4 2816   4.877   4.073  15.664
   14ARHM    O4 2817   4.906   4.257  15.576
   14ARHM   HO4 2818   4.884   4.287  15.665
   14ARHM    C6 2819   4.688   4.097  15.464
   14ARHM   H61 2820   4.628   4.042  15.392
   14ARHM   H62 2821   4.652   4.081  15.567
   14ARHM   H63 2822   4.671   4.202  15.436
   15ARHM    C1 2823   5.007   3.752  15.711
   15ARHM    H1 2824   5.066   3.689  15.641
   15ARHM    C5 2825   4.780   3.775  15.800
   15ARHM    H5 2826   4.772   3.885  15.781
   15ARHM    O5 2827   4.867   3.712  15.704
   15ARHM    C2 2828   5.060   3.726  15.850
   15ARHM    H2 2829   5.164   3.765  15.858
   15ARHM    O2 2830   5.062   3.583  15.866
   15ARHM    C3 2831   4.975   3.800  15.950
   15ARHM    H3 2832   4.971   3.908  15.921
   15ARHM    O3 2833   5.039   3.790  16.077
   15ARHM    C4 2834   4.834   3.746  15.940
   15ARHM    H4 2835   4.838   3.635  15.952
   15ARHM    O4 2836   4.744   3.794  16.040
   15ARHM   HO4 2837   4.662   3.746  16.031
   15ARHM    C6 2838   4.639   3.716  15.782
   15ARHM   H61 2839   4.563   3.771  15.841
   15ARHM   H62 2840   4.613   3.717  15.674
   15ARHM   H63 2841   4.635   3.611  15.818
   16BMANN   C1 2842   5.107   3.525  15.987
   16BMANN   H1 2843   5.033   3.548  16.067
   16BMANN   C5 2844   5.273   3.515  16.157
   16BMANN   H5 2845   5.194   3.539  16.232
   16BMANN   O5 2846   5.237   3.571  16.029
   16BMANN   C2 2847   5.112   3.374  15.968
   16BMANN   H2 2848   5.008   3.344  15.940
   16BMANN    N 2849   5.200   3.326  15.862
   16BMANN   HN 2850   5.292   3.303  15.892
   16BMANN    C 2851   5.166   3.304  15.734
   16BMANN    O 2852   5.055   3.325  15.688
   16BMANN   CT 2853   5.279   3.258  15.644
   16BMANN  HT1 2854   5.271   3.150  15.624
   16BMANN  HT2 2855   5.377   3.277  15.691
   16BMANN  HT3 2856   5.272   3.313  15.548
   16BMANN   C3 2857   5.148   3.311  16.102
   16BMANN   H3 2858   5.071   3.341  16.176
   16BMANN   O3 2859   5.150   3.170  16.095
   16BMANN  HO3 2860   5.084   3.138  16.158
   16BMANN   C4 2861   5.281   3.363  16.149
   16BMANN   H4 2862   5.356   3.331  16.076
   16BMANN   O4 2863   5.325   3.310  16.274
   16BMANN  HO4 2864   5.421   3.315  16.278
   16BMANN   C6 2865   5.401   3.575  16.212
   16BMANN  H61 2866   5.395   3.570  16.323
   16BMANN  H62 2867   5.489   3.515  16.182
   16BMANN   O6 2868   5.427   3.711  16.175
   16BMANN  HO6 2869   5.509   3.712  16.124
   17BGLCN   C1 2870   5.038   3.909  16.150
   17BGLCN   H1 2871   4.940   3.959  16.134
   17BGLCN   C5 2872   5.143   4.122  16.193
   17BGLCN   H5 2873   5.048   4.178  16.172
   17BGLCN   O5 2874   5.143   4.001  16.114
   17BGLCN   C2 2875   5.054   3.863  16.294
   17BGLCN   H2 2876   5.155   3.818  16.311
   17BGLCN    N 2877   4.956   3.760  16.324
   17BGLCN   HN 2878   4.872   3.766  16.272
   17BGLCN    C 2879   4.966   3.665  16.417
   17BGLCN    O 2880   5.066   3.642  16.483
   17BGLCN   CT 2881   4.840   3.587  16.441
   17BGLCN  HT1 2882   4.844   3.488  16.392
   17BGLCN  HT2 2883   4.754   3.646  16.404
   17BGLCN  HT3 2884   4.826   3.570  16.550
   17BGLCN   C3 2885   5.041   3.988  16.380
   17BGLCN   H3 2886   4.946   4.035  16.346
   17BGLCN   O3 2887   5.028   3.951  16.520
   17BGLCN   C4 2888   5.155   4.083  16.341
   17BGLCN   H4 2889   5.252   4.029  16.350
   17BGLCN   O4 2890   5.158   4.198  16.426
   17BGLCN  HO4 2891   5.237   4.251  16.409
   17BGLCN   C6 2892   5.258   4.213  16.149
   17BGLCN  H61 2893   5.228   4.320  16.154
   17BGLCN  H62 2894   5.345   4.199  16.217
   17BGLCN   O6 2895   5.305   4.190  16.017
   17BGLCN  HO6 2896   5.233   4.193  15.953
   18AGAL    C1 2897   4.943   4.033  16.599
   18AGAL    H1 2898   4.994   4.130  16.617
   18AGAL    C5 2899   4.736   3.943  16.522
   18AGAL    H5 2900   4.798   3.864  16.477
   18AGAL    O5 2901   4.818   4.061  16.535
   18AGAL    C2 2902   4.906   3.973  16.733
   18AGAL    H2 2903   4.837   4.049  16.776
   18AGAL    O2 2904   5.017   3.966  16.823
   18AGAL    C3 2905   4.824   3.844  16.721
   18AGAL    H3 2906   4.879   3.775  16.653
   18AGAL    O3 2907   4.805   3.773  16.844
   18AGAL   HO3 2908   4.827   3.680  16.835
   18AGAL    C4 2909   4.693   3.880  16.653
   18AGAL    H4 2910   4.635   3.788  16.630
   18AGAL    O4 2911   4.610   3.963  16.733
   18AGAL   HO4 2912   4.577   3.912  16.808
   18AGAL    C6 2913   4.634   3.964  16.414
   18AGAL   H61 2914   4.691   3.985  16.320
   18AGAL   H62 2915   4.575   3.871  16.399
   18AGAL    O6 2916   4.546   4.071  16.440
   18AGAL   HO6 2917   4.583   4.134  16.504
   19ARHM    C1 2918   4.977   4.004  16.953
   19ARHM    H1 2919   4.870   3.981  16.971
   19ARHM    C5 2920   5.123   4.192  16.962
   19ARHM    H5 2921   5.154   4.165  16.858
   19ARHM    O5 2922   4.990   4.144  16.979
   19ARHM    C2 2923   5.066   3.930  17.048
   19ARHM    H2 2924   5.065   3.821  17.023
   19ARHM    O2 2925   5.018   3.945  17.182
   19ARHM    C3 2926   5.208   3.976  17.033
   19ARHM    H3 2927   5.240   3.963  16.927
   19ARHM    O3 2928   5.292   3.896  17.114
   19ARHM   HO3 2929   5.258   3.907  17.204
   19ARHM    C4 2930   5.215   4.124  17.061
   19ARHM    H4 2931   5.180   4.144  17.165
   19ARHM    O4 2932   5.346   4.175  17.053
   19ARHM   HO4 2933   5.379   4.171  16.962
   19ARHM    C6 2934   5.126   4.344  16.966
   19ARHM   H61 2935   5.062   4.379  16.882
   19ARHM   H62 2936   5.091   4.389  17.061
   19ARHM   H63 2937   5.228   4.381  16.946
   20ARHM    C1 2938   4.902   3.871  17.207
   20ARHM    H1 2939   4.881   3.800  17.123
   20ARHM    C5 2940   4.791   4.038  17.334
   20ARHM    H5 2941   4.879   4.104  17.318
   20ARHM    O5 2942   4.784   3.950  17.221
   20ARHM    C2 2943   4.927   3.792  17.331
   20ARHM    H2 2944   5.026   3.739  17.321
   20ARHM    O2 2945   4.822   3.697  17.352
   20ARHM    C3 2946   4.937   3.881  17.449
   20ARHM    H3 2947   5.021   3.954  17.432
   20ARHM    O3 2948   4.966   3.800  17.563
   20ARHM    C4 2949   4.809   3.958  17.461
   20ARHM    H4 2950   4.719   3.892  17.470
   20ARHM    O4 2951   4.813   4.044  17.574
   20ARHM   HO4 2952   4.752   4.114  17.547
   20ARHM    C6 2953   4.666   4.127  17.341
   20ARHM   H61 2954   4.570   4.072  17.348
   20ARHM   H62 2955   4.676   4.205  17.419
   20ARHM   H63 2956   4.657   4.184  17.250
   21BMANN   C1 2957   4.846   3.582  17.277
   21BMANN   H1 2958   4.932   3.599  17.208
   21BMANN   C5 2959   4.777   3.443  17.101
   21BMANN   H5 2960   4.869   3.468  17.045
   21BMANN   O5 2961   4.740   3.552  17.187
   21BMANN   C2 2962   4.877   3.467  17.371
   21BMANN   H2 2963   4.967   3.500  17.429
   21BMANN    N 2964   4.768   3.432  17.466
   21BMANN   HN 2965   4.677   3.436  17.427
   21BMANN    C 2966   4.786   3.396  17.596
   21BMANN    O 2967   4.896   3.364  17.639
   21BMANN   CT 2968   4.664   3.389  17.685
   21BMANN  HT1 2969   4.607   3.296  17.665
   21BMANN  HT2 2970   4.601   3.479  17.669
   21BMANN  HT3 2971   4.694   3.390  17.792
   21BMANN   C3 2972   4.917   3.352  17.283
   21BMANN   H3 2973   5.008   3.386  17.227
   21BMANN   O3 2974   4.956   3.240  17.359
   21BMANN  HO3 2975   4.882   3.217  17.417
   21BMANN   C4 2976   4.807   3.321  17.184
   21BMANN   H4 2977   4.714   3.294  17.238
   21BMANN   O4 2978   4.838   3.215  17.096
   21BMANN  HO4 2979   4.784   3.138  17.113
   21BMANN   C6 2980   4.672   3.415  16.996
   21BMANN  H61 2981   4.715   3.350  16.917
   21BMANN  H62 2982   4.592   3.357  17.045
   21BMANN   O6 2983   4.615   3.533  16.939
   21BMANN  HO6 2984   4.582   3.583  17.015
   22BGLCN   C1 2985   5.049   3.856  17.660
   22BGLCN   H1 2986   5.044   3.968  17.660
   22BGLCN   C5 2987   5.269   3.867  17.746
   22BGLCN   H5 2988   5.256   3.977  17.747
   22BGLCN   O5 2989   5.184   3.814  17.643
   22BGLCN   C2 2990   4.998   3.803  17.791
   22BGLCN   H2 2991   5.006   3.691  17.786
   22BGLCN    N 2992   4.859   3.841  17.809
   22BGLCN   HN 2993   4.834   3.931  17.776
   22BGLCN    C 2994   4.767   3.767  17.871
   22BGLCN    O 2995   4.790   3.658  17.921
   22BGLCN   CT 2996   4.630   3.830  17.876
   22BGLCN  HT1 2997   4.574   3.788  17.791
   22BGLCN  HT2 2998   4.638   3.940  17.864
   22BGLCN  HT3 2999   4.580   3.808  17.972
   22BGLCN   C3 3000   5.082   3.856  17.905
   22BGLCN   H3 3001   5.080   3.967  17.901
   22BGLCN   O3 3002   5.021   3.810  18.026
   22BGLCN   C4 3003   5.225   3.813  17.882
   22BGLCN   H4 3004   5.227   3.702  17.878
   22BGLCN   O4 3005   5.312   3.855  17.987
   22BGLCN  HO4 3006   5.377   3.787  18.011
   22BGLCN   C6 3007   5.412   3.831  17.713
   22BGLCN  H61 3008   5.473   3.842  17.805
   22BGLCN  H62 3009   5.418   3.724  17.682
   22BGLCN   O6 3010   5.469   3.917  17.614
   22BGLCN  HO6 3011   5.420   3.918  17.531
   23AGAL    C1 3012   5.050   3.876  18.146
   23AGAL    H1 3013   5.151   3.846  18.181
   23AGAL    C5 3014   4.916   4.070  18.108
   23AGAL    H5 3015   4.875   4.021  18.016
   23AGAL    O5 3016   5.047   4.019  18.135
   23AGAL    C2 3017   4.953   3.833  18.254
   23AGAL    H2 3018   4.987   3.886  18.346
   23AGAL    O2 3019   4.961   3.691  18.279
   23AGAL    C3 3020   4.812   3.884  18.224
   23AGAL    H3 3021   4.783   3.850  18.122
   23AGAL    O3 3022   4.712   3.832  18.313
   23AGAL   HO3 3023   4.749   3.833  18.401
   23AGAL    C4 3024   4.818   4.035  18.220
   23AGAL    H4 3025   4.718   4.080  18.200
   23AGAL    O4 3026   4.867   4.087  18.343
   23AGAL   HO4 3027   4.898   4.176  18.321
   23AGAL    C6 3028   4.935   4.215  18.071
   23AGAL   H61 3029   5.016   4.226  17.996
   23AGAL   H62 3030   4.849   4.251  18.017
   23AGAL    O6 3031   4.961   4.300  18.183
   23AGAL   HO6 3032   4.972   4.391  18.156
   24ARHM    C1 3033   5.063   3.642  18.365
   24ARHM    H1 3034   5.143   3.719  18.375
   24ARHM    C5 3035   5.039   3.413  18.300
   24ARHM    H5 3036   4.959   3.444  18.230
   24ARHM    O5 3037   5.129   3.523  18.317
   24ARHM    C2 3038   4.996   3.614  18.497
   24ARHM    H2 3039   4.938   3.704  18.529
   24ARHM    O2 3040   5.091   3.577  18.597
   24ARHM    C3 3041   4.897   3.502  18.479
   24ARHM    H3 3042   4.824   3.532  18.400
   24ARHM    O3 3043   4.822   3.482  18.599
   24ARHM   HO3 3044   4.867   3.415  18.651
   24ARHM    C4 3045   4.972   3.378  18.432
   24ARHM    H4 3046   5.052   3.356  18.505
   24ARHM    O4 3047   4.888   3.264  18.418
   24ARHM   HO4 3048   4.933   3.183  18.440
   24ARHM    C6 3049   5.117   3.296  18.234
   24ARHM   H61 3050   5.047   3.232  18.179
   24ARHM   H62 3051   5.187   3.334  18.158
   24ARHM   H63 3052   5.169   3.231  18.308
   25ARHM    C1 3053   5.165   3.682  18.651
   25ARHM    H1 3054   5.158   3.770  18.583
   25ARHM    C5 3055   5.334   3.550  18.756
   25ARHM    H5 3056   5.284   3.457  18.721
   25ARHM    O5 3057   5.306   3.656  18.662
   25ARHM    C2 3058   5.104   3.719  18.782
   25ARHM    H2 3059   4.993   3.726  18.772
   25ARHM    O2 3060   5.156   3.845  18.826
   25ARHM    C3 3061   5.132   3.609  18.881
   25ARHM    H3 3062   5.087   3.513  18.844
   25ARHM    O3 3063   5.075   3.648  19.006
   25ARHM    C4 3064   5.280   3.586  18.893
   25ARHM    H4 3065   5.332   3.680  18.926
   25ARHM    O4 3066   5.304   3.483  18.989
   25ARHM   HO4 3067   5.381   3.507  19.041
   25ARHM    C6 3068   5.486   3.521  18.757
   25ARHM   H61 3069   5.523   3.505  18.654
   25ARHM   H62 3070   5.541   3.605  18.803
   25ARHM   H63 3071   5.505   3.428  18.816
   26BMANN   C1 3072   5.098   3.956  18.764
   26BMANN   H1 3073   4.998   3.932  18.721
   26BMANN   C5 3074   5.112   4.124  18.595
   26BMANN   H5 3075   5.015   4.088  18.554
   26BMANN   O5 3076   5.177   4.012  18.658
   26BMANN   C2 3077   5.080   4.059  18.871
   26BMANN   H2 3078   5.015   4.011  18.949
   26BMANN    N 3079   5.209   4.098  18.929
   26BMANN   HN 3080   5.280   4.126  18.864
   26BMANN    C 3081   5.236   4.097  19.060
   26BMANN    O 3082   5.157   4.050  19.142
   26BMANN   CT 3083   5.365   4.164  19.102
   26BMANN  HT1 3084   5.440   4.159  19.021
   26BMANN  HT2 3085   5.409   4.124  19.196
   26BMANN  HT3 3086   5.342   4.271  19.122
   26BMANN   C3 3087   5.004   4.174  18.811
   26BMANN   H3 3088   4.907   4.137  18.769
   26BMANN   O3 3089   4.969   4.268  18.911
   26BMANN  HO3 3090   4.897   4.232  18.963
   26BMANN   C4 3091   5.086   4.233  18.698
   26BMANN   H4 3092   5.183   4.272  18.734
   26BMANN   O4 3093   5.019   4.341  18.636
   26BMANN  HO4 3094   5.037   4.420  18.689
   26BMANN   C6 3095   5.198   4.166  18.477
   26BMANN  H61 3096   5.239   4.075  18.428
   26BMANN  H62 3097   5.137   4.219  18.401
   26BMANN   O6 3098   5.308   4.248  18.514
   26BMANN  HO6 3099   5.273   4.332  18.547
   27BGLCN   C1 3100   5.014   3.549  19.083
   27BGLCN   H1 3101   5.066   3.451  19.079
   27BGLCN   C5 3102   4.808   3.443  19.130
   27BGLCN   H5 3103   4.870   3.354  19.138
   27BGLCN   O5 3104   4.878   3.534  19.044
   27BGLCN   C2 3105   5.016   3.608  19.223
   27BGLCN   H2 3106   4.956   3.703  19.219
   27BGLCN    N 3107   5.151   3.641  19.266
   27BGLCN   HN 3108   5.222   3.575  19.243
   27BGLCN    C 3109   5.177   3.757  19.332
   27BGLCN    O 3110   5.088   3.824  19.383
   27BGLCN   CT 3111   5.322   3.803  19.339
   27BGLCN  HT1 3112   5.386   3.740  19.274
   27BGLCN  HT2 3113   5.361   3.803  19.442
   27BGLCN  HT3 3114   5.326   3.908  19.303
   27BGLCN   C3 3115   4.947   3.516  19.319
   27BGLCN   H3 3116   5.000   3.418  19.315
   27BGLCN   O3 3117   4.963   3.579  19.449
   27BGLCN   C4 3118   4.804   3.496  19.271
   27BGLCN   H4 3119   4.748   3.592  19.271
   27BGLCN   O4 3120   4.735   3.402  19.351
   27BGLCN  HO4 3121   4.781   3.317  19.345
   27BGLCN   C6 3122   4.678   3.400  19.068
   27BGLCN  H61 3123   4.638   3.313  19.122
   27BGLCN  H62 3124   4.606   3.483  19.079
   27BGLCN   O6 3125   4.692   3.364  18.930
   27BGLCN  HO6 3126   4.605   3.360  18.887
   28AGAL    C1 3127   4.945   3.495  19.560
   28AGAL    H1 3128   4.837   3.473  19.568
   28AGAL    C5 3129   5.159   3.385  19.549
   28AGAL    H5 3130   5.191   3.467  19.479
   28AGAL    O5 3131   5.015   3.371  19.541
   28AGAL    C2 3132   4.987   3.552  19.697
   28AGAL    H2 3133   4.958   3.469  19.765
   28AGAL    O2 3134   4.917   3.668  19.746
   28AGAL    C3 3135   5.137   3.570  19.705
   28AGAL    H3 3136   5.167   3.636  19.620
   28AGAL    O3 3137   5.189   3.633  19.822
   28AGAL   HO3 3138   5.231   3.716  19.797
   28AGAL    C4 3139   5.200   3.435  19.685
   28AGAL    H4 3140   5.311   3.449  19.685
   28AGAL    O4 3141   5.167   3.343  19.789
   28AGAL   HO4 3142   5.243   3.333  19.846
   28AGAL    C6 3143   5.233   3.260  19.501
   28AGAL   H61 3144   5.210   3.247  19.393
   28AGAL   H62 3145   5.343   3.271  19.512
   28AGAL    O6 3146   5.198   3.139  19.569
   28AGAL   HO6 3147   5.112   3.110  19.536
   29ARHM    C1 3148   4.890   3.653  19.884
   29ARHM    H1 3149   4.964   3.586  19.932
   29ARHM    C5 3150   4.659   3.682  19.851
   29ARHM    H5 3151   4.681   3.698  19.743
   29ARHM    O5 3152   4.760   3.599  19.905
   29ARHM    C2 3153   4.901   3.785  19.953
   29ARHM    H2 3154   5.001   3.828  19.928
   29ARHM    O2 3155   4.887   3.769  20.096
   29ARHM    C3 3156   4.796   3.878  19.898
   29ARHM    H3 3157   4.812   3.891  19.788
   29ARHM    O3 3158   4.809   4.004  19.962
   29ARHM   HO3 3159   4.723   4.045  19.957
   29ARHM    C4 3160   4.657   3.820  19.919
   29ARHM    H4 3161   4.638   3.806  20.028
   29ARHM    O4 3162   4.554   3.908  19.873
   29ARHM   HO4 3163   4.567   3.936  19.781
   29ARHM    C6 3164   4.538   3.591  19.862
   29ARHM   H61 3165   4.558   3.493  19.816
   29ARHM   H62 3166   4.500   3.581  19.966
   29ARHM   H63 3167   4.460   3.635  19.802
   30ARHM    C1 3168   5.005   3.763  20.173
   30ARHM    H1 3169   5.069   3.852  20.152
   30ARHM    C5 3170   5.008   3.524  20.186
   30ARHM    H5 3171   4.913   3.528  20.127
   30ARHM    O5 3172   5.082   3.642  20.152
   30ARHM    C2 3173   4.964   3.766  20.318
   30ARHM    H2 3174   4.903   3.857  20.339
   30ARHM    O2 3175   5.083   3.766  20.397
   30ARHM    C3 3176   4.885   3.643  20.359
   30ARHM    H3 3177   4.798   3.637  20.288
   30ARHM    O3 3178   4.829   3.657  20.491
   30ARHM    C4 3179   4.971   3.522  20.332
   30ARHM    H4 3180   5.065   3.524  20.392
   30ARHM    O4 3181   4.910   3.399  20.367
   30ARHM   HO4 3182   4.839   3.373  20.308
   30ARHM    C6 3183   5.085   3.399  20.142
   30ARHM   H61 3184   5.021   3.309  20.159
   30ARHM   H62 3185   5.106   3.405  20.033
   30ARHM   H63 3186   5.179   3.387  20.199
   31BMANN   C1 3187   5.135   3.892  20.426
   31BMANN   H1 3188   5.052   3.961  20.453
   31BMANN   C5 3189   5.276   4.070  20.357
   31BMANN   H5 3190   5.191   4.135  20.386
   31BMANN   O5 3191   5.218   3.943  20.321
   31BMANN   C2 3192   5.222   3.867  20.545
   31BMANN   H2 3193   5.154   3.835  20.628
   31BMANN    N 3194   5.315   3.760  20.518
   31BMANN   HN 3195   5.336   3.743  20.422
   31BMANN    C 3196   5.365   3.682  20.614
   31BMANN    O 3197   5.331   3.696  20.731
   31BMANN   CT 3198   5.463   3.578  20.570
   31BMANN  HT1 3199   5.530   3.622  20.493
   31BMANN  HT2 3200   5.408   3.491  20.527
   31BMANN  HT3 3201   5.523   3.542  20.656
   31BMANN   C3 3202   5.283   3.998  20.587
   31BMANN   H3 3203   5.201   4.069  20.606
   31BMANN   O3 3204   5.345   3.988  20.713
   31BMANN  HO3 3205   5.317   3.902  20.747
   31BMANN   C4 3206   5.367   4.056  20.477
   31BMANN   H4 3207   5.450   3.986  20.451
   31BMANN   O4 3208   5.424   4.182  20.512
   31BMANN  HO4 3209   5.358   4.234  20.558
   31BMANN   C6 3210   5.347   4.139  20.242
   31BMANN  H61 3211   5.369   4.243  20.273
   31BMANN  H62 3212   5.445   4.090  20.223
   31BMANN   O6 3213   5.276   4.141  20.118
   31BMANN  HO6 3214   5.193   4.189  20.122
   32BGLCN   C1 3215   4.916   3.624  20.597
   32BGLCN   H1 3216   5.018   3.659  20.577
   32BGLCN   C5 3217   5.019   3.453  20.728
   32BGLCN   H5 3218   5.118   3.494  20.694
   32BGLCN   O5 3219   4.923   3.484  20.626
   32BGLCN   C2 3220   4.868   3.694  20.721
   32BGLCN   H2 3221   4.771   3.646  20.750
   32BGLCN    N 3222   4.845   3.832  20.695
   32BGLCN   HN 3223   4.903   3.872  20.626
   32BGLCN    C 3224   4.753   3.906  20.757
   32BGLCN    O 3225   4.667   3.863  20.832
   32BGLCN   CT 3226   4.759   4.045  20.711
   32BGLCN  HT1 3227   4.820   4.043  20.618
   32BGLCN  HT2 3228   4.795   4.127  20.774
   32BGLCN  HT3 3229   4.653   4.067  20.688
   32BGLCN   C3 3230   4.972   3.673  20.828
   32BGLCN   H3 3231   5.070   3.703  20.783
   32BGLCN   O3 3232   4.953   3.755  20.946
   32BGLCN   C4 3233   4.979   3.525  20.855
   32BGLCN   H4 3234   4.877   3.491  20.880
   32BGLCN   O4 3235   5.066   3.494  20.961
   32BGLCN  HO4 3236   5.019   3.490  21.045
   32BGLCN   C6 3237   5.035   3.302  20.740
   32BGLCN  H61 3238   5.120   3.276  20.808
   32BGLCN  H62 3239   4.944   3.258  20.785
   32BGLCN   O6 3240   5.061   3.242  20.613
   32BGLCN  HO6 3241   5.115   3.301  20.560
   33AGAL    C1 3242   5.073   3.801  21.005
   33AGAL    H1 3243   5.152   3.722  20.997
   33AGAL    C5 3244   5.033   4.033  20.958
   33AGAL    H5 3245   4.936   3.994  20.920
   33AGAL    O5 3246   5.124   3.921  20.944
   33AGAL    C2 3247   5.049   3.833  21.151
   33AGAL    H2 3248   5.144   3.875  21.189
   33AGAL    O2 3249   5.029   3.710  21.223
   33AGAL    C3 3250   4.945   3.945  21.166
   33AGAL    H3 3251   4.853   3.920  21.108
   33AGAL    O3 3252   4.897   3.959  21.299
   33AGAL   HO3 3253   4.971   3.978  21.358
   33AGAL    C4 3254   5.003   4.071  21.102
   33AGAL    H4 3255   4.926   4.152  21.103
   33AGAL    O4 3256   5.118   4.127  21.165
   33AGAL   HO4 3257   5.165   4.072  21.228
   33AGAL    C6 3258   5.068   4.147  20.864
   33AGAL   H61 3259   5.058   4.104  20.763
   33AGAL   H62 3260   4.994   4.230  20.874
   33AGAL    O6 3261   5.198   4.206  20.876
   33AGAL   HO6 3262   5.264   4.158  20.824
   34ARHM    C1 3263   5.106   3.697  21.341
   34ARHM    H1 3264   5.093   3.790  21.401
   34ARHM    C5 3265   5.284   3.564  21.244
   34ARHM    H5 3266   5.238   3.573  21.143
   34ARHM    O5 3267   5.249   3.681  21.319
   34ARHM    C2 3268   5.050   3.578  21.417
   34ARHM    H2 3269   4.938   3.588  21.422
   34ARHM    O2 3270   5.100   3.568  21.553
   34ARHM    C3 3271   5.081   3.453  21.337
   34ARHM    H3 3272   5.035   3.461  21.236
   34ARHM    O3 3273   5.024   3.337  21.399
   34ARHM   HO3 3274   5.002   3.273  21.331
   34ARHM    C4 3275   5.231   3.441  21.317
   34ARHM    H4 3276   5.282   3.439  21.416
   34ARHM    O4 3277   5.267   3.323  21.248
   34ARHM   HO4 3278   5.254   3.244  21.303
   34ARHM    C6 3279   5.438   3.552  21.221
   34ARHM   H61 3280   5.495   3.546  21.315
   34ARHM   H62 3281   5.458   3.456  21.169
   34ARHM   H63 3282   5.479   3.632  21.156
   35ARHM    C1 3283   5.080   3.676  21.642
   35ARHM    H1 3284   4.981   3.723  21.624
   35ARHM    C5 3285   5.317   3.719  21.657
   35ARHM    H5 3286   5.338   3.635  21.588
   35ARHM    O5 3287   5.186   3.774  21.632
   35ARHM    C2 3288   5.081   3.625  21.787
   35ARHM    H2 3289   5.001   3.549  21.802
   35ARHM    O2 3290   5.059   3.733  21.880
   35ARHM    C3 3291   5.214   3.561  21.819
   35ARHM    H3 3292   5.231   3.476  21.749
   35ARHM    O3 3293   5.212   3.504  21.950
   35ARHM   HO3 3294   5.152   3.556  22.005
   35ARHM    C4 3295   5.324   3.665  21.801
   35ARHM    H4 3296   5.307   3.752  21.870
   35ARHM    O4 3297   5.452   3.609  21.832
   35ARHM   HO4 3298   5.457   3.521  21.794
   35ARHM    C6 3299   5.422   3.826  21.622
   35ARHM   H61 3300   5.424   3.851  21.514
   35ARHM   H62 3301   5.402   3.919  21.679
   35ARHM   H63 3302   5.524   3.788  21.647
   36BMANN   C1 3303   4.928   3.782  21.884
   36BMANN   H1 3304   4.857   3.705  21.849
   36BMANN   C5 3305   4.769   3.941  21.809
   36BMANN   H5 3306   4.705   3.854  21.779
   36BMANN   O5 3307   4.908   3.899  21.803
   36BMANN   C2 3308   4.900   3.818  22.027
   36BMANN   H2 3309   4.911   3.723  22.084
   36BMANN    N 3310   4.991   3.916  22.085
   36BMANN   HN 3311   5.025   3.988  22.026
   36BMANN    C 3312   5.020   3.919  22.216
   36BMANN    O 3313   4.987   3.830  22.293
   36BMANN   CT 3314   5.097   4.037  22.266
   36BMANN  HT1 3315   5.062   4.132  22.221
   36BMANN  HT2 3316   5.204   4.021  22.248
   36BMANN  HT3 3317   5.084   4.044  22.374
   36BMANN   C3 3318   4.755   3.862  22.038
   36BMANN   H3 3319   4.689   3.779  22.001
   36BMANN   O3 3320   4.717   3.890  22.171
   36BMANN  HO3 3321   4.650   3.829  22.200
   36BMANN   C4 3322   4.731   3.980  21.949
   36BMANN   H4 3323   4.793   4.067  21.982
   36BMANN   O4 3324   4.595   4.020  21.959
   36BMANN  HO4 3325   4.586   4.038  22.053
   36BMANN   C6 3326   4.740   4.049  21.710
   36BMANN  H61 3327   4.768   4.016  21.607
   36BMANN  H62 3328   4.629   4.063  21.710
   36BMANN   O6 3329   4.803   4.172  21.744
   36BMANN  HO6 3330   4.745   4.225  21.800
    1ECLIP HB6S 3331   5.316   4.882  11.780
    1ECLIP  OB6 3332   5.231   5.011  11.908
    1ECLIP  CB6 3333   5.215   4.910  11.807
    1ECLIP HB6R 3334   5.166   4.819  11.848
    1ECLIP  CB5 3335   5.146   4.952  11.680
    1ECLIP  OB5 3336   5.216   5.069  11.632
    1ECLIP  HB5 3337   5.041   4.977  11.709
    1ECLIP  CB1 3338   5.155   5.124  11.515
    1ECLIP  HB1 3339   5.047   5.148  11.532
    1ECLIP  OA6 3340   5.217   5.241  11.469
    1ECLIP  CA6 3341   5.359   5.250  11.492
    1ECLIP HA6R 3342   5.405   5.150  11.512
    1ECLIP HA6S 3343   5.378   5.316  11.579
    1ECLIP  CB4 3344   5.144   4.844  11.570
    1ECLIP  HB4 3345   5.248   4.812  11.541
    1ECLIP  OB4 3346   5.063   4.737  11.619
    1ECLIP   PB 3347   5.134   4.594  11.665
    1ECLIP OPB4 3348   5.058   4.542  11.786
    1ECLIP OPB3 3349   5.278   4.633  11.698
    1ECLIP OPB2 3350   5.118   4.504  11.543
    1ECLIP  CB3 3351   5.081   4.903  11.446
    1ECLIP  OB3 3352   5.082   4.816  11.334
    1ECLIP  HB3 3353   4.977   4.939  11.470
    1ECLIP  C71 3354   4.983   4.732  11.319
    1ECLIP  O71 3355   4.870   4.749  11.363
    1ECLIP  C72 3356   5.007   4.672  11.181
    1ECLIP H72R 3357   5.017   4.748  11.101
    1ECLIP H72S 3358   4.920   4.609  11.161
    1ECLIP  CB2 3359   5.159   5.024  11.403
    1ECLIP  HB2 3360   5.266   4.993  11.387
    1ECLIP  NB2 3361   5.102   5.082  11.282
    1ECLIP HNB2 3362   5.032   5.152  11.294
    1ECLIP  CA4 3363   5.349   5.430  11.317
    1ECLIP  HA4 3364   5.248   5.393  11.290
    1ECLIP  OA4 3365   5.341   5.529  11.421
    1ECLIP HOA4 3366   5.300   5.482  11.495
    1ECLIP  CA5 3367   5.425   5.311  11.370
    1ECLIP  HA5 3368   5.531   5.334  11.393
    1ECLIP  OA5 3369   5.422   5.210  11.270
    1ECLIP  CA1 3370   5.484   5.249  11.147
    1ECLIP  HA1 3371   5.455   5.166  11.079
    1ECLIP  OA1 3372   5.626   5.259  11.152
    1ECLIP OPA2 3373   5.775   5.177  11.341
    1ECLIP OPA3 3374   5.621   5.012  11.223
    1ECLIP OPA4 3375   5.824   5.107  11.103
    1ECLIP   PA 3376   5.715   5.130  11.207
    1ECLIP  CA3 3377   5.411   5.483  11.189
    1ECLIP  HA3 3378   5.514   5.519  11.209
    1ECLIP  OA3 3379   5.332   5.599  11.155
    1ECLIP  C31 3380   5.219   5.571  11.087
    1ECLIP  O31 3381   5.214   5.567  10.965
    1ECLIP  C32 3382   5.103   5.629  11.164
    1ECLIP H32R 3383   5.068   5.715  11.104
    1ECLIP H32S 3384   5.130   5.665  11.264
    1ECLIP  CA2 3385   5.412   5.369  11.087
    1ECLIP  HA2 3386   5.307   5.335  11.070
    1ECLIP  NA2 3387   5.471   5.410  10.959
    1ECLIP HNA2 3388   5.485   5.507  10.948
    1ECLIP  C73 3389   5.135   4.593  11.173
    1ECLIP H73R 3390   5.132   4.518  11.257
    1ECLIP  O73 3391   5.243   4.680  11.174
    1ECLIP  C81 3392   5.354   4.641  11.232
    1ECLIP  O81 3393   5.375   4.533  11.286
    1ECLIP  C82 3394   5.466   4.724  11.171
    1ECLIP H82R 3395   5.560   4.702  11.223
    1ECLIP H82S 3396   5.443   4.831  11.192
    1ECLIP  C83 3397   5.482   4.706  11.017
    1ECLIP H83R 3398   5.406   4.769  10.966
    1ECLIP H83S 3399   5.463   4.600  10.990
    1ECLIP  C84 3400   5.618   4.754  10.965
    1ECLIP H84R 3401   5.699   4.685  10.996
    1ECLIP H84S 3402   5.637   4.854  11.013
    1ECLIP  C85 3403   5.620   4.776  10.813
    1ECLIP H85R 3404   5.523   4.827  10.791
    1ECLIP H85S 3405   5.618   4.679  10.760
    1ECLIP  C86 3406   5.731   4.871  10.765
    1ECLIP H86R 3407   5.823   4.815  10.736
    1ECLIP H86S 3408   5.761   4.938  10.849
    1ECLIP  C87 3409   5.684   4.965  10.652
    1ECLIP H87R 3410   5.770   5.026  10.616
    1ECLIP H87S 3411   5.610   5.038  10.694
    1ECLIP  C88 3412   5.614   4.891  10.538
    1ECLIP H88R 3413   5.512   4.862  10.571
    1ECLIP H88S 3414   5.667   4.794  10.524
    1ECLIP  C89 3415   5.605   4.972  10.408
    1ECLIP H89R 3416   5.616   5.081  10.426
    1ECLIP H89S 3417   5.505   4.959  10.362
    1ECLIP C810 3418   5.708   4.922  10.306
    1ECLIPH810R 3419   5.725   4.814  10.329
    1ECLIPH810S 3420   5.803   4.977  10.323
    1ECLIP C811 3421   5.663   4.936  10.160
    1ECLIPH811R 3422   5.750   4.934  10.090
    1ECLIPH811S 3423   5.613   5.035  10.152
    1ECLIP C812 3424   5.561   4.832  10.110
    1ECLIPH812R 3425   5.530   4.865  10.008
    1ECLIPH812S 3426   5.473   4.832  10.177
    1ECLIP C813 3427   5.612   4.688  10.100
    1ECLIPH813R 3428   5.697   4.686  10.029
    1ECLIPH813S 3429   5.648   4.651  10.199
    1ECLIP C814 3430   5.504   4.592  10.049
    1ECLIPH814R 3431   5.453   4.631   9.958
    1ECLIPH814S 3432   5.427   4.577  10.128
    1ECLIPH814T 3433   5.549   4.494  10.025
    1ECLIP  C74 3434   5.146   4.518  11.043
    1ECLIP H74R 3435   5.046   4.471  11.040
    1ECLIP H74S 3436   5.236   4.451  11.058
    1ECLIP  C75 3437   5.170   4.573  10.906
    1ECLIP H75R 3438   5.237   4.499  10.854
    1ECLIP H75S 3439   5.220   4.668  10.926
    1ECLIP  C76 3440   5.046   4.588  10.821
    1ECLIP H76R 3441   4.984   4.667  10.866
    1ECLIP H76S 3442   4.986   4.496  10.811
    1ECLIP  C77 3443   5.078   4.607  10.675
    1ECLIP H77R 3444   5.118   4.512  10.635
    1ECLIP H77S 3445   5.145   4.691  10.662
    1ECLIP  C78 3446   4.957   4.641  10.599
    1ECLIP H78R 3447   4.875   4.571  10.626
    1ECLIP H78S 3448   4.939   4.744  10.636
    1ECLIP  C79 3449   4.964   4.681  10.452
    1ECLIP H79R 3450   4.960   4.792  10.444
    1ECLIP H79S 3451   4.874   4.644  10.396
    1ECLIP C710 3452   5.050   4.602  10.372
    1ECLIPH710R 3453   5.148   4.616  10.419
    1ECLIPH710S 3454   5.010   4.498  10.381
    1ECLIP C711 3455   5.041   4.653  10.231
    1ECLIPH711R 3456   4.939   4.638  10.188
    1ECLIPH711S 3457   5.065   4.762  10.227
    1ECLIP C712 3458   5.142   4.571  10.158
    1ECLIPH712R 3459   5.106   4.465  10.160
    1ECLIPH712S 3460   5.235   4.578  10.218
    1ECLIP C713 3461   5.165   4.619  10.018
    1ECLIPH713R 3462   5.203   4.724  10.021
    1ECLIPH713S 3463   5.242   4.555   9.968
    1ECLIP C714 3464   5.039   4.612   9.936
    1ECLIPH714R 3465   5.003   4.508   9.926
    1ECLIPH714S 3466   4.956   4.680   9.964
    1ECLIPH714T 3467   5.073   4.645   9.838
    1ECLIP  C51 3468   5.141   5.040  11.160
    1ECLIP  O51 3469   5.241   4.973  11.145
    1ECLIP  C52 3470   5.054   5.073  11.043
    1ECLIP H52R 3471   4.975   4.996  11.031
    1ECLIP H52S 3472   5.009   5.170  11.065
    1ECLIP  C53 3473   5.136   5.084  10.913
    1ECLIP H53R 3474   5.237   5.126  10.935
    1ECLIP  O53 3475   5.061   5.167  10.822
    1ECLIP  C61 3476   5.111   5.286  10.793
    1ECLIP  O61 3477   5.218   5.331  10.825
    1ECLIP  C62 3478   5.017   5.357  10.698
    1ECLIP H62R 3479   4.936   5.405  10.757
    1ECLIP H62S 3480   4.975   5.275  10.636
    1ECLIP  C63 3481   5.094   5.461  10.613
    1ECLIP H63R 3482   5.183   5.415  10.567
    1ECLIP H63S 3483   5.118   5.552  10.672
    1ECLIP  C64 3484   5.022   5.508  10.492
    1ECLIP H64R 3485   5.064   5.598  10.442
    1ECLIP H64S 3486   4.922   5.523  10.537
    1ECLIP  C65 3487   4.995   5.404  10.390
    1ECLIP H65R 3488   4.931   5.336  10.452
    1ECLIP H65S 3489   5.079   5.345  10.356
    1ECLIP  C66 3490   4.922   5.452  10.266
    1ECLIP H66R 3491   4.829   5.511  10.285
    1ECLIP H66S 3492   4.904   5.349  10.227
    1ECLIP  C67 3493   4.974   5.531  10.150
    1ECLIP H67R 3494   5.010   5.626  10.191
    1ECLIP H67S 3495   4.896   5.554  10.072
    1ECLIP  C68 3496   5.081   5.458  10.082
    1ECLIP H68R 3497   5.053   5.356  10.047
    1ECLIP H68S 3498   5.157   5.450  10.163
    1ECLIP  C69 3499   5.117   5.541   9.963
    1ECLIP H69R 3500   5.095   5.649   9.975
    1ECLIP H69S 3501   5.050   5.506   9.881
    1ECLIP C610 3502   5.262   5.521   9.933
    1ECLIPH610R 3503   5.289   5.413   9.939
    1ECLIPH610S 3504   5.324   5.576  10.007
    1ECLIP C611 3505   5.290   5.575   9.796
    1ECLIPH611R 3506   5.252   5.677   9.788
    1ECLIPH611S 3507   5.400   5.566   9.784
    1ECLIP C612 3508   5.224   5.503   9.684
    1ECLIPH612R 3509   5.272   5.406   9.699
    1ECLIPH612S 3510   5.117   5.484   9.698
    1ECLIPH612T 3511   5.244   5.546   9.583
    1ECLIP  C54 3512   5.149   4.942  10.853
    1ECLIP H54R 3513   5.047   4.909  10.824
    1ECLIP H54S 3514   5.185   4.875  10.934
    1ECLIP  C55 3515   5.243   4.926  10.733
    1ECLIP H55R 3516   5.269   4.819  10.719
    1ECLIP H55S 3517   5.340   4.976  10.756
    1ECLIP  C56 3518   5.175   4.977  10.605
    1ECLIP H56R 3519   5.144   5.082  10.622
    1ECLIP H56S 3520   5.082   4.919  10.587
    1ECLIP  C57 3521   5.257   4.981  10.477
    1ECLIP H57R 3522   5.302   4.882  10.454
    1ECLIP H57S 3523   5.341   5.053  10.491
    1ECLIP  C58 3524   5.168   5.030  10.362
    1ECLIP H58R 3525   5.070   4.977  10.358
    1ECLIP H58S 3526   5.143   5.137  10.383
    1ECLIP  C59 3527   5.237   5.014  10.226
    1ECLIP H59R 3528   5.265   4.908  10.208
    1ECLIP H59S 3529   5.331   5.073  10.233
    1ECLIP C510 3530   5.147   5.051  10.109
    1ECLIPH510R 3531   5.095   5.148  10.122
    1ECLIPH510S 3532   5.070   4.972  10.092
    1ECLIP C511 3533   5.220   5.064   9.980
    1ECLIPH511R 3534   5.273   5.161   9.973
    1ECLIPH511S 3535   5.296   4.983   9.963
    1ECLIP C512 3536   5.117   5.066   9.868
    1ECLIPH512R 3537   5.154   5.031   9.770
    1ECLIPH512S 3538   5.047   4.988   9.893
    1ECLIP C513 3539   5.069   5.203   9.835
    1ECLIPH513R 3540   5.145   5.279   9.806
    1ECLIPH513S 3541   4.990   5.232   9.905
    1ECLIP C514 3542   4.995   5.198   9.715
    1ECLIPH514R 3543   4.927   5.115   9.728
    1ECLIPH514S 3544   4.927   5.282   9.692
    1ECLIPH514T 3545   5.067   5.182   9.631
    1ECLIP  C33 3546   4.988   5.532  11.182
    1ECLIP H33R 3547   4.899   5.577  11.215
    1ECLIP  O33 3548   5.017   5.434  11.278
    1ECLIP HO33 3549   5.001   5.470  11.367
    1ECLIP  C34 3550   4.935   5.462  11.065
    1ECLIP H34R 3551   5.012   5.397  11.018
    1ECLIP H34S 3552   4.901   5.533  10.984
    1ECLIP  C35 3553   4.817   5.379  11.118
    1ECLIP H35R 3554   4.718   5.435  11.133
    1ECLIP H35S 3555   4.829   5.304  11.197
    1ECLIP  C36 3556   4.814   5.284  11.011
    1ECLIP H36R 3557   4.894   5.265  10.939
    1ECLIP H36S 3558   4.772   5.379  10.968
    1ECLIP  C37 3559   4.762   5.141  11.034
    1ECLIP H37R 3560   4.674   5.146  11.104
    1ECLIP H37S 3561   4.796   5.095  11.124
    1ECLIP  C38 3562   4.753   5.047  10.900
    1ECLIP H38R 3563   4.843   4.990  10.881
    1ECLIP H38S 3564   4.656   4.989  10.898
    1ECLIP  C39 3565   4.703   5.069  10.757
    1ECLIP H39R 3566   4.780   5.143  10.727
    1ECLIP H39S 3567   4.589   5.081  10.752
    1ECLIP C310 3568   4.723   5.018  10.621
    1ECLIPH310R 3569   4.619   4.972  10.604
    1ECLIPH310S 3570   4.820   4.965  10.625
    1ECLIP C311 3571   4.753   5.081  10.494
    1ECLIPH311R 3572   4.657   5.117  10.501
    1ECLIPH311S 3573   4.846   5.135  10.481
    1ECLIP C312 3574   4.697   5.034  10.364
    1ECLIPH312R 3575   4.749   4.961  10.424
    1ECLIPH312S 3576   4.586   5.017  10.349
    1ECLIP C313 3577   4.776   5.061  10.241
    1ECLIPH313R 3578   4.700   5.128  10.208
    1ECLIPH313S 3579   4.873   5.103  10.262
    1ECLIP C314 3580   4.780   4.987  10.116
    1ECLIPH314R 3581   4.671   4.996  10.086
    1ECLIPH314S 3582   4.816   5.020  10.019
    1ECLIPH314T 3583   4.822   4.886  10.137
    1ECLIP  C11 3584   5.521   5.330  10.862
    1ECLIP  O11 3585   5.493   5.212  10.846
    1ECLIP  C12 3586   5.618   5.398  10.769
    1ECLIP H12R 3587   5.721   5.363  10.791
    1ECLIP H12S 3588   5.612   5.507  10.787
    1ECLIP  C13 3589   5.586   5.373  10.622
    1ECLIP H13R 3590   5.559   5.267  10.601
    1ECLIP  O13 3591   5.704   5.404  10.548
    1ECLIP HO13 3592   5.714   5.357  10.465
    1ECLIP  C14 3593   5.469   5.464  10.580
    1ECLIP H14R 3594   5.477   5.562  10.632
    1ECLIP H14S 3595   5.377   5.413  10.614
    1ECLIP  C15 3596   5.454   5.491  10.431
    1ECLIP H15R 3597   5.550   5.534  10.393
    1ECLIP H15S 3598   5.376   5.569  10.419
    1ECLIP  C16 3599   5.416   5.364  10.354
    1ECLIP H16R 3600   5.307   5.345  10.364
    1ECLIP H16S 3601   5.466   5.276  10.401
    1ECLIP  C17 3602   5.453   5.376  10.206
    1ECLIP H17R 3603   5.421   5.478  10.175
    1ECLIP H17S 3604   5.399   5.303  10.142
    1ECLIP  C18 3605   5.603   5.360  10.184
    1ECLIP H18R 3606   5.654   5.437  10.246
    1ECLIP H18S 3607   5.636   5.259  10.215
    1ECLIP  C19 3608   5.644   5.383  10.039
    1ECLIP H19R 3609   5.755   5.387  10.031
    1ECLIP H19S 3610   5.602   5.480  10.002
    1ECLIP C110 3611   5.595   5.273   9.947
    1ECLIPH110R 3612   5.623   5.171   9.982
    1ECLIPH110S 3613   5.484   5.281   9.948
    1ECLIP C111 3614   5.662   5.301   9.811
    1ECLIPH111R 3615   5.636   5.404   9.777
    1ECLIPH111S 3616   5.769   5.284   9.822
    1ECLIP C112 3617   5.632   5.204   9.699
    1ECLIPH112R 3618   5.630   5.100   9.739
    1ECLIPH112S 3619   5.534   5.255   9.695
    1ECLIP C113 3620   5.647   5.236   9.548
    1ECLIPH113R 3621   5.581   5.326   9.528
    1ECLIPH113S 3622   5.750   5.269   9.545
    1ECLIP C114 3623   5.622   5.131   9.434
    1ECLIPH114R 3624   5.654   5.029   9.463
    1ECLIPH114S 3625   5.517   5.115   9.400
    1ECLIPH114T 3626   5.669   5.168   9.343
    2AKDO    C1 3627   5.006   4.995  11.978
    2AKDO   O11 3628   4.938   4.890  11.977
    2AKDO   O12 3629   4.967   5.110  11.942
    2AKDO    C2 3630   5.155   4.984  12.024
    2AKDO    C6 3631   5.317   4.836  12.123
    2AKDO    H6 3632   5.378   4.857  12.031
    2AKDO    O6 3633   5.181   4.854  12.083
    2AKDO    C3 3634   5.193   5.088  12.129
    2AKDO   H31 3635   5.123   5.083  12.215
    2AKDO   H32 3636   5.184   5.189  12.082
    2AKDO    C4 3637   5.335   5.072  12.174
    2AKDO    H4 3638   5.402   5.077  12.085
    2AKDO    O4 3639   5.370   5.168  12.274
    2AKDO    C5 3640   5.357   4.935  12.233
    2AKDO    H5 3641   5.468   4.922  12.245
    2AKDO    O5 3642   5.288   4.930  12.362
    2AKDO    C7 3643   5.345   4.689  12.154
    2AKDO    H7 3644   5.287   4.661  12.244
    2AKDO    O7 3645   5.487   4.666  12.173
    2AKDO   HO7 3646   5.516   4.666  12.082
    2AKDO    C8 3647   5.296   4.606  12.037
    2AKDO   H81 3648   5.186   4.622  12.022
    2AKDO   H82 3649   5.350   4.633  11.944
    2AKDO    O8 3650   5.321   4.469  12.063
    2AKDO   HO8 3651   5.243   4.419  12.030
    3AKDO    C1 3652   5.504   5.297  12.117
    3AKDO   O11 3653   5.456   5.321  12.003
    3AKDO   O12 3654   5.623   5.267  12.147
    3AKDO    C2 3655   5.407   5.299  12.237
    3AKDO    C6 3656   5.198   5.383  12.316
    3AKDO    H6 3657   5.158   5.280  12.334
    3AKDO    O6 3658   5.293   5.383  12.209
    3AKDO    C3 3659   5.470   5.352  12.368
    3AKDO   H31 3660   5.505   5.456  12.351
    3AKDO   H32 3661   5.559   5.293  12.395
    3AKDO    C4 3662   5.369   5.349  12.478
    3AKDO    H4 3663   5.325   5.246  12.485
    3AKDO    O4 3664   5.423   5.380  12.604
    3AKDO   HO4 3665   5.403   5.311  12.670
    3AKDO    C5 3666   5.258   5.440  12.442
    3AKDO    H5 3667   5.185   5.437  12.527
    3AKDO    O5 3668   5.298   5.576  12.422
    3AKDO   HO5 3669   5.367   5.573  12.354
    3AKDO    C7 3670   5.088   5.468  12.272
    3AKDO    H7 3671   5.119   5.570  12.246
    3AKDO    O7 3672   5.007   5.494  12.387
    3AKDO   HO7 3673   4.925   5.529  12.352
    3AKDO    C8 3674   5.030   5.405  12.146
    3AKDO   H81 3675   5.107   5.384  12.071
    3AKDO   H82 3676   4.977   5.310  12.166
    3AKDO    O8 3677   4.951   5.495  12.073
    3AKDO   HO8 3678   4.990   5.577  12.047
    4AHEP    C1 3679   5.346   4.848  12.461
    4AHEP    H1 3680   5.321   4.745  12.427
    4AHEP    C5 3681   5.542   4.968  12.535
    4AHEP    H5 3682   5.496   5.058  12.487
    4AHEP    O5 3683   5.489   4.852  12.466
    4AHEP    C2 3684   5.294   4.851  12.607
    4AHEP    H2 3685   5.184   4.854  12.603
    4AHEP    O2 3686   5.329   4.731  12.674
    4AHEP   HO2 3687   5.254   4.699  12.724
    4AHEP    C3 3688   5.343   4.972  12.686
    4AHEP    H3 3689   5.302   5.068  12.646
    4AHEP    O3 3690   5.305   4.958  12.825
    4AHEP    C4 3691   5.494   4.970  12.682
    4AHEP    H4 3692   5.537   4.880  12.733
    4AHEP    O4 3693   5.534   5.093  12.743
    4AHEP    P4 3694   5.618   5.093  12.887
    4AHEP  OP42 3695   5.579   5.224  12.955
    4AHEP  OP43 3696   5.764   5.088  12.843
    4AHEP  OP44 3697   5.576   4.970  12.968
    4AHEP    C6 3698   5.696   4.972  12.515
    4AHEP    H6 3699   5.727   5.076  12.545
    4AHEP    O6 3700   5.769   4.880  12.598
    4AHEP   HO6 3701   5.824   4.929  12.662
    4AHEP    C7 3702   5.742   4.947  12.369
    4AHEP   H71 3703   5.847   4.980  12.357
    4AHEP   H72 3704   5.678   5.007  12.301
    4AHEP    O7 3705   5.740   4.809  12.323
    4AHEP   HO7 3706   5.804   4.771  12.385
    5AHEP    C1 3707   5.224   5.058  12.882
    5AHEP    H1 3708   5.244   5.158  12.835
    5AHEP    C5 3709   5.053   4.903  12.935
    5AHEP    H5 3710   5.121   4.824  12.897
    5AHEP    O5 3711   5.086   5.024  12.866
    5AHEP    C2 3712   5.254   5.072  13.032
    5AHEP    H2 3713   5.362   5.091  13.045
    5AHEP    O2 3714   5.187   5.187  13.085
    5AHEP   HO2 3715   5.247   5.260  13.101
    5AHEP    C3 3716   5.219   4.945  13.109
    5AHEP    H3 3717   5.281   4.861  13.068
    5AHEP    O3 3718   5.238   4.952  13.252
    5AHEP    C4 3719   5.073   4.914  13.084
    5AHEP    H4 3720   5.007   4.997  13.121
    5AHEP    O4 3721   5.045   4.785  13.140
    5AHEP    P4 3722   4.939   4.776  13.268
    5AHEP  OP42 3723   4.959   4.635  13.322
    5AHEP  OP43 3724   4.806   4.797  13.199
    5AHEP  OP44 3725   4.980   4.884  13.368
    5AHEP    C6 3726   4.913   4.862  12.898
    5AHEP    H6 3727   4.890   4.762  12.945
    5AHEP    O6 3728   4.810   4.952  12.937
    5AHEP   HO6 3729   4.811   5.035  12.891
    5AHEP    C7 3730   4.912   4.844  12.752
    5AHEP   H71 3731   4.854   4.758  12.755
    5AHEP   H72 3732   5.001   4.806  12.699
    5AHEP    O7 3733   4.842   4.939  12.677
    6AHEP    C1 3734   4.938   5.019  12.620
    6AHEP    H1 3735   5.041   4.996  12.644
    6AHEP    C5 3736   4.816   5.047  12.432
    6AHEP    H5 3737   4.735   4.983  12.486
    6AHEP    O5 3738   4.937   5.005  12.482
    6AHEP    C2 3739   4.923   5.155  12.670
    6AHEP    H2 3740   4.926   5.166  12.780
    6AHEP    O2 3741   5.023   5.242  12.613
    6AHEP   HO2 3742   5.061   5.289  12.687
    6AHEP    C3 3743   4.799   5.197  12.630
    6AHEP    H3 3744   4.720   5.129  12.675
    6AHEP    O3 3745   4.786   5.322  12.683
    6AHEP   HO3 3746   4.699   5.349  12.719
    6AHEP    C4 3747   4.808   5.180  12.485
    6AHEP    H4 3748   4.854   5.261  12.426
    6AHEP    O4 3749   4.707   5.184  12.429
    6AHEP   HO4 3750   4.627   5.184  12.480
    6AHEP    C6 3751   4.784   5.037  12.276
    6AHEP    H6 3752   4.676   5.059  12.249
    6AHEP    O6 3753   4.851   5.122  12.191
    6AHEP   HO6 3754   4.883   5.060  12.123
    6AHEP    C7 3755   4.820   4.908  12.240
    6AHEP   H71 3756   4.770   4.874  12.146
    6AHEP   H72 3757   4.779   4.867  12.333
    6AHEP    O7 3758   4.947   4.857  12.261
    6AHEP   HO7 3759   4.936   4.807  12.342
    7AGLC    C1 3760   5.361   4.908  13.302
    7AGLC    H1 3761   5.393   4.813  13.252
    7AGLC    C5 3762   5.431   5.132  13.346
    7AGLC    H5 3763   5.330   5.168  13.319
    7AGLC    O5 3764   5.459   5.008  13.278
    7AGLC    C2 3765   5.364   4.882  13.453
    7AGLC    H2 3766   5.471   4.862  13.479
    7AGLC    O2 3767   5.294   4.766  13.496
    7AGLC   HO2 3768   5.198   4.787  13.495
    7AGLC    C3 3769   5.327   5.005  13.533
    7AGLC    H3 3770   5.228   5.040  13.497
    7AGLC    O3 3771   5.317   4.978  13.676
    7AGLC    C4 3772   5.432   5.109  13.497
    7AGLC    H4 3773   5.534   5.073  13.528
    7AGLC    O4 3774   5.401   5.231  13.564
    7AGLC   HO4 3775   5.478   5.273  13.604
    7AGLC    C6 3776   5.527   5.234  13.287
    7AGLC   H61 3777   5.510   5.237  13.177
    7AGLC   H62 3778   5.508   5.336  13.327
    7AGLC    O6 3779   5.664   5.200  13.310
    7AGLC   HO6 3780   5.685   5.243  13.391
    8AGLC    C1 3781   5.187   5.002  13.728
    8AGLC    H1 3782   5.147   5.098  13.687
    8AGLC    C5 3783   5.115   4.770  13.758
    8AGLC    H5 3784   5.216   4.736  13.725
    8AGLC    O5 3785   5.091   4.898  13.695
    8AGLC    C2 3786   5.188   5.020  13.879
    8AGLC    H2 3787   5.085   5.048  13.907
    8AGLC    O2 3788   5.272   5.124  13.931
    8AGLC    C3 3789   5.221   4.891  13.948
    8AGLC    H3 3790   5.320   4.859  13.908
    8AGLC    O3 3791   5.235   4.917  14.090
    8AGLC    C4 3792   5.115   4.789  13.909
    8AGLC    H4 3793   5.016   4.829  13.939
    8AGLC    O4 3794   5.135   4.665  13.976
    8AGLC   HO4 3795   5.229   4.645  13.974
    8AGLC    C6 3796   5.019   4.658  13.710
    8AGLC   H61 3797   5.009   4.657  13.599
    8AGLC   H62 3798   5.061   4.558  13.738
    8AGLC    O6 3799   4.890   4.664  13.770
    8AGLC   HO6 3800   4.893   4.625  13.858
    9AGAL    C1 3801   5.256   5.253  13.879
    9AGAL    H1 3802   5.253   5.252  13.768
    9AGAL    C5 3803   5.140   5.339  14.065
    9AGAL    H5 3804   5.161   5.240  14.112
    9AGAL    O5 3805   5.136   5.317  13.923
    9AGAL    C2 3806   5.378   5.336  13.919
    9AGAL    H2 3807   5.365   5.435  13.871
    9AGAL    O2 3808   5.491   5.270  13.859
    9AGAL    C3 3809   5.382   5.360  14.069
    9AGAL    H3 3810   5.385   5.262  14.120
    9AGAL    O3 3811   5.499   5.432  14.110
    9AGAL   HO3 3812   5.566   5.398  14.049
    9AGAL    C4 3813   5.252   5.430  14.105
    9AGAL    H4 3814   5.244   5.445  14.215
    9AGAL    O4 3815   5.240   5.558  14.044
    9AGAL   HO4 3816   5.176   5.607  14.097
    9AGAL    C6 3817   5.007   5.377  14.121
    9AGAL   H61 3818   4.946   5.288  14.095
    9AGAL   H62 3819   5.005   5.382  14.232
    9AGAL    O6 3820   4.955   5.500  14.069
    9AGAL   HO6 3821   4.883   5.480  14.006
   10AGAL    C1 3822   5.623   5.260  13.911
   10AGAL    H1 3823   5.671   5.359  13.923
   10AGAL    C5 3824   5.585   5.062  14.042
   10AGAL    H5 3825   5.482   5.065  14.001
   10AGAL    O5 3826   5.632   5.197  14.042
   10AGAL    C2 3827   5.704   5.181  13.810
   10AGAL    H2 3828   5.809   5.180  13.848
   10AGAL    O2 3829   5.715   5.241  13.681
   10AGAL   HO2 3830   5.812   5.246  13.676
   10AGAL    C3 3831   5.653   5.038  13.806
   10AGAL    H3 3832   5.544   5.042  13.781
   10AGAL    O3 3833   5.716   4.954  13.709
   10AGAL   HO3 3834   5.657   4.937  13.636
   10AGAL    C4 3835   5.667   4.982  13.945
   10AGAL    H4 3836   5.623   4.883  13.952
   10AGAL    O4 3837   5.803   4.970  13.984
   10AGAL   HO4 3838   5.835   5.059  13.999
   10AGAL    C6 3839   5.568   4.994  14.179
   10AGAL   H61 3840   5.514   5.062  14.247
   10AGAL   H62 3841   5.505   4.903  14.163
   10AGAL    O6 3842   5.687   4.952  14.246
   10AGAL   HO6 3843   5.699   5.003  14.326
   11BGLC    C1 3844   5.129   4.898  14.184
   11BGLC    H1 3845   5.112   4.789  14.198
   11BGLC    C5 3846   4.903   4.962  14.248
   11BGLC    H5 3847   4.878   4.856  14.271
   11BGLC    O5 3848   5.008   4.967  14.148
   11BGLC    C2 3849   5.181   4.957  14.315
   11BGLC    H2 3850   5.204   5.066  14.301
   11BGLC    O2 3851   5.303   4.895  14.353
   11BGLC   HO2 3852   5.370   4.960  14.368
   11BGLC    C3 3853   5.080   4.951  14.427
   11BGLC    H3 3854   5.058   4.845  14.454
   11BGLC    O3 3855   5.129   5.025  14.541
   11BGLC    C4 3856   4.956   5.023  14.378
   11BGLC    H4 3857   4.982   5.128  14.355
   11BGLC    O4 3858   4.857   5.028  14.479
   11BGLC   HO4 3859   4.883   5.089  14.550
   11BGLC    C6 3860   4.783   5.044  14.198
   11BGLC   H61 3861   4.699   5.051  14.270
   11BGLC   H62 3862   4.818   5.135  14.152
   11BGLC    O6 3863   4.721   5.020  14.078
   11BGLC   HO6 3864   4.638   4.970  14.094
   12BGLCN   C1 3865   5.135   4.961  14.667
   12BGLCN   H1 3866   5.227   4.900  14.673
   12BGLCN   C5 3867   5.031   4.815  14.824
   12BGLCN   H5 3868   5.124   4.755  14.830
   12BGLCN   O5 3869   5.022   4.878  14.695
   12BGLCN   C2 3870   5.137   5.072  14.771
   12BGLCN   H2 3871   5.036   5.122  14.766
   12BGLCN    N 3872   5.244   5.163  14.741
   12BGLCN   HN 3873   5.333   5.121  14.731
   12BGLCN    C 3874   5.224   5.295  14.728
   12BGLCN    O 3875   5.115   5.346  14.744
   12BGLCN   CT 3876   5.343   5.379  14.692
   12BGLCN  HT1 3877   5.372   5.444  14.777
   12BGLCN  HT2 3878   5.316   5.448  14.609
   12BGLCN  HT3 3879   5.427   5.315  14.660
   12BGLCN   C3 3880   5.152   5.018  14.912
   12BGLCN   H3 3881   5.248   4.961  14.916
   12BGLCN   O3 3882   5.159   5.125  15.011
   12BGLCN   C4 3883   5.034   4.923  14.932
   12BGLCN   H4 3884   4.938   4.980  14.926
   12BGLCN   O4 3885   5.039   4.865  15.062
   12BGLCN  HO4 3886   5.106   4.796  15.064
   12BGLCN   C6 3887   4.913   4.719  14.831
   12BGLCN  H61 3888   4.910   4.666  14.928
   12BGLCN  H62 3889   4.819   4.778  14.819
   12BGLCN   O6 3890   4.918   4.623  14.725
   12BGLCN  HO6 3891   4.969   4.547  14.751
   13AGAL    C1 3892   5.250   5.103  15.118
   13AGAL    H1 3893   5.238   4.999  15.149
   13AGAL    C5 3894   5.402   5.280  15.063
   13AGAL    H5 3895   5.321   5.307  14.991
   13AGAL    O5 3896   5.386   5.136  15.083
   13AGAL    C2 3897   5.222   5.183  15.246
   13AGAL    H2 3898   5.307   5.159  15.315
   13AGAL    O2 3899   5.103   5.137  15.311
   13AGAL    C3 3900   5.232   5.332  15.225
   13AGAL    H3 3901   5.168   5.360  15.139
   13AGAL    O3 3902   5.188   5.406  15.337
   13AGAL   HO3 3903   5.135   5.481  15.305
   13AGAL    C4 3904   5.374   5.363  15.188
   13AGAL    H4 3905   5.380   5.471  15.159
   13AGAL    O4 3906   5.467   5.341  15.296
   13AGAL   HO4 3907   5.453   5.256  15.340
   13AGAL    C6 3908   5.527   5.324  14.991
   13AGAL   H61 3909   5.536   5.265  14.897
   13AGAL   H62 3910   5.516   5.432  14.967
   13AGAL    O6 3911   5.647   5.310  15.066
   13AGAL   HO6 3912   5.650   5.377  15.135
   14ARHM    C1 3913   5.122   5.073  15.436
   14ARHM    H1 3914   5.220   5.021  15.440
   14ARHM    C5 3915   4.903   5.025  15.454
   14ARHM    H5 3916   4.880   5.077  15.357
   14ARHM    O5 3917   5.031   4.969  15.452
   14ARHM    C2 3918   5.110   5.175  15.548
   14ARHM    H2 3919   5.184   5.254  15.530
   14ARHM    O2 3920   5.122   5.124  15.682
   14ARHM    C3 3921   4.975   5.235  15.543
   14ARHM    H3 3922   4.952   5.270  15.440
   14ARHM    O3 3923   4.962   5.348  15.629
   14ARHM   HO3 3924   4.952   5.318  15.720
   14ARHM    C4 3925   4.882   5.122  15.567
   14ARHM    H4 3926   4.900   5.064  15.657
   14ARHM    O4 3927   4.751   5.162  15.576
   14ARHM   HO4 3928   4.718   5.168  15.666
   14ARHM    C6 3929   4.814   4.914  15.465
   14ARHM   H61 3930   4.824   4.829  15.393
   14ARHM   H62 3931   4.791   4.879  15.567
   14ARHM   H63 3932   4.726   4.974  15.431
   15ARHM    C1 3933   5.234   5.046  15.709
   15ARHM    H1 3934   5.316   5.076  15.640
   15ARHM    C5 3935   5.117   4.854  15.800
   15ARHM    H5 3936   5.015   4.893  15.780
   15ARHM    O5 3937   5.211   4.904  15.702
   15ARHM    C2 3938   5.282   5.079  15.848
   15ARHM    H2 3939   5.297   5.186  15.850
   15ARHM    O2 3940   5.412   5.022  15.866
   15ARHM    C3 3941   5.179   5.040  15.950
   15ARHM    H3 3942   5.083   5.086  15.920
   15ARHM    O3 3943   5.215   5.096  16.076
   15ARHM    C4 3944   5.164   4.890  15.940
   15ARHM    H4 3945   5.266   4.846  15.952
   15ARHM    O4 3946   5.079   4.831  16.037
   15ARHM   HO4 3947   5.094   4.736  16.032
   15ARHM    C6 3948   5.110   4.701  15.782
   15ARHM   H61 3949   5.026   4.657  15.840
   15ARHM   H62 3950   5.097   4.678  15.675
   15ARHM   H63 3951   5.203   4.653  15.818
   16BMANN   C1 3952   5.481   5.042  15.987
   16BMANN   H1 3953   5.429   4.987  16.068
   16BMANN   C5 3954   5.562   5.191  16.155
   16BMANN   H5 3955   5.507   5.129  16.231
   16BMANN   O5 3956   5.495   5.179  16.027
   16BMANN   C2 3957   5.620   4.984  15.968
   16BMANN   H2 3958   5.605   4.877  15.938
   16BMANN    N 3959   5.701   5.045  15.863
   16BMANN   HN 3960   5.763   5.116  15.892
   16BMANN    C 3961   5.707   5.004  15.736
   16BMANN    O 3962   5.641   4.910  15.693
   16BMANN   CT 3963   5.795   5.086  15.645
   16BMANN  HT1 3964   5.889   5.032  15.622
   16BMANN  HT2 3965   5.820   5.183  15.690
   16BMANN  HT3 3966   5.742   5.104  15.549
   16BMANN   C3 3967   5.693   4.991  16.101
   16BMANN   H3 3968   5.632   4.937  16.177
   16BMANN   O3 3969   5.818   4.926  16.093
   16BMANN  HO3 3970   5.828   4.864  16.167
   16BMANN   C4 3971   5.704   5.136  16.148
   16BMANN   H4 3972   5.763   5.195  16.074
   16BMANN   O4 3973   5.767   5.153  16.275
   16BMANN  HO4 3974   5.810   5.239  16.280
   16BMANN   C6 3975   5.562   5.331  16.211
   16BMANN  H61 3976   5.563   5.323  16.322
   16BMANN  H62 3977   5.653   5.385  16.179
   16BMANN   O6 3978   5.449   5.407  16.171
   16BMANN  HO6 3979   5.483   5.487  16.129
   17BGLCN   C1 3980   5.106   5.143  16.148
   17BGLCN   H1 3981   5.018   5.076  16.133
   17BGLCN   C5 3982   4.960   5.327  16.189
   17BGLCN   H5 3983   4.867   5.267  16.169
   17BGLCN   O5 3984   5.069   5.276  16.112
   17BGLCN   C2 3985   5.155   5.136  16.291
   17BGLCN   H2 3986   5.238   5.211  16.310
   17BGLCN    N 3987   5.205   5.005  16.323
   17BGLCN   HN 3988   5.163   4.932  16.272
   17BGLCN    C 3989   5.294   4.977  16.417
   17BGLCN    O 3990   5.358   5.059  16.480
   17BGLCN   CT 3991   5.311   4.829  16.440
   17BGLCN  HT1 3992   5.399   4.789  16.387
   17BGLCN  HT2 3993   5.219   4.777  16.404
   17BGLCN  HT3 3994   5.321   4.808  16.548
   17BGLCN   C3 3995   5.042   5.175  16.377
   17BGLCN   H3 3996   4.955   5.111  16.345
   17BGLCN   O3 3997   5.064   5.151  16.519
   17BGLCN   C4 3998   5.007   5.312  16.332
   17BGLCN   H4 3999   5.088   5.388  16.352
   17BGLCN   O4 4000   4.896   5.334  16.407
   17BGLCN  HO4 4001   4.892   5.430  16.395
   17BGLCN   C6 4002   4.925   5.472  16.149
   17BGLCN  H61 4003   4.816   5.489  16.153
   17BGLCN  H62 4004   4.973   5.546  16.218
   17BGLCN   O6 4005   4.964   5.508  16.016
   17BGLCN  HO6 4006   4.932   5.442  15.954
   18AGAL    C1 4007   4.951   5.111  16.598
   18AGAL    H1 4008   4.886   5.199  16.617
   18AGAL    C5 4009   4.945   4.886  16.522
   18AGAL    H5 4010   5.043   4.910  16.478
   18AGAL    O5 4011   4.872   5.010  16.534
   18AGAL    C2 4012   4.990   5.053  16.733
   18AGAL    H2 4013   4.892   5.023  16.776
   18AGAL    O2 4014   5.042   5.152  16.823
   18AGAL    C3 4015   5.072   4.925  16.721
   18AGAL    H3 4016   5.159   4.944  16.653
   18AGAL    O3 4017   5.128   4.881  16.845
   18AGAL   HO3 4018   5.219   4.853  16.833
   18AGAL    C4 4019   4.984   4.821  16.653
   18AGAL    H4 4020   5.042   4.728  16.630
   18AGAL    O4 4021   4.873   4.784  16.733
   18AGAL   HO4 4022   4.904   4.729  16.806
   18AGAL    C6 4023   4.886   4.804  16.412
   18AGAL   H61 4024   4.892   4.864  16.319
   18AGAL   H62 4025   4.943   4.710  16.400
   18AGAL    O6 4026   4.751   4.773  16.428
   18AGAL   HO6 4027   4.713   4.822  16.503
   19ARHM    C1 4028   4.992   5.131  16.953
   19ARHM    H1 4029   4.967   5.024  16.971
   19ARHM    C5 4030   4.885   5.342  16.962
   19ARHM    H5 4031   4.922   5.359  16.858
   19ARHM    O5 4032   4.870   5.202  16.979
   19ARHM    C2 4033   5.098   5.181  17.047
   19ARHM    H2 4034   5.196   5.134  17.023
   19ARHM    O2 4035   5.067   5.147  17.182
   19ARHM    C3 4036   5.114   5.330  17.031
   19ARHM    H3 4037   5.141   5.352  16.926
   19ARHM    O3 4038   5.219   5.377  17.112
   19ARHM   HO3 4039   5.206   5.345  17.201
   19ARHM    C4 4040   4.984   5.398  17.060
   19ARHM    H4 4041   4.957   5.373  17.164
   19ARHM    O4 4042   4.990   5.540  17.052
   19ARHM   HO4 4043   5.016   5.567  16.964
   19ARHM    C6 4044   4.748   5.407  16.968
   19ARHM   H61 4045   4.690   5.358  16.887
   19ARHM   H62 4046   4.693   5.395  17.062
   19ARHM   H63 4047   4.753   5.516  16.949
   20ARHM    C1 4048   5.090   5.011  17.206
   20ARHM    H1 4049   5.139   4.959  17.122
   20ARHM    C5 4050   4.909   4.988  17.334
   20ARHM    H5 4051   4.877   5.095  17.320
   20ARHM    O5 4052   4.973   4.942  17.219
   20ARHM    C2 4053   5.169   4.996  17.332
   20ARHM    H2 4054   5.257   5.063  17.321
   20ARHM    O2 4055   5.206   4.860  17.352
   20ARHM    C3 4056   5.094   5.043  17.451
   20ARHM    H3 4057   5.060   5.149  17.434
   20ARHM    O3 4058   5.176   5.034  17.566
   20ARHM    C4 4059   4.973   4.963  17.466
   20ARHM    H4 4060   4.988   4.852  17.470
   20ARHM    O4 4061   4.891   4.996  17.577
   20ARHM   HO4 4062   4.800   4.982  17.549
   20ARHM    C6 4063   4.795   4.923  17.323
   20ARHM   H61 4064   4.791   4.811  17.335
   20ARHM   H62 4065   4.734   4.976  17.402
   20ARHM   H63 4066   4.750   4.952  17.225
   21BMANN   C1 4067   5.319   4.832  17.277
   21BMANN   H1 4068   5.340   4.917  17.208
   21BMANN   C5 4069   5.417   4.711  17.101
   21BMANN   H5 4070   5.433   4.807  17.045
   21BMANN   O5 4071   5.302   4.723  17.186
   21BMANN   C2 4072   5.436   4.810  17.371
   21BMANN   H2 4073   5.445   4.906  17.429
   21BMANN    N 4074   5.421   4.699  17.465
   21BMANN   HN 4075   5.380   4.617  17.424
   21BMANN    C 4076   5.461   4.699  17.594
   21BMANN    O 4077   5.532   4.788  17.640
   21BMANN   CT 4078   5.415   4.586  17.682
   21BMANN  HT1 4079   5.476   4.495  17.666
   21BMANN  HT2 4080   5.307   4.566  17.666
   21BMANN  HT3 4081   5.423   4.616  17.789
   21BMANN   C3 4082   5.557   4.799  17.282
   21BMANN   H3 4083   5.565   4.896  17.228
   21BMANN   O3 4084   5.675   4.785  17.358
   21BMANN  HO3 4085   5.667   4.709  17.415
   21BMANN   C4 4086   5.540   4.686  17.182
   21BMANN   H4 4087   5.523   4.591  17.235
   21BMANN   O4 4088   5.651   4.669  17.093
   21BMANN  HO4 4089   5.698   4.586  17.110
   21BMANN   C6 4090   5.395   4.604  16.998
   21BMANN  H61 4091   5.471   4.615  16.917
   21BMANN  H62 4092   5.411   4.504  17.044
   21BMANN   O6 4093   5.265   4.616  16.942
   21BMANN  HO6 4094   5.203   4.591  17.012
   22BGLCN   C1 4095   5.156   5.134  17.661
   22BGLCN   H1 4096   5.053   5.176  17.660
   22BGLCN   C5 4097   5.239   5.338  17.746
   22BGLCN   H5 4098   5.134   5.375  17.747
   22BGLCN   O5 4099   5.251   5.239  17.643
   22BGLCN   C2 4100   5.183   5.065  17.791
   22BGLCN   H2 4101   5.287   5.024  17.786
   22BGLCN    N 4102   5.089   4.957  17.809
   22BGLCN   HN 4103   4.996   4.972  17.775
   22BGLCN    C 4104   5.117   4.843  17.871
   22BGLCN    O 4105   5.225   4.816  17.922
   22BGLCN   CT 4106   5.003   4.744  17.876
   22BGLCN  HT1 4107   5.016   4.675  17.790
   22BGLCN  HT2 4108   4.907   4.797  17.864
   22BGLCN  HT3 4109   5.002   4.688  17.972
   22BGLCN   C3 4110   5.171   5.164  17.905
   22BGLCN   H3 4111   5.069   5.208  17.902
   22BGLCN   O3 4112   5.188   5.089  18.026
   22BGLCN   C4 4113   5.270   5.274  17.882
   22BGLCN   H4 4114   5.372   5.229  17.878
   22BGLCN   O4 4115   5.270   5.371  17.987
   22BGLCN  HO4 4116   5.359   5.398  18.009
   22BGLCN   C6 4117   5.334   5.449  17.713
   22BGLCN  H61 4118   5.350   5.508  17.805
   22BGLCN  H62 4119   5.433   5.409  17.681
   22BGLCN   O6 4120   5.283   5.540  17.617
   22BGLCN  HO6 4121   5.258   5.493  17.535
   23AGAL    C1 4122   5.141   5.142  18.146
   23AGAL    H1 4123   5.210   5.221  18.181
   23AGAL    C5 4124   4.911   5.100  18.108
   23AGAL    H5 4125   4.938   5.043  18.016
   23AGAL    O5 4126   5.012   5.200  18.134
   23AGAL    C2 4127   5.138   5.037  18.255
   23AGAL    H2 4128   5.103   5.090  18.347
   23AGAL    O2 4129   5.269   4.982  18.280
   23AGAL    C3 4130   5.032   4.932  18.224
   23AGAL    H3 4131   5.050   4.892  18.123
   23AGAL    O3 4132   5.039   4.820  18.312
   23AGAL   HO3 4133   5.046   4.853  18.401
   23AGAL    C4 4134   4.897   4.999  18.222
   23AGAL    H4 4135   4.814   4.928  18.198
   23AGAL    O4 4136   4.864   5.060  18.346
   23AGAL   HO4 4137   4.804   5.134  18.323
   23AGAL    C6 4138   4.792   5.175  18.071
   23AGAL   H61 4139   4.812   5.253  17.995
   23AGAL   H62 4140   4.716   5.108  18.024
   23AGAL    O6 4141   4.745   5.238  18.188
   23AGAL   HO6 4142   4.659   5.280  18.169
   24ARHM    C1 4143   5.357   5.054  18.365
   24ARHM    H1 4144   5.321   5.159  18.375
   24ARHM    C5 4145   5.555   4.933  18.300
   24ARHM    H5 4146   5.490   4.875  18.230
   24ARHM    O5 4147   5.493   5.062  18.317
   24ARHM    C2 4148   5.354   4.982  18.497
   24ARHM    H2 4149   5.248   4.969  18.529
   24ARHM    O2 4150   5.430   5.052  18.597
   24ARHM    C3 4151   5.414   4.844  18.479
   24ARHM    H3 4152   5.355   4.792  18.400
   24ARHM    O3 4153   5.401   4.766  18.598
   24ARHM   HO3 4154   5.479   4.781  18.653
   24ARHM    C4 4155   5.558   4.859  18.432
   24ARHM    H4 4156   5.614   4.921  18.506
   24ARHM    O4 4157   5.626   4.733  18.418
   24ARHM   HO4 4158   5.720   4.741  18.439
   24ARHM    C6 4159   5.693   4.948  18.231
   24ARHM   H61 4160   5.716   4.853  18.177
   24ARHM   H62 4161   5.689   5.030  18.156
   24ARHM   H63 4162   5.773   4.971  18.303
   25ARHM    C1 4163   5.364   5.164  18.651
   25ARHM    H1 4164   5.283   5.195  18.582
   25ARHM    C5 4165   5.553   5.261  18.758
   25ARHM    H5 4166   5.611   5.174  18.725
   25ARHM    O5 4167   5.447   5.280  18.664
   25ARHM    C2 4168   5.305   5.124  18.782
   25ARHM    H2 4169   5.251   5.027  18.772
   25ARHM    O2 4170   5.214   5.226  18.825
   25ARHM    C3 4171   5.416   5.101  18.881
   25ARHM    H3 4172   5.483   5.020  18.845
   25ARHM    O3 4173   5.356   5.068  19.007
   25ARHM    C4 4174   5.498   5.225  18.894
   25ARHM    H4 4175   5.433   5.307  18.928
   25ARHM    O4 4176   5.600   5.204  18.991
   25ARHM   HO4 4177   5.609   5.287  19.038
   25ARHM    C6 4178   5.649   5.382  18.756
   25ARHM   H61 4179   5.678   5.409  18.652
   25ARHM   H62 4180   5.602   5.473  18.795
   25ARHM   H63 4181   5.740   5.362  18.815
   26BMANN   C1 4182   5.089   5.222  18.761
   26BMANN   H1 4183   5.068   5.120  18.721
   26BMANN   C5 4184   4.942   5.305  18.595
   26BMANN   H5 4185   4.932   5.202  18.554
   26BMANN   O5 4186   5.071   5.317  18.656
   26BMANN   C2 4187   4.989   5.250  18.867
   26BMANN   H2 4188   5.013   5.173  18.942
   26BMANN    N 4189   5.008   5.382  18.927
   26BMANN   HN 4190   5.007   5.458  18.864
   26BMANN    C 4191   5.019   5.405  19.059
   26BMANN    O 4192   5.028   5.314  19.139
   26BMANN   CT 4193   5.016   5.549  19.103
   26BMANN  HT1 4194   5.048   5.616  19.021
   26BMANN  HT2 4195   5.073   5.567  19.195
   26BMANN  HT3 4196   4.911   5.572  19.129
   26BMANN   C3 4197   4.851   5.229  18.811
   26BMANN   H3 4198   4.842   5.125  18.770
   26BMANN   O3 4199   4.757   5.241  18.917
   26BMANN  HO3 4200   4.749   5.154  18.960
   26BMANN   C4 4201   4.832   5.327  18.697
   26BMANN   H4 4202   4.839   5.431  18.734
   26BMANN   O4 4203   4.707   5.313  18.634
   26BMANN  HO4 4204   4.641   5.354  18.690
   26BMANN   C6 4205   4.941   5.400  18.476
   26BMANN  H61 4206   5.041   5.398  18.427
   26BMANN  H62 4207   4.866   5.366  18.400
   26BMANN   O6 4208   4.910   5.535  18.513
   26BMANN  HO6 4209   4.820   5.531  18.546
   27BGLCN   C1 4210   5.419   4.969  19.083
   27BGLCN   H1 4211   5.530   4.975  19.079
   27BGLCN   C5 4212   5.434   4.738  19.128
   27BGLCN   H5 4213   5.545   4.753  19.131
   27BGLCN   O5 4214   5.378   4.838  19.043
   27BGLCN   C2 4215   5.367   4.997  19.223
   27BGLCN   H2 4216   5.256   4.984  19.220
   27BGLCN    N 4217   5.395   5.134  19.265
   27BGLCN   HN 4218   5.485   5.170  19.243
   27BGLCN    C 4219   5.303   5.207  19.331
   27BGLCN    O 4220   5.206   5.156  19.386
   27BGLCN   CT 4221   5.322   5.357  19.338
   27BGLCN  HT1 4222   5.406   5.389  19.273
   27BGLCN  HT2 4223   5.338   5.392  19.442
   27BGLCN  HT3 4224   5.228   5.405  19.303
   27BGLCN   C3 4225   5.422   4.896  19.319
   27BGLCN   H3 4226   5.534   4.902  19.313
   27BGLCN   O3 4227   5.376   4.939  19.449
   27BGLCN   C4 4228   5.382   4.758  19.270
   27BGLCN   H4 4229   5.271   4.748  19.270
   27BGLCN   O4 4230   5.439   4.658  19.353
   27BGLCN  HO4 4231   5.534   4.660  19.342
   27BGLCN   C6 4232   5.410   4.600  19.069
   27BGLCN  H61 4233   5.471   4.526  19.124
   27BGLCN  H62 4234   5.303   4.571  19.080
   27BGLCN   O6 4235   5.452   4.595  18.932
   27BGLCN  HO6 4236   5.422   4.514  18.889
   28AGAL    C1 4237   5.440   4.884  19.561
   28AGAL    H1 4238   5.412   4.777  19.568
   28AGAL    C5 4239   5.630   5.031  19.549
   28AGAL    H5 4240   5.569   5.094  19.479
   28AGAL    O5 4241   5.583   4.894  19.543
   28AGAL    C2 4242   5.405   4.948  19.698
   28AGAL    H2 4243   5.469   4.887  19.767
   28AGAL    O2 4244   5.271   4.934  19.747
   28AGAL    C3 4245   5.454   5.092  19.705
   28AGAL    H3 4246   5.407   5.147  19.620
   28AGAL    O3 4247   5.420   5.166  19.822
   28AGAL   HO3 4248   5.359   5.237  19.796
   28AGAL    C4 4249   5.602   5.090  19.685
   28AGAL    H4 4250   5.637   5.196  19.685
   28AGAL    O4 4251   5.672   5.021  19.787
   28AGAL   HO4 4252   5.710   5.087  19.844
   28AGAL    C6 4253   5.774   5.044  19.501
   28AGAL   H61 4254   5.777   5.019  19.393
   28AGAL   H62 4255   5.812   5.149  19.512
   28AGAL    O6 4256   5.867   4.961  19.571
   28AGAL   HO6 4257   5.865   4.872  19.535
   29ARHM    C1 4258   5.274   4.903  19.885
   29ARHM    H1 4259   5.366   4.941  19.933
   29ARHM    C5 4260   5.147   4.705  19.851
   29ARHM    H5 4261   5.143   4.732  19.742
   29ARHM    O5 4262   5.267   4.761  19.907
   29ARHM    C2 4263   5.158   4.969  19.953
   29ARHM    H2 4264   5.162   5.078  19.929
   29ARHM    O2 4265   5.166   4.949  20.097
   29ARHM    C3 4266   5.030   4.914  19.897
   29ARHM    H3 4267   5.026   4.933  19.787
   29ARHM    O3 4268   4.922   4.984  19.954
   29ARHM   HO3 4269   4.851   4.919  19.963
   29ARHM    C4 4270   5.022   4.763  19.918
   29ARHM    H4 4271   5.025   4.740  20.027
   29ARHM    O4 4272   4.900   4.706  19.869
   29ARHM   HO4 4273   4.880   4.733  19.779
   29ARHM    C6 4274   5.171   4.554  19.859
   29ARHM   H61 4275   5.270   4.532  19.813
   29ARHM   H62 4276   5.169   4.518  19.964
   29ARHM   H63 4277   5.093   4.500  19.800
   30ARHM    C1 4278   5.223   5.053  20.173
   30ARHM    H1 4279   5.169   5.149  20.153
   30ARHM    C5 4280   5.440   4.953  20.185
   30ARHM    H5 4281   5.396   4.869  20.127
   30ARHM    O5 4282   5.365   5.071  20.151
   30ARHM    C2 4283   5.203   5.018  20.318
   30ARHM    H2 4284   5.096   5.000  20.339
   30ARHM    O2 4285   5.254   5.125  20.397
   30ARHM    C3 4286   5.280   4.894  20.359
   30ARHM    H3 4287   5.248   4.814  20.288
   30ARHM    O3 4288   5.244   4.848  20.491
   30ARHM    C4 4289   5.426   4.919  20.332
   30ARHM    H4 4290   5.465   5.006  20.391
   30ARHM    O4 4291   5.509   4.811  20.370
   30ARHM   HO4 4292   5.512   4.741  20.303
   30ARHM    C6 4293   5.586   4.971  20.142
   30ARHM   H61 4294   5.640   4.875  20.159
   30ARHM   H62 4295   5.590   4.992  20.033
   30ARHM   H63 4296   5.636   5.051  20.200
   31BMANN   C1 4297   5.163   5.226  20.425
   31BMANN   H1 4298   5.065   5.181  20.452
   31BMANN   C5 4299   5.067   5.432  20.356
   31BMANN   H5 4300   4.981   5.374  20.389
   31BMANN   O5 4301   5.156   5.324  20.321
   31BMANN   C2 4302   5.220   5.294  20.545
   31BMANN   H2 4303   5.221   5.218  20.628
   31BMANN    N 4304   5.357   5.334  20.518
   31BMANN   HN 4305   5.382   5.343  20.422
   31BMANN    C 4306   5.448   5.345  20.615
   31BMANN    O 4307   5.421   5.318  20.731
   31BMANN   CT 4308   5.585   5.389  20.570
   31BMANN  HT1 4309   5.574   5.468  20.494
   31BMANN  HT2 4310   5.640   5.302  20.528
   31BMANN  HT3 4311   5.644   5.428  20.656
   31BMANN   C3 4312   5.126   5.404  20.587
   31BMANN   H3 4313   5.025   5.361  20.603
   31BMANN   O3 4314   5.161   5.457  20.712
   31BMANN  HO3 4315   5.228   5.397  20.750
   31BMANN   C4 4316   5.114   5.508  20.477
   31BMANN   H4 4317   5.213   5.553  20.450
   31BMANN   O4 4318   5.024   5.614  20.512
   31BMANN  HO4 4319   4.946   5.578  20.555
   31BMANN   C6 4320   5.028   5.523  20.240
   31BMANN  H61 4321   4.940   5.586  20.267
   31BMANN  H62 4322   5.113   5.592  20.222
   31BMANN   O6 4323   5.002   5.454  20.118
   31BMANN  HO6 4324   4.917   5.410  20.119
   32BGLCN   C1 4325   5.309   4.912  20.598
   32BGLCN   H1 4326   5.322   5.020  20.577
   32BGLCN   C5 4327   5.506   4.933  20.728
   32BGLCN   H5 4328   5.513   5.040  20.695
   32BGLCN   O5 4329   5.438   4.858  20.627
   32BGLCN   C2 4330   5.224   4.901  20.722
   32BGLCN   H2 4331   5.227   4.793  20.751
   32BGLCN    N 4332   5.088   4.939  20.694
   32BGLCN   HN 4333   5.082   5.009  20.624
   32BGLCN    C 4334   4.977   4.884  20.746
   32BGLCN    O 4335   4.976   4.794  20.829
   32BGLCN   CT 4336   4.849   4.942  20.691
   32BGLCN  HT1 4337   4.875   4.996  20.598
   32BGLCN  HT2 4338   4.800   5.013  20.761
   32BGLCN  HT3 4339   4.777   4.861  20.667
   32BGLCN   C3 4340   5.289   4.986  20.829
   32BGLCN   H3 4341   5.305   5.087  20.784
   32BGLCN   O3 4342   5.209   5.002  20.946
   32BGLCN   C4 4343   5.424   4.926  20.856
   32BGLCN   H4 4344   5.408   4.820  20.885
   32BGLCN   O4 4345   5.493   4.988  20.962
   32BGLCN  HO4 4346   5.465   4.954  21.048
   32BGLCN   C6 4347   5.647   4.880  20.737
   32BGLCN  H61 4348   5.706   4.934  20.811
   32BGLCN  H62 4349   5.650   4.778  20.775
   32BGLCN   O6 4350   5.718   4.882  20.615
   32BGLCN  HO6 4351   5.689   4.955  20.558
   33AGAL    C1 4352   5.218   5.131  21.004
   33AGAL    H1 4353   5.322   5.168  20.997
   33AGAL    C5 4354   4.991   5.193  20.957
   33AGAL    H5 4355   4.984   5.088  20.920
   33AGAL    O5 4356   5.130   5.227  20.941
   33AGAL    C2 4357   5.178   5.123  21.151
   33AGAL    H2 4358   5.180   5.227  21.189
   33AGAL    O2 4359   5.281   5.053  21.223
   33AGAL    C3 4360   5.033   5.077  21.167
   33AGAL    H3 4361   5.016   4.983  21.109
   33AGAL    O3 4362   4.997   5.041  21.300
   33AGAL   HO3 4363   5.013   5.116  21.359
   33AGAL    C4 4364   4.944   5.184  21.102
   33AGAL    H4 4365   4.838   5.149  21.103
   33AGAL    O4 4366   4.940   5.311  21.168
   33AGAL   HO4 4367   5.015   5.329  21.225
   33AGAL    C6 4368   4.902   5.273  20.863
   33AGAL   H61 4369   4.935   5.247  20.760
   33AGAL   H62 4370   4.796   5.243  20.874
   33AGAL    O6 4371   4.907   5.415  20.877
   33AGAL   HO6 4372   4.979   5.456  20.826
   34ARHM    C1 4373   5.325   5.116  21.342
   34ARHM    H1 4374   5.235   5.144  21.401
   34ARHM    C5 4375   5.521   5.220  21.243
   34ARHM    H5 4376   5.493   5.183  21.143
   34ARHM    O5 4377   5.401   5.238  21.321
   34ARHM    C2 4378   5.409   5.015  21.418
   34ARHM    H2 4379   5.353   4.918  21.422
   34ARHM    O2 4380   5.441   5.056  21.554
   34ARHM    C3 4381   5.536   4.990  21.337
   34ARHM    H3 4382   5.508   4.952  21.236
   34ARHM    O3 4383   5.621   4.892  21.398
   34ARHM   HO3 4384   5.665   4.837  21.333
   34ARHM    C4 4385   5.611   5.120  21.316
   34ARHM    H4 4386   5.635   5.166  21.415
   34ARHM    O4 4387   5.734   5.094  21.247
   34ARHM   HO4 4388   5.797   5.056  21.309
   34ARHM    C6 4389   5.598   5.354  21.220
   34ARHM   H61 4390   5.627   5.404  21.314
   34ARHM   H62 4391   5.693   5.332  21.168
   34ARHM   H63 4392   5.543   5.426  21.155
   35ARHM    C1 4393   5.333   5.084  21.642
   35ARHM    H1 4394   5.248   5.014  21.623
   35ARHM    C5 4395   5.396   5.316  21.657
   35ARHM    H5 4396   5.481   5.300  21.587
   35ARHM    O5 4397   5.291   5.221  21.630
   35ARHM    C2 4398   5.379   5.064  21.787
   35ARHM    H2 4399   5.413   4.958  21.801
   35ARHM    O2 4400   5.273   5.090  21.881
   35ARHM    C3 4401   5.494   5.155  21.819
   35ARHM    H3 4402   5.578   5.136  21.748
   35ARHM    O3 4403   5.547   5.129  21.950
   35ARHM   HO3 4404   5.474   5.109  22.010
   35ARHM    C4 4405   5.447   5.299  21.801
   35ARHM    H4 4406   5.362   5.322  21.870
   35ARHM    O4 4407   5.551   5.390  21.831
   35ARHM   HO4 4408   5.636   5.357  21.799
   35ARHM    C6 4409   5.343   5.458  21.623
   35ARHM   H61 4410   5.323   5.469  21.514
   35ARHM   H62 4411   5.250   5.478  21.679
   35ARHM   H63 4412   5.420   5.534  21.647
   36BMANN   C1 4413   5.173   4.991  21.884
   36BMANN   H1 4414   5.212   4.894  21.849
   36BMANN   C5 4415   4.963   4.917  21.808
   36BMANN   H5 4416   5.012   4.820  21.779
   36BMANN   O5 4417   5.061   5.022  21.802
   36BMANN   C2 4418   5.127   4.982  22.027
   36BMANN   H2 4419   5.218   4.951  22.084
   36BMANN    N 4420   5.077   5.107  22.085
   36BMANN   HN 4421   5.024   5.168  22.025
   36BMANN    C 4422   5.089   5.131  22.218
   36BMANN    O 4423   5.156   5.060  22.292
   36BMANN   CT 4424   5.015   5.248  22.274
   36BMANN  HT1 4425   4.924   5.260  22.217
   36BMANN  HT2 4426   5.055   5.345  22.255
   36BMANN  HT3 4427   5.000   5.243  22.384
   36BMANN   C3 4428   5.027   4.869  22.037
   36BMANN   H3 4429   5.073   4.774  22.001
   36BMANN   O3 4430   4.987   4.850  22.172
   36BMANN  HO3 4431   4.999   4.761  22.205
   36BMANN   C4 4432   4.909   4.899  21.949
   36BMANN   H4 4433   4.858   4.992  21.982
   36BMANN   O4 4434   4.810   4.798  21.959
   36BMANN  HO4 4435   4.794   4.792  22.055
   36BMANN   C6 4436   4.857   4.942  21.707
   36BMANN  H61 4437   4.895   4.953  21.604
   36BMANN  H62 4438   4.806   4.848  21.697
   36BMANN   O6 4439   4.767   5.048  21.744
   36BMANN  HO6 4440   4.695   5.015  21.799
    1ECLIP HB6S 4441   2.533   4.543  11.779
    1ECLIP  OB6 4442   2.649   4.652  11.908
    1ECLIP  CB6 4443   2.548   4.650  11.806
    1ECLIP HB6R 4444   2.451   4.688  11.847
    1ECLIP  CB5 4445   2.579   4.729  11.680
    1ECLIP  OB5 4446   2.705   4.680  11.632
    1ECLIP  HB5 4447   2.586   4.836  11.710
    1ECLIP  CB1 4448   2.749   4.750  11.515
    1ECLIP  HB1 4449   2.756   4.860  11.533
    1ECLIP  OA6 4450   2.876   4.708  11.468
    1ECLIP  CA6 4451   2.907   4.570  11.492
    1ECLIP HA6R 4452   2.816   4.509  11.511
    1ECLIP HA6S 4453   2.975   4.565  11.581
    1ECLIP  CB4 4454   2.472   4.715  11.569
    1ECLIP  HB4 4455   2.456   4.608  11.541
    1ECLIP  OB4 4456   2.354   4.779  11.620
    1ECLIP   PB 4457   2.225   4.687  11.668
    1ECLIP OPB4 4458   2.158   4.757  11.786
    1ECLIP OPB3 4459   2.288   4.551  11.703
    1ECLIP OPB2 4460   2.134   4.684  11.546
    1ECLIP  CB3 4461   2.518   4.788  11.445
    1ECLIP  OB3 4462   2.433   4.773  11.331
    1ECLIP  HB3 4463   2.537   4.895  11.470
    1ECLIP  C71 4464   2.333   4.859  11.313
    1ECLIP  O71 4465   2.330   4.971  11.361
    1ECLIP  C72 4466   2.271   4.829  11.174
    1ECLIP H72R 4467   2.349   4.830  11.096
    1ECLIP H72S 4468   2.195   4.907  11.153
    1ECLIP  CB2 4469   2.652   4.730  11.403
    1ECLIP  HB2 4470   2.638   4.620  11.387
    1ECLIP  NB2 4471   2.700   4.796  11.281
    1ECLIP HNB2 4472   2.756   4.877  11.294
    1ECLIP  CA4 4473   3.082   4.608  11.316
    1ECLIP  HA4 4474   3.030   4.703  11.289
    1ECLIP  OA4 4475   3.177   4.629  11.420
    1ECLIP HOA4 4476   3.127   4.662  11.496
    1ECLIP  CA5 4477   2.977   4.514  11.370
    1ECLIP  HA5 4478   3.017   4.413  11.392
    1ECLIP  OA5 4479   2.876   4.499  11.271
    1ECLIP  CA1 4480   2.926   4.445  11.147
    1ECLIP  HA1 4481   2.840   4.460  11.079
    1ECLIP  OA1 4482   2.957   4.307  11.149
    1ECLIP OPA2 4483   2.908   4.156  11.344
    1ECLIP OPA3 4484   2.713   4.268  11.232
    1ECLIP OPA4 4485   2.840   4.090  11.101
    1ECLIP   PA 4486   2.847   4.198  11.209
    1ECLIP  CA3 4487   3.145   4.556  11.188
    1ECLIP  HA3 4488   3.198   4.460  11.208
    1ECLIP  OA3 4489   3.245   4.655  11.156
    1ECLIP  C31 4490   3.204   4.764  11.087
    1ECLIP  O31 4491   3.198   4.766  10.966
    1ECLIP  C32 4492   3.243   4.890  11.166
    1ECLIP H32R 4493   3.322   4.942  11.108
    1ECLIP H32S 4494   3.281   4.862  11.265
    1ECLIP  CA2 4495   3.033   4.536  11.087
    1ECLIP  HA2 4496   2.982   4.633  11.070
    1ECLIP  NA2 4497   3.083   4.484  10.959
    1ECLIP HNA2 4498   3.181   4.485  10.948
    1ECLIP  C73 4499   2.204   4.689  11.171
    1ECLIP H73R 4500   2.143   4.678  11.265
    1ECLIP  O73 4501   2.311   4.595  11.163
    1ECLIP  C81 4502   2.301   4.480  11.229
    1ECLIP  O81 4503   2.203   4.444  11.292
    1ECLIP  C82 4504   2.404   4.382  11.170
    1ECLIP H82R 4505   2.395   4.284  11.222
    1ECLIP H82S 4506   2.505   4.420  11.191
    1ECLIP  C83 4507   2.390   4.361  11.017
    1ECLIP H83R 4508   2.440   4.446  10.965
    1ECLIP H83S 4509   2.282   4.362  10.990
    1ECLIP  C84 4510   2.458   4.233  10.965
    1ECLIP H84R 4511   2.403   4.142  10.996
    1ECLIP H84S 4512   2.560   4.231  11.013
    1ECLIP  C85 4513   2.480   4.235  10.813
    1ECLIP H85R 4514   2.515   4.339  10.791
    1ECLIP H85S 4515   2.384   4.222  10.760
    1ECLIP  C86 4516   2.592   4.140  10.765
    1ECLIP H86R 4517   2.551   4.041  10.736
    1ECLIP H86S 4518   2.663   4.121  10.849
    1ECLIP  C87 4519   2.678   4.202  10.652
    1ECLIP H87R 4520   2.751   4.127  10.616
    1ECLIP H87S 4521   2.737   4.286  10.694
    1ECLIP  C88 4522   2.593   4.259  10.538
    1ECLIP H88R 4523   2.549   4.355  10.571
    1ECLIP H88S 4524   2.505   4.191  10.524
    1ECLIP  C89 4525   2.672   4.281  10.408
    1ECLIP H89R 4526   2.781   4.288  10.426
    1ECLIP H89S 4527   2.643   4.378  10.362
    1ECLIP C810 4528   2.638   4.171  10.306
    1ECLIPH810R 4529   2.535   4.138  10.329
    1ECLIPH810S 4530   2.708   4.086  10.323
    1ECLIP C811 4531   2.645   4.218  10.160
    1ECLIPH811R 4532   2.657   4.132  10.090
    1ECLIPH811S 4533   2.734   4.284  10.153
    1ECLIP C812 4534   2.527   4.302  10.110
    1ECLIPH812R 4535   2.554   4.338  10.008
    1ECLIPH812S 4536   2.512   4.389  10.177
    1ECLIP C813 4537   2.392   4.229  10.100
    1ECLIPH813R 4538   2.404   4.145  10.029
    1ECLIPH813S 4539   2.361   4.188  10.199
    1ECLIP C814 4540   2.280   4.321  10.049
    1ECLIPH814R 4541   2.311   4.377   9.958
    1ECLIPH814S 4542   2.253   4.394  10.128
    1ECLIPH814T 4543   2.191   4.261  10.025
    1ECLIP  C74 4544   2.113   4.663  11.049
    1ECLIP H74R 4545   2.026   4.731  11.040
    1ECLIP H74S 4546   2.070   4.561  11.068
    1ECLIP  C75 4547   2.188   4.654  10.914
    1ECLIP H75R 4548   2.140   4.573  10.855
    1ECLIP H75S 4549   2.293   4.621  10.933
    1ECLIP  C76 4550   2.192   4.783  10.831
    1ECLIP H76R 4551   2.269   4.851  10.874
    1ECLIP H76S 4552   2.095   4.836  10.835
    1ECLIP  C77 4553   2.225   4.762  10.682
    1ECLIP H77R 4554   2.143   4.704  10.635
    1ECLIP H77S 4555   2.316   4.702  10.667
    1ECLIP  C78 4556   2.251   4.899  10.616
    1ECLIP H78R 4557   2.166   4.966  10.643
    1ECLIP H78S 4558   2.339   4.941  10.669
    1ECLIP  C79 4559   2.284   4.903  10.466
    1ECLIP H79R 4560   2.395   4.902  10.454
    1ECLIP H79S 4561   2.246   4.997  10.420
    1ECLIP C710 4562   2.224   4.791  10.381
    1ECLIPH710R 4563   2.252   4.692  10.423
    1ECLIPH710S 4564   2.114   4.800  10.385
    1ECLIP C711 4565   2.268   4.794  10.235
    1ECLIPH711R 4566   2.238   4.892  10.190
    1ECLIPH711S 4567   2.378   4.782  10.228
    1ECLIP C712 4568   2.202   4.679  10.159
    1ECLIPH712R 4569   2.092   4.693  10.162
    1ECLIPH712S 4570   2.224   4.587  10.218
    1ECLIP C713 4571   2.252   4.661  10.015
    1ECLIPH713R 4572   2.362   4.640  10.020
    1ECLIPH713S 4573   2.202   4.574   9.968
    1ECLIP C714 4574   2.225   4.781   9.924
    1ECLIPH714R 4575   2.116   4.799   9.916
    1ECLIPH714S 4576   2.277   4.873   9.959
    1ECLIPH714T 4577   2.263   4.757   9.822
    1ECLIP  C51 4578   2.665   4.752  11.160
    1ECLIP  O51 4579   2.615   4.642  11.144
    1ECLIP  C52 4580   2.685   4.843  11.042
    1ECLIP H52R 4581   2.596   4.909  11.030
    1ECLIP H52S 4582   2.772   4.906  11.062
    1ECLIP  C53 4583   2.708   4.763  10.912
    1ECLIP H53R 4584   2.765   4.670  10.935
    1ECLIP  O53 4585   2.777   4.850  10.821
    1ECLIP  C61 4586   2.903   4.821  10.788
    1ECLIP  O61 4587   2.965   4.724  10.822
    1ECLIP  C62 4588   2.958   4.930  10.695
    1ECLIP H62R 4589   2.993   5.015  10.758
    1ECLIP H62S 4590   2.872   4.967  10.637
    1ECLIP  C63 4591   3.075   4.877  10.607
    1ECLIP H63R 4592   3.043   4.779  10.564
    1ECLIP H63S 4593   3.166   4.859  10.669
    1ECLIP  C64 4594   3.115   4.965  10.487
    1ECLIP H64R 4595   3.203   4.921  10.435
    1ECLIP H64S 4596   3.143   5.065  10.528
    1ECLIP  C65 4597   2.998   4.978  10.390
    1ECLIP H65R 4598   2.919   5.029  10.450
    1ECLIP H65S 4599   2.960   4.879  10.360
    1ECLIP  C66 4600   3.017   5.059  10.262
    1ECLIP H66R 4601   3.063   5.157  10.280
    1ECLIP H66S 4602   2.917   5.071  10.215
    1ECLIP  C67 4603   3.111   5.007  10.157
    1ECLIP H67R 4604   3.214   4.988  10.194
    1ECLIP H67S 4605   3.116   5.091  10.083
    1ECLIP  C68 4606   3.059   4.878  10.102
    1ECLIP H68R 4607   2.957   4.886  10.055
    1ECLIP H68S 4608   3.065   4.801  10.180
    1ECLIP  C69 4609   3.151   4.832   9.998
    1ECLIP H69R 4610   3.256   4.862  10.010
    1ECLIP H69S 4611   3.098   4.885   9.923
    1ECLIP C610 4612   3.153   4.696   9.953
    1ECLIPH610R 4613   3.049   4.657   9.954
    1ECLIPH610S 4614   3.223   4.642  10.018
    1ECLIP C611 4615   3.214   4.689   9.819
    1ECLIPH611R 4616   3.318   4.713   9.815
    1ECLIPH611S 4617   3.195   4.588   9.776
    1ECLIP C612 4618   3.194   4.777   9.712
    1ECLIPH612R 4619   3.103   4.757   9.694
    1ECLIPH612S 4620   3.100   4.821   9.679
    1ECLIPH612T 4621   3.243   4.749   9.621
    1ECLIP  C54 4622   2.569   4.727  10.853
    1ECLIP H54R 4623   2.520   4.823  10.824
    1ECLIP H54S 4624   2.509   4.681  10.934
    1ECLIP  C55 4625   2.568   4.631  10.733
    1ECLIP H55R 4626   2.466   4.590  10.719
    1ECLIP H55S 4627   2.633   4.544  10.756
    1ECLIP  C56 4628   2.608   4.707  10.605
    1ECLIP H56R 4629   2.707   4.753  10.622
    1ECLIP H56S 4630   2.536   4.789  10.587
    1ECLIP  C57 4631   2.625   4.626  10.477
    1ECLIP H57R 4632   2.534   4.566  10.454
    1ECLIP H57S 4633   2.709   4.555  10.491
    1ECLIP  C58 4634   2.660   4.722  10.361
    1ECLIP H58R 4635   2.592   4.810  10.358
    1ECLIP H58S 4636   2.761   4.764  10.382
    1ECLIP  C59 4637   2.655   4.651  10.224
    1ECLIP H59R 4638   2.554   4.606  10.208
    1ECLIP H59S 4639   2.728   4.568  10.232
    1ECLIP C510 4640   2.677   4.744  10.102
    1ECLIPH510R 4641   2.764   4.811  10.119
    1ECLIPH510S 4642   2.587   4.808  10.088
    1ECLIP C511 4643   2.699   4.668   9.970
    1ECLIPH511R 4644   2.805   4.637   9.965
    1ECLIPH511S 4645   2.633   4.579   9.961
    1ECLIP C512 4646   2.671   4.752   9.849
    1ECLIPH512R 4647   2.663   4.688   9.756
    1ECLIPH512S 4648   2.578   4.814   9.853
    1ECLIP C513 4649   2.782   4.845   9.820
    1ECLIPH513R 4650   2.883   4.803   9.806
    1ECLIPH513S 4651   2.803   4.926   9.890
    1ECLIP C514 4652   2.722   4.879   9.689
    1ECLIPH514R 4653   2.668   4.977   9.689
    1ECLIPH514S 4654   2.781   4.933   9.623
    1ECLIPH514T 4655   2.775   4.819   9.611
    1ECLIP  C33 4656   3.128   4.991  11.182
    1ECLIP H33R 4657   3.170   5.088  11.220
    1ECLIP  O33 4658   3.038   4.946  11.282
    1ECLIP HO33 4659   3.070   4.958  11.373
    1ECLIP  C34 4660   3.050   5.016  11.053
    1ECLIP H34R 4661   3.002   4.927  11.012
    1ECLIP H34S 4662   3.115   5.064  10.975
    1ECLIP  C35 4663   2.930   5.099  11.084
    1ECLIP H35R 4664   2.981   5.187  11.115
    1ECLIP H35S 4665   2.871   5.075  11.173
    1ECLIP  C36 4666   2.833   5.124  10.975
    1ECLIP H36R 4667   2.839   5.052  10.896
    1ECLIP H36S 4668   2.876   5.203  10.931
    1ECLIP  C37 4669   2.702   5.192  10.998
    1ECLIP H37R 4670   2.699   5.306  10.994
    1ECLIP H37S 4671   2.664   5.162  11.097
    1ECLIP  C38 4672   2.612   5.147  10.890
    1ECLIP H38R 4673   2.573   5.046  10.885
    1ECLIP H38S 4674   2.542   5.212  10.931
    1ECLIP  C39 4675   2.650   5.192  10.756
    1ECLIP H39R 4676   2.748   5.150  10.747
    1ECLIP H39S 4677   2.643   5.307  10.762
    1ECLIP C310 4678   2.588   5.114  10.637
    1ECLIPH310R 4679   2.533   5.193  10.671
    1ECLIPH310S 4680   2.519   5.033  10.643
    1ECLIP C311 4681   2.635   5.130  10.494
    1ECLIPH311R 4682   2.636   5.240  10.513
    1ECLIPH311S 4683   2.721   5.067  10.475
    1ECLIP C312 4684   2.571   5.139  10.356
    1ECLIPH312R 4685   2.477   5.088  10.378
    1ECLIPH312S 4686   2.583   5.252  10.332
    1ECLIP C313 4687   2.633   5.106  10.223
    1ECLIPH313R 4688   2.696   5.193  10.201
    1ECLIPH313S 4689   2.688   5.017  10.251
    1ECLIP C314 4690   2.542   5.073  10.104
    1ECLIPH314R 4691   2.512   5.149  10.031
    1ECLIPH314S 4692   2.594   5.046  10.013
    1ECLIPH314T 4693   2.448   5.023  10.139
    1ECLIP  C11 4694   3.011   4.422  10.862
    1ECLIP  O11 4695   2.890   4.431  10.846
    1ECLIP  C12 4696   3.094   4.336  10.769
    1ECLIP H12R 4697   3.075   4.229  10.792
    1ECLIP H12S 4698   3.201   4.360  10.787
    1ECLIP  C13 4699   3.064   4.363  10.622
    1ECLIP H13R 4700   2.955   4.373  10.601
    1ECLIP  O13 4701   3.113   4.251  10.549
    1ECLIP HO13 4702   3.069   4.234  10.465
    1ECLIP  C14 4703   3.136   4.494  10.580
    1ECLIP H14R 4704   3.234   4.502  10.632
    1ECLIP H14S 4705   3.071   4.577  10.614
    1ECLIP  C15 4706   3.160   4.513  10.431
    1ECLIP H15R 4707   3.217   4.425  10.394
    1ECLIP H15S 4708   3.225   4.602  10.419
    1ECLIP  C16 4709   3.028   4.531  10.355
    1ECLIP H16R 4710   2.992   4.635  10.364
    1ECLIP H16S 4711   2.950   4.467  10.401
    1ECLIP  C17 4712   3.047   4.496  10.209
    1ECLIP H17R 4713   3.142   4.544  10.176
    1ECLIP H17S 4714   2.966   4.539  10.146
    1ECLIP  C18 4715   3.058   4.344  10.190
    1ECLIP H18R 4716   3.140   4.306  10.253
    1ECLIP H18S 4717   2.961   4.296  10.218
    1ECLIP  C19 4718   3.092   4.301  10.051
    1ECLIP H19R 4719   3.113   4.193  10.037
    1ECLIP H19S 4720   3.173   4.363  10.004
    1ECLIP C110 4721   2.968   4.323   9.975
    1ECLIPH110R 4722   2.868   4.289  10.008
    1ECLIPH110S 4723   2.967   4.433   9.982
    1ECLIP C111 4724   2.992   4.259   9.844
    1ECLIPH111R 4725   3.083   4.300   9.804
    1ECLIPH111S 4726   3.001   4.151   9.835
    1ECLIP C112 4727   2.883   4.282   9.753
    1ECLIPH112R 4728   2.795   4.237   9.804
    1ECLIPH112S 4729   2.807   4.366   9.799
    1ECLIP C113 4730   2.949   4.277   9.561
    1ECLIPH113R 4731   2.995   4.368   9.539
    1ECLIPH113S 4732   3.007   4.193   9.552
    1ECLIP C114 4733   2.893   4.236   9.374
    1ECLIPH114R 4734   2.785   4.196   9.366
    1ECLIPH114S 4735   2.846   4.316   9.316
    1ECLIPH114T 4736   2.928   4.226   9.275
    2AKDO    C1 4737   2.599   4.875  11.977
    2AKDO   O11 4738   2.485   4.927  11.977
    2AKDO   O12 4739   2.707   4.932  11.942
    2AKDO    C2 4740   2.612   4.727  12.023
    2AKDO    C6 4741   2.490   4.545  12.123
    2AKDO    H6 4742   2.521   4.488  12.031
    2AKDO    O6 4743   2.487   4.683  12.083
    2AKDO    C3 4744   2.721   4.706  12.129
    2AKDO   H31 4745   2.705   4.774  12.215
    2AKDO   H32 4746   2.819   4.732  12.082
    2AKDO    C4 4747   2.727   4.564  12.174
    2AKDO    H4 4748   2.743   4.499  12.085
    2AKDO    O4 4749   2.828   4.543  12.273
    2AKDO    C5 4750   2.595   4.521  12.233
    2AKDO    H5 4751   2.600   4.410  12.245
    2AKDO    O5 4752   2.579   4.588  12.362
    2AKDO    C7 4753   2.351   4.494  12.152
    2AKDO    H7 4754   2.314   4.545  12.244
    2AKDO    O7 4755   2.357   4.351  12.170
    2AKDO   HO7 4756   2.337   4.316  12.084
    2AKDO    C8 4757   2.256   4.527  12.039
    2AKDO   H81 4758   2.259   4.638  12.022
    2AKDO   H82 4759   2.291   4.479  11.945
    2AKDO    O8 4760   2.120   4.487  12.068
    2AKDO   HO8 4761   2.062   4.550  12.021
    3AKDO    C1 4762   2.978   4.430  12.114
    3AKDO   O11 4763   2.992   4.480  11.998
    3AKDO   O12 4764   2.953   4.309  12.140
    3AKDO    C2 4765   2.964   4.529  12.236
    3AKDO    C6 4766   3.013   4.753  12.315
    3AKDO    H6 4767   2.905   4.773  12.334
    3AKDO    O6 4768   3.028   4.656  12.208
    3AKDO    C3 4769   3.027   4.476  12.368
    3AKDO   H31 4770   3.135   4.457  12.351
    3AKDO   H32 4771   2.982   4.378  12.395
    3AKDO    C4 4772   3.007   4.576  12.480
    3AKDO    H4 4773   2.898   4.601  12.484
    3AKDO    O4 4774   3.046   4.531  12.609
    3AKDO   HO4 4775   2.970   4.534  12.670
    3AKDO    C5 4776   3.079   4.701  12.441
    3AKDO    H5 4777   3.066   4.774  12.524
    3AKDO    O5 4778   3.219   4.682  12.421
    3AKDO   HO5 4779   3.228   4.611  12.356
    3AKDO    C7 4780   3.075   4.882  12.271
    3AKDO    H7 4781   3.183   4.864  12.251
    3AKDO    O7 4782   3.065   4.980  12.376
    3AKDO   HO7 4783   3.114   5.058  12.350
    3AKDO    C8 4784   3.006   4.930  12.147
    3AKDO   H81 4785   3.006   4.852  12.068
    3AKDO   H82 4786   2.901   4.954  12.167
    3AKDO    O8 4787   3.074   5.044  12.097
    3AKDO   HO8 4788   3.153   5.004  12.059
    4AHEP    C1 4789   2.507   4.518  12.462
    4AHEP    H1 4790   2.402   4.525  12.427
    4AHEP    C5 4791   2.658   4.344  12.537
    4AHEP    H5 4792   2.739   4.403  12.488
    4AHEP    O5 4793   2.534   4.377  12.469
    4AHEP    C2 4794   2.502   4.569  12.608
    4AHEP    H2 4795   2.488   4.679  12.605
    4AHEP    O2 4796   2.388   4.515  12.675
    4AHEP   HO2 4797   2.346   4.584  12.727
    4AHEP    C3 4798   2.629   4.540  12.686
    4AHEP    H3 4799   2.717   4.595  12.646
    4AHEP    O3 4800   2.610   4.577  12.825
    4AHEP    C4 4801   2.652   4.390  12.682
    4AHEP    H4 4802   2.570   4.334  12.733
    4AHEP    O4 4803   2.779   4.368  12.743
    4AHEP    P4 4804   2.796   4.283  12.885
    4AHEP  OP42 4805   2.921   4.345  12.948
    4AHEP  OP43 4806   2.818   4.139  12.842
    4AHEP  OP44 4807   2.668   4.304  12.966
    4AHEP    C6 4808   2.688   4.193  12.517
    4AHEP    H6 4809   2.795   4.178  12.546
    4AHEP    O6 4810   2.610   4.104  12.599
    4AHEP   HO6 4811   2.670   4.061  12.663
    4AHEP    C7 4812   2.671   4.148  12.372
    4AHEP   H71 4813   2.723   4.052  12.353
    4AHEP   H72 4814   2.719   4.221  12.304
    4AHEP    O7 4815   2.536   4.132  12.328
    4AHEP   HO7 4816   2.506   4.050  12.370
    5AHEP    C1 4817   2.696   4.671  12.882
    5AHEP    H1 4818   2.797   4.666  12.834
    5AHEP    C5 4819   2.515   4.818  12.932
    5AHEP    H5 4820   2.450   4.735  12.896
    5AHEP    O5 4821   2.643   4.803  12.864
    5AHEP    C2 4822   2.714   4.645  13.032
    5AHEP    H2 4823   2.749   4.540  13.045
    5AHEP    O2 4824   2.817   4.731  13.082
    5AHEP   HO2 4825   2.894   4.678  13.101
    5AHEP    C3 4826   2.583   4.659  13.109
    5AHEP    H3 4827   2.511   4.584  13.068
    5AHEP    O3 4828   2.593   4.641  13.252
    5AHEP    C4 4829   2.530   4.798  13.082
    5AHEP    H4 4830   2.601   4.875  13.121
    5AHEP    O4 4831   2.399   4.806  13.141
    5AHEP    P4 4832   2.372   4.914  13.265
    5AHEP  OP42 4833   2.238   4.870  13.323
    5AHEP  OP43 4834   2.370   5.049  13.195
    5AHEP  OP44 4835   2.484   4.889  13.365
    5AHEP    C6 4836   2.446   4.948  12.891
    5AHEP    H6 4837   2.346   4.954  12.941
    5AHEP    O6 4838   2.518   5.063  12.934
    5AHEP   HO6 4839   2.601   5.078  12.893
    5AHEP    C7 4840   2.422   4.957  12.743
    5AHEP   H71 4841   2.326   5.011  12.728
    5AHEP   H72 4842   2.409   4.856  12.698
    5AHEP    O7 4843   2.523   5.034  12.677
    6AHEP    C1 4844   2.624   4.955  12.618
    6AHEP    H1 4845   2.612   4.848  12.642
    6AHEP    C5 4846   2.631   5.094  12.434
    6AHEP    H5 4847   2.556   5.154  12.489
    6AHEP    O5 4848   2.610   4.961  12.478
    6AHEP    C2 4849   2.765   4.998  12.659
    6AHEP    H2 4850   2.767   4.995  12.770
    6AHEP    O2 4851   2.862   4.910  12.609
    6AHEP   HO2 4852   2.899   4.867  12.686
    6AHEP    C3 4853   2.787   5.137  12.610
    6AHEP    H3 4854   2.693   5.181  12.634
    6AHEP    O3 4855   2.909   5.200  12.660
    6AHEP   HO3 4856   2.907   5.256  12.738
    6AHEP    C4 4857   2.771   5.150  12.464
    6AHEP    H4 4858   2.850   5.102  12.407
    6AHEP    O4 4859   2.773   5.292  12.441
    6AHEP   HO4 4860   2.689   5.334  12.463
    6AHEP    C6 4861   2.601   5.078  12.286
    6AHEP    H6 4862   2.656   5.157  12.236
    6AHEP    O6 4863   2.693   5.020  12.202
    6AHEP   HO6 4864   2.645   5.007  12.119
    6AHEP    C7 4865   2.450   5.063  12.252
    6AHEP   H71 4866   2.417   5.105  12.154
    6AHEP   H72 4867   2.385   5.110  12.330
    6AHEP    O7 4868   2.410   4.930  12.263
    6AHEP   HO7 4869   2.409   4.917  12.357
    7AGLC    C1 4870   2.569   4.511  13.301
    7AGLC    H1 4871   2.480   4.465  13.252
    7AGLC    C5 4872   2.802   4.477  13.346
    7AGLC    H5 4873   2.821   4.583  13.319
    7AGLC    O5 4874   2.684   4.430  13.279
    7AGLC    C2 4875   2.546   4.504  13.453
    7AGLC    H2 4876   2.542   4.396  13.480
    7AGLC    O2 4877   2.420   4.556  13.494
    7AGLC   HO2 4878   2.426   4.654  13.493
    7AGLC    C3 4879   2.660   4.560  13.534
    7AGLC    H3 4880   2.679   4.664  13.497
    7AGLC    O3 4881   2.632   4.567  13.676
    7AGLC    C4 4882   2.779   4.473  13.497
    7AGLC    H4 4883   2.760   4.367  13.529
    7AGLC    O4 4884   2.893   4.524  13.565
    7AGLC   HO4 4885   2.947   4.454  13.604
    7AGLC    C6 4886   2.920   4.400  13.287
    7AGLC   H61 4887   2.919   4.417  13.177
    7AGLC   H62 4888   3.017   4.436  13.326
    7AGLC    O6 4889   2.916   4.259  13.308
    7AGLC   HO6 4890   2.951   4.237  13.394
    8AGLC    C1 4891   2.636   4.699  13.728
    8AGLC    H1 4892   2.724   4.753  13.687
    8AGLC    C5 4893   2.394   4.732  13.758
    8AGLC    H5 4894   2.378   4.628  13.725
    8AGLC    O5 4895   2.518   4.776  13.696
    8AGLC    C2 4896   2.652   4.702  13.880
    8AGLC    H2 4897   2.663   4.809  13.906
    8AGLC    O2 4898   2.768   4.634  13.931
    8AGLC    C3 4899   2.530   4.648  13.949
    8AGLC    H3 4900   2.515   4.544  13.908
    8AGLC    O3 4901   2.559   4.637  14.090
    8AGLC    C4 4902   2.413   4.735  13.909
    8AGLC    H4 4903   2.436   4.840  13.940
    8AGLC    O4 4904   2.294   4.696  13.977
    8AGLC   HO4 4905   2.291   4.600  13.979
    8AGLC    C6 4906   2.269   4.810  13.711
    8AGLC   H61 4907   2.266   4.821  13.600
    8AGLC   H62 4908   2.176   4.754  13.739
    8AGLC    O6 4909   2.256   4.938  13.773
    8AGLC   HO6 4910   2.211   4.927  13.857
    9AGAL    C1 4911   2.894   4.671  13.880
    9AGAL    H1 4912   2.892   4.673  13.769
    9AGAL    C5 4913   2.959   4.806  14.065
    9AGAL    H5 4914   2.866   4.766  14.111
    9AGAL    O5 4915   2.937   4.802  13.923
    9AGAL    C2 4916   2.994   4.564  13.921
    9AGAL    H2 4917   3.091   4.593  13.873
    9AGAL    O2 4918   2.952   4.440  13.858
    9AGAL    C3 4919   3.018   4.566  14.071
    9AGAL    H3 4920   2.923   4.544  14.125
    9AGAL    O3 4921   3.108   4.464  14.111
    9AGAL   HO3 4922   3.086   4.389  14.055
    9AGAL    C4 4923   3.067   4.706  14.105
    9AGAL    H4 4924   3.083   4.713  14.214
    9AGAL    O4 4925   3.192   4.739  14.045
    9AGAL   HO4 4926   3.240   4.801  14.102
    9AGAL    C6 4927   2.973   4.948  14.120
    9AGAL   H61 4928   2.881   5.006  14.097
    9AGAL   H62 4929   2.980   4.944  14.231
    9AGAL    O6 4930   3.086   5.020  14.072
    9AGAL   HO6 4931   3.059   5.079  14.002
   10AGAL    C1 4932   2.960   4.309  13.913
   10AGAL    H1 4933   3.067   4.280  13.920
   10AGAL    C5 4934   2.755   4.314  14.042
   10AGAL    H5 4935   2.743   4.417  14.001
   10AGAL    O5 4936   2.898   4.291  14.043
   10AGAL    C2 4937   2.893   4.215  13.813
   10AGAL    H2 4938   2.908   4.111  13.849
   10AGAL    O2 4939   2.959   4.214  13.686
   10AGAL   HO2 4940   2.967   4.121  13.663
   10AGAL    C3 4941   2.743   4.244  13.806
   10AGAL    H3 4942   2.731   4.352  13.781
   10AGAL    O3 4943   2.671   4.169  13.708
   10AGAL   HO3 4944   2.644   4.227  13.636
   10AGAL    C4 4945   2.685   4.222  13.944
   10AGAL    H4 4946   2.576   4.248  13.944
   10AGAL    O4 4947   2.697   4.085  13.980
   10AGAL   HO4 4948   2.790   4.069  14.001
   10AGAL    C6 4949   2.687   4.321  14.179
   10AGAL   H61 4950   2.747   4.386  14.246
   10AGAL   H62 4951   2.588   4.370  14.164
   10AGAL    O6 4952   2.664   4.198  14.249
   10AGAL   HO6 4953   2.720   4.196  14.328
   11BGLC    C1 4954   2.523   4.735  14.186
   11BGLC    H1 4955   2.412   4.736  14.198
   11BGLC    C5 4956   2.552   4.963  14.257
   11BGLC    H5 4957   2.443   4.976  14.284
   11BGLC    O5 4958   2.576   4.862  14.154
   11BGLC    C2 4959   2.589   4.695  14.317
   11BGLC    H2 4960   2.699   4.690  14.301
   11BGLC    O2 4961   2.545   4.566  14.355
   11BGLC   HO2 4962   2.623   4.512  14.367
   11BGLC    C3 4963   2.567   4.795  14.429
   11BGLC    H3 4964   2.458   4.800  14.454
   11BGLC    O3 4965   2.647   4.759  14.542
   11BGLC    C4 4966   2.620   4.927  14.383
   11BGLC    H4 4967   2.728   4.921  14.357
   11BGLC    O4 4968   2.608   5.028  14.482
   11BGLC   HO4 4969   2.672   5.009  14.552
   11BGLC    C6 4970   2.599   5.085  14.193
   11BGLC   H61 4971   2.596   5.171  14.264
   11BGLC   H62 4972   2.690   5.091  14.131
   11BGLC    O6 4973   2.496   5.098  14.103
   11BGLC   HO6 4974   2.469   5.178  14.147
   12BGLCN   C1 4975   2.586   4.745  14.668
   12BGLCN   H1 4976   2.541   4.645  14.675
   12BGLCN   C5 4977   2.425   4.821  14.824
   12BGLCN   H5 4978   2.379   4.720  14.831
   12BGLCN   O5 4979   2.486   4.842  14.696
   12BGLCN   C2 4980   2.696   4.759  14.772
   12BGLCN   H2 4981   2.729   4.867  14.766
   12BGLCN    N 4982   2.802   4.667  14.742
   12BGLCN   HN 4983   2.775   4.573  14.732
   12BGLCN    C 4984   2.928   4.706  14.728
   12BGLCN    O 4985   2.961   4.822  14.746
   12BGLCN   CT 4986   3.031   4.603  14.692
   12BGLCN  HT1 4987   3.099   4.586  14.777
   12BGLCN  HT2 4988   3.093   4.639  14.608
   12BGLCN  HT3 4989   2.981   4.509  14.660
   12BGLCN   C3 4990   2.645   4.736  14.913
   12BGLCN   H3 4991   2.604   4.632  14.916
   12BGLCN   O3 4992   2.750   4.744  15.014
   12BGLCN   C4 4993   2.533   4.838  14.933
   12BGLCN   H4 4994   2.574   4.941  14.924
   12BGLCN   O4 4995   2.475   4.829  15.062
   12BGLCN  HO4 4996   2.427   4.745  15.065
   12BGLCN   C6 4997   2.313   4.922  14.830
   12BGLCN  H61 4998   2.258   4.915  14.926
   12BGLCN  H62 4999   2.356   5.024  14.817
   12BGLCN   O6 5000   2.218   4.906  14.725
   12BGLCN  HO6 5001   2.148   4.845  14.752
   13AGAL    C1 5002   2.741   4.650  15.121
   13AGAL    H1 5003   2.635   4.640  15.152
   13AGAL    C5 5004   2.942   4.531  15.064
   13AGAL    H5 5005   2.956   4.614  14.991
   13AGAL    O5 5006   2.799   4.523  15.085
   13AGAL    C2 5007   2.817   4.693  15.247
   13AGAL    H2 5008   2.809   4.606  15.316
   13AGAL    O2 5009   2.752   4.803  15.312
   13AGAL    C3 5010   2.966   4.708  15.225
   13AGAL    H3 5011   2.983   4.776  15.138
   13AGAL    O3 5012   3.035   4.763  15.335
   13AGAL   HO3 5013   3.102   4.826  15.306
   13AGAL    C4 5014   3.020   4.573  15.187
   13AGAL    H4 5015   3.128   4.582  15.159
   13AGAL    O4 5016   3.018   4.479  15.296
   13AGAL   HO4 5017   2.930   4.475  15.337
   13AGAL    C6 5018   3.006   4.415  14.990
   13AGAL   H61 5019   2.949   4.396  14.896
   13AGAL   H62 5020   3.111   4.441  14.967
   13AGAL    O6 5021   3.012   4.295  15.063
   13AGAL   HO6 5022   3.074   4.300  15.136
   14ARHM    C1 5023   2.693   4.776  15.437
   14ARHM    H1 5024   2.658   4.671  15.440
   14ARHM    C5 5025   2.611   4.990  15.457
   14ARHM    H5 5026   2.656   5.020  15.358
   14ARHM    O5 5027   2.578   4.854  15.456
   14ARHM    C2 5028   2.793   4.806  15.547
   14ARHM    H2 5029   2.883   4.743  15.530
   14ARHM    O2 5030   2.747   4.787  15.682
   14ARHM    C3 5031   2.830   4.951  15.543
   14ARHM    H3 5032   2.861   4.978  15.439
   14ARHM    O3 5033   2.941   4.983  15.628
   14ARHM   HO3 5034   2.910   4.977  15.719
   14ARHM    C4 5035   2.706   5.030  15.571
   14ARHM    H4 5036   2.654   5.003  15.665
   14ARHM    O4 5037   2.742   5.167  15.579
   14ARHM   HO4 5038   2.722   5.209  15.664
   14ARHM    C6 5039   2.472   5.042  15.468
   14ARHM   H61 5040   2.393   5.015  15.395
   14ARHM   H62 5041   2.440   5.075  15.569
   14ARHM   H63 5042   2.489   5.125  15.405
   15ARHM    C1 5043   2.690   4.662  15.711
   15ARHM    H1 5044   2.729   4.585  15.641
   15ARHM    C5 5045   2.480   4.746  15.800
   15ARHM    H5 5046   2.502   4.853  15.781
   15ARHM    O5 5047   2.545   4.662  15.702
   15ARHM    C2 5048   2.733   4.621  15.850
   15ARHM    H2 5049   2.844   4.629  15.857
   15ARHM    O2 5050   2.696   4.483  15.866
   15ARHM    C3 5051   2.672   4.715  15.950
   15ARHM    H3 5052   2.699   4.820  15.920
   15ARHM    O3 5053   2.731   4.689  16.077
   15ARHM    C4 5054   2.522   4.703  15.939
   15ARHM    H4 5055   2.494   4.595  15.952
   15ARHM    O4 5056   2.450   4.778  16.037
   15ARHM   HO4 5057   2.359   4.746  16.031
   15ARHM    C6 5058   2.327   4.728  15.784
   15ARHM   H61 5059   2.269   4.803  15.842
   15ARHM   H62 5060   2.301   4.734  15.678
   15ARHM   H63 5061   2.293   4.629  15.820
   16BMANN   C1 5062   2.722   4.415  15.987
   16BMANN   H1 5063   2.658   4.458  16.067
   16BMANN   C5 5064   2.881   4.359  16.157
   16BMANN   H5 5065   2.811   4.403  16.232
   16BMANN   O5 5066   2.860   4.423  16.029
   16BMANN   C2 5067   2.685   4.268  15.967
   16BMANN   H2 5068   2.577   4.266  15.939
   16BMANN    N 5069   2.760   4.199  15.862
   16BMANN   HN 5070   2.840   4.149  15.891
   16BMANN    C 5071   2.722   4.188  15.735
   16BMANN    O 5072   2.619   4.239  15.692
   16BMANN   CT 5073   2.815   4.112  15.643
   16BMANN  HT1 5074   2.776   4.011  15.622
   16BMANN  HT2 5075   2.916   4.103  15.689
   16BMANN  HT3 5076   2.825   4.167  15.547
   16BMANN   C3 5077   2.704   4.198  16.101
   16BMANN   H3 5078   2.639   4.249  16.176
   16BMANN   O3 5079   2.661   4.063  16.095
   16BMANN  HO3 5080   2.598   4.044  16.165
   16BMANN   C4 5081   2.849   4.210  16.148
   16BMANN   H4 5082   2.916   4.162  16.074
   16BMANN   O4 5083   2.876   4.147  16.274
   16BMANN  HO4 5084   2.969   4.123  16.279
   16BMANN   C6 5085   3.021   4.380  16.213
   16BMANN  H61 5086   3.012   4.379  16.324
   16BMANN  H62 5087   3.088   4.298  16.180
   16BMANN   O6 5088   3.085   4.502  16.181
   16BMANN  HO6 5089   3.157   4.485  16.118
   17BGLCN   C1 5090   2.763   4.804  16.151
   17BGLCN   H1 5091   2.682   4.878  16.135
   17BGLCN   C5 5092   2.922   4.978  16.192
   17BGLCN   H5 5093   2.847   5.058  16.172
   17BGLCN   O5 5094   2.889   4.862  16.114
   17BGLCN   C2 5095   2.766   4.754  16.294
   17BGLCN   H2 5096   2.850   4.683  16.311
   17BGLCN    N 5097   2.643   4.682  16.324
   17BGLCN   HN 5098   2.564   4.711  16.273
   17BGLCN    C 5099   2.627   4.588  16.418
   17BGLCN    O 5100   2.716   4.540  16.486
   17BGLCN   CT 5101   2.483   4.548  16.439
   17BGLCN  HT1 5102   2.457   4.453  16.388
   17BGLCN  HT2 5103   2.417   4.630  16.403
   17BGLCN  HT3 5104   2.462   4.538  16.547
   17BGLCN   C3 5105   2.788   4.877  16.380
   17BGLCN   H3 5106   2.710   4.950  16.347
   17BGLCN   O3 5107   2.766   4.845  16.520
   17BGLCN   C4 5108   2.923   4.937  16.341
   17BGLCN   H4 5109   3.002   4.858  16.350
   17BGLCN   O4 5110   2.956   5.047  16.425
   17BGLCN  HO4 5111   3.044   5.079  16.407
   17BGLCN   C6 5112   3.058   5.034  16.148
   17BGLCN  H61 5113   3.059   5.145  16.154
   17BGLCN  H62 5114   3.138   4.995  16.215
   17BGLCN   O6 5115   3.097   5.001  16.016
   17BGLCN  HO6 5116   3.027   5.024  15.955
   18AGAL    C1 5117   2.706   4.946  16.601
   18AGAL    H1 5118   2.780   5.028  16.617
   18AGAL    C5 5119   2.480   4.915  16.523
   18AGAL    H5 5120   2.519   4.824  16.477
   18AGAL    O5 5121   2.591   5.001  16.540
   18AGAL    C2 5122   2.655   4.899  16.734
   18AGAL    H2 5123   2.609   4.992  16.776
   18AGAL    O2 5124   2.760   4.863  16.824
   18AGAL    C3 5125   2.539   4.799  16.721
   18AGAL    H3 5126   2.573   4.717  16.653
   18AGAL    O3 5127   2.502   4.738  16.844
   18AGAL   HO3 5128   2.494   4.642  16.836
   18AGAL    C4 5129   2.423   4.868  16.654
   18AGAL    H4 5130   2.340   4.797  16.631
   18AGAL    O4 5131   2.368   4.973  16.732
   18AGAL   HO4 5132   2.321   4.935  16.807
   18AGAL    C6 5133   2.390   4.967  16.414
   18AGAL   H61 5134   2.451   4.970  16.321
   18AGAL   H62 5135   2.307   4.896  16.399
   18AGAL    O6 5136   2.340   5.098  16.435
   18AGAL   HO6 5137   2.386   5.142  16.506
   19ARHM    C1 5138   2.731   4.911  16.953
   19ARHM    H1 5139   2.622   4.919  16.971
   19ARHM    C5 5140   2.923   5.052  16.961
   19ARHM    H5 5141   2.946   5.017  16.858
   19ARHM    O5 5142   2.782   5.043  16.977
   19ARHM    C2 5143   2.797   4.816  17.048
   19ARHM    H2 5144   2.767   4.711  17.024
   19ARHM    O2 5145   2.755   4.844  17.181
   19ARHM    C3 5146   2.947   4.823  17.033
   19ARHM    H3 5147   2.973   4.800  16.927
   19ARHM    O3 5148   3.013   4.726  17.113
   19ARHM   HO3 5149   2.972   4.734  17.201
   19ARHM    C4 5150   2.994   4.963  17.061
   19ARHM    H4 5151   2.965   4.990  17.165
   19ARHM    O4 5152   3.135   4.977  17.050
   19ARHM   HO4 5153   3.160   4.960  16.960
   19ARHM    C6 5154   2.966   5.200  16.964
   19ARHM   H61 5155   2.910   5.251  16.885
   19ARHM   H62 5156   2.946   5.250  17.061
   19ARHM   H63 5157   3.075   5.209  16.944
   20ARHM    C1 5158   2.624   4.799  17.205
   20ARHM    H1 5159   2.583   4.739  17.121
   20ARHM    C5 5160   2.563   4.975  17.334
   20ARHM    H5 5161   2.661   5.030  17.318
   20ARHM    O5 5162   2.530   4.901  17.220
   20ARHM    C2 5163   2.626   4.718  17.331
   20ARHM    H2 5164   2.706   4.641  17.321
   20ARHM    O2 5165   2.497   4.658  17.353
   20ARHM    C3 5166   2.661   4.800  17.450
   20ARHM    H3 5167   2.760   4.849  17.433
   20ARHM    O3 5168   2.663   4.717  17.565
   20ARHM    C4 5169   2.559   4.904  17.465
   20ARHM    H4 5170   2.453   4.870  17.473
   20ARHM    O4 5171   2.587   4.991  17.576
   20ARHM   HO4 5172   2.548   5.076  17.551
   20ARHM    C6 5173   2.450   5.065  17.332
   20ARHM   H61 5174   2.343   5.063  17.349
   20ARHM   H62 5175   2.485   5.120  17.423
   20ARHM   H63 5176   2.463   5.112  17.232
   21BMANN   C1 5177   2.488   4.542  17.278
   21BMANN   H1 5178   2.576   4.534  17.209
   21BMANN   C5 5179   2.383   4.426  17.101
   21BMANN   H5 5180   2.480   4.425  17.045
   21BMANN   O5 5181   2.377   4.542  17.188
   21BMANN   C2 5182   2.486   4.422  17.372
   21BMANN   H2 5183   2.582   4.429  17.430
   21BMANN    N 5184   2.373   4.419  17.467
   21BMANN   HN 5185   2.287   4.448  17.426
   21BMANN    C 5186   2.379   4.379  17.597
   21BMANN    O 5187   2.474   4.318  17.642
   21BMANN   CT 5188   2.260   4.408  17.685
   21BMANN  HT1 5189   2.180   4.334  17.665
   21BMANN  HT2 5190   2.224   4.511  17.668
   21BMANN  HT3 5191   2.289   4.399  17.792
   21BMANN   C3 5192   2.492   4.300  17.283
   21BMANN   H3 5193   2.589   4.309  17.229
   21BMANN   O3 5194   2.495   4.179  17.357
   21BMANN  HO3 5195   2.418   4.180  17.414
   21BMANN   C4 5196   2.377   4.300  17.184
   21BMANN   H4 5197   2.279   4.296  17.237
   21BMANN   O4 5198   2.384   4.188  17.098
   21BMANN  HO4 5199   2.304   4.133  17.106
   21BMANN   C6 5200   2.274   4.429  16.997
   21BMANN  H61 5201   2.298   4.356  16.916
   21BMANN  H62 5202   2.179   4.396  17.043
   21BMANN   O6 5203   2.258   4.560  16.940
   21BMANN  HO6 5204   2.236   4.617  17.014
   22BGLCN   C1 5205   2.760   4.750  17.661
   22BGLCN   H1 5206   2.785   4.858  17.661
   22BGLCN   C5 5207   2.974   4.701  17.746
   22BGLCN   H5 5208   2.996   4.811  17.748
   22BGLCN   O5 5209   2.879   4.675  17.642
   22BGLCN   C2 5210   2.695   4.713  17.791
   22BGLCN   H2 5211   2.672   4.603  17.787
   22BGLCN    N 5212   2.572   4.787  17.809
   22BGLCN   HN 5213   2.573   4.881  17.775
   22BGLCN    C 5214   2.464   4.742  17.872
   22BGLCN    O 5215   2.455   4.631  17.923
   22BGLCN   CT 5216   2.350   4.839  17.876
   22BGLCN  HT1 5217   2.284   4.814  17.790
   22BGLCN  HT2 5218   2.388   4.943  17.864
   22BGLCN  HT3 5219   2.295   4.832  17.972
   22BGLCN   C3 5220   2.791   4.739  17.905
   22BGLCN   H3 5221   2.820   4.847  17.902
   22BGLCN   O3 5222   2.719   4.713  18.026
   22BGLCN   C4 5223   2.916   4.659  17.882
   22BGLCN   H4 5224   2.889   4.551  17.878
   22BGLCN   O4 5225   3.010   4.676  17.987
   22BGLCN  HO4 5226   3.050   4.591  18.013
   22BGLCN   C6 5227   3.099   4.624  17.711
   22BGLCN  H61 5228   3.157   4.611  17.802
   22BGLCN  H62 5229   3.075   4.521  17.678
   22BGLCN   O6 5230   3.182   4.692  17.616
   22BGLCN  HO6 5231   3.134   4.703  17.532
   23AGAL    C1 5232   2.766   4.769  18.146
   23AGAL    H1 5233   2.855   4.712  18.181
   23AGAL    C5 5234   2.690   4.993  18.108
   23AGAL    H5 5235   2.637   4.955  18.018
   23AGAL    O5 5236   2.802   4.908  18.135
   23AGAL    C2 5237   2.662   4.754  18.255
   23AGAL    H2 5238   2.708   4.796  18.347
   23AGAL    O2 5239   2.628   4.615  18.280
   23AGAL    C3 5240   2.541   4.842  18.224
   23AGAL    H3 5241   2.503   4.817  18.122
   23AGAL    O3 5242   2.432   4.821  18.311
   23AGAL   HO3 5243   2.463   4.808  18.400
   23AGAL    C4 5244   2.587   4.987  18.221
   23AGAL    H4 5245   2.503   5.055  18.196
   23AGAL    O4 5246   2.641   5.031  18.346
   23AGAL   HO4 5247   2.709   5.098  18.323
   23AGAL    C6 5248   2.743   5.129  18.069
   23AGAL   H61 5249   2.825   5.116  17.994
   23AGAL   H62 5250   2.663   5.188  18.019
   23AGAL    O6 5251   2.795   5.201  18.181
   23AGAL   HO6 5252   2.835   5.286  18.155
   24ARHM    C1 5253   2.713   4.539  18.364
   24ARHM    H1 5254   2.811   4.591  18.375
   24ARHM    C5 5255   2.625   4.325  18.300
   24ARHM    H5 5256   2.557   4.379  18.231
   24ARHM    O5 5257   2.743   4.405  18.316
   24ARHM    C2 5258   2.641   4.531  18.496
   24ARHM    H2 5259   2.611   4.634  18.529
   24ARHM    O2 5260   2.721   4.467  18.597
   24ARHM    C3 5261   2.515   4.450  18.479
   24ARHM    H3 5262   2.454   4.500  18.399
   24ARHM    O3 5263   2.436   4.453  18.597
   24ARHM   HO3 5264   2.459   4.378  18.652
   24ARHM    C4 5265   2.552   4.310  18.432
   24ARHM    H4 5266   2.623   4.264  18.506
   24ARHM    O4 5267   2.440   4.223  18.416
   24ARHM   HO4 5268   2.462   4.133  18.441
   24ARHM    C6 5269   2.660   4.188  18.235
   24ARHM   H61 5270   2.572   4.152  18.178
   24ARHM   H62 5271   2.745   4.199  18.168
   24ARHM   H63 5272   2.695   4.113  18.308
   25ARHM    C1 5273   2.821   4.549  18.651
   25ARHM    H1 5274   2.839   4.635  18.583
   25ARHM    C5 5275   2.950   4.380  18.760
   25ARHM    H5 5276   2.870   4.312  18.730
   25ARHM    O5 5277   2.950   4.486  18.664
   25ARHM    C2 5278   2.774   4.601  18.783
   25ARHM    H2 5279   2.669   4.639  18.773
   25ARHM    O2 5280   2.859   4.708  18.826
   25ARHM    C3 5281   2.771   4.489  18.883
   25ARHM    H3 5282   2.701   4.409  18.845
   25ARHM    O3 5283   2.726   4.541  19.007
   25ARHM    C4 5284   2.907   4.427  18.897
   25ARHM    H4 5285   2.983   4.503  18.929
   25ARHM    O4 5286   2.903   4.320  18.993
   25ARHM   HO4 5287   2.987   4.323  19.041
   25ARHM    C6 5288   3.085   4.306  18.760
   25ARHM   H61 5289   3.115   4.280  18.656
   25ARHM   H62 5290   3.164   4.370  18.803
   25ARHM   H63 5291   3.079   4.211  18.817
   26BMANN   C1 5292   2.835   4.831  18.764
   26BMANN   H1 5293   2.732   4.835  18.722
   26BMANN   C5 5294   2.895   4.989  18.595
   26BMANN   H5 5295   2.791   4.982  18.554
   26BMANN   O5 5296   2.927   4.864  18.659
   26BMANN   C2 5297   2.845   4.935  18.871
   26BMANN   H2 5298   2.769   4.907  18.949
   26BMANN    N 5299   2.980   4.936  18.929
   26BMANN   HN 5300   3.055   4.947  18.865
   26BMANN    C 5301   3.004   4.929  19.060
   26BMANN    O 5302   2.917   4.899  19.140
   26BMANN   CT 5303   3.146   4.958  19.103
   26BMANN  HT1 5304   3.216   4.931  19.023
   26BMANN  HT2 5305   3.177   4.906  19.196
   26BMANN  HT3 5306   3.155   5.066  19.123
   26BMANN   C3 5307   2.804   5.067  18.811
   26BMANN   H3 5308   2.701   5.058  18.769
   26BMANN   O3 5309   2.794   5.169  18.909
   26BMANN  HO3 5310   2.717   5.149  18.964
   26BMANN   C4 5311   2.899   5.102  18.698
   26BMANN   H4 5312   3.003   5.111  18.735
   26BMANN   O4 5313   2.866   5.226  18.638
   26BMANN  HO4 5314   2.897   5.297  18.696
   26BMANN   C6 5315   2.988   5.005  18.476
   26BMANN  H61 5316   3.002   4.905  18.428
   26BMANN  H62 5317   2.943   5.073  18.401
   26BMANN   O6 5318   3.117   5.055  18.513
   26BMANN  HO6 5319   3.103   5.143  18.549
   27BGLCN   C1 5320   2.640   4.463  19.084
   27BGLCN   H1 5321   2.663   4.355  19.079
   27BGLCN   C5 5322   2.414   4.412  19.128
   27BGLCN   H5 5323   2.445   4.305  19.130
   27BGLCN   O5 5324   2.505   4.483  19.043
   27BGLCN   C2 5325   2.660   4.519  19.223
   27BGLCN   H2 5326   2.630   4.627  19.219
   27BGLCN    N 5327   2.799   4.512  19.267
   27BGLCN   HN 5328   2.848   4.429  19.242
   27BGLCN    C 5329   2.856   4.616  19.332
   27BGLCN    O 5330   2.789   4.703  19.387
   27BGLCN   CT 5331   3.007   4.622  19.338
   27BGLCN  HT1 5332   3.051   4.545  19.272
   27BGLCN  HT2 5333   3.044   4.612  19.442
   27BGLCN  HT3 5334   3.039   4.723  19.303
   27BGLCN   C3 5335   2.568   4.450  19.319
   27BGLCN   H3 5336   2.591   4.340  19.314
   27BGLCN   O3 5337   2.599   4.504  19.449
   27BGLCN   C4 5338   2.425   4.467  19.270
   27BGLCN   H4 5339   2.396   4.573  19.269
   27BGLCN   O4 5340   2.334   4.399  19.355
   27BGLCN  HO4 5341   2.351   4.305  19.343
   27BGLCN   C6 5342   2.274   4.414  19.067
   27BGLCN  H61 5343   2.210   4.340  19.120
   27BGLCN  H62 5344   2.226   4.513  19.082
   27BGLCN   O6 5345   2.277   4.382  18.927
   27BGLCN  HO6 5346   2.188   4.385  18.889
   28AGAL    C1 5347   2.559   4.430  19.561
   28AGAL    H1 5348   2.449   4.440  19.569
   28AGAL    C5 5349   2.733   4.266  19.549
   28AGAL    H5 5350   2.786   4.336  19.479
   28AGAL    O5 5351   2.591   4.291  19.541
   28AGAL    C2 5352   2.615   4.475  19.698
   28AGAL    H2 5353   2.564   4.402  19.766
   28AGAL    O2 5354   2.579   4.606  19.747
   28AGAL    C3 5355   2.764   4.450  19.706
   28AGAL    H3 5356   2.812   4.504  19.621
   28AGAL    O3 5357   2.830   4.496  19.823
   28AGAL   HO3 5358   2.896   4.561  19.798
   28AGAL    C4 5359   2.785   4.303  19.686
   28AGAL    H4 5360   2.894   4.289  19.682
   28AGAL    O4 5361   2.729   4.222  19.789
   28AGAL   HO4 5362   2.804   4.194  19.843
   28AGAL    C6 5363   2.770   4.126  19.501
   28AGAL   H61 5364   2.745   4.119  19.393
   28AGAL   H62 5365   2.879   4.105  19.512
   28AGAL    O6 5366   2.702   4.020  19.569
   28AGAL   HO6 5367   2.613   4.005  19.533
   29ARHM    C1 5368   2.549   4.597  19.885
   29ARHM    H1 5369   2.602   4.512  19.932
   29ARHM    C5 5370   2.335   4.690  19.849
   29ARHM    H5 5371   2.361   4.698  19.742
   29ARHM    O5 5372   2.409   4.582  19.907
   29ARHM    C2 5373   2.597   4.722  19.953
   29ARHM    H2 5374   2.705   4.735  19.928
   29ARHM    O2 5375   2.579   4.712  20.097
   29ARHM    C3 5376   2.523   4.840  19.896
   29ARHM    H3 5377   2.542   4.848  19.786
   29ARHM    O3 5378   2.571   4.958  19.957
   29ARHM   HO3 5379   2.498   5.019  19.956
   29ARHM    C4 5380   2.374   4.820  19.915
   29ARHM    H4 5381   2.355   4.808  20.023
   29ARHM    O4 5382   2.295   4.930  19.869
   29ARHM   HO4 5383   2.319   4.961  19.782
   29ARHM    C6 5384   2.189   4.643  19.858
   29ARHM   H61 5385   2.184   4.541  19.814
   29ARHM   H62 5386   2.155   4.638  19.963
   29ARHM   H63 5387   2.123   4.711  19.800
   30ARHM    C1 5388   2.690   4.672  20.173
   30ARHM    H1 5389   2.777   4.739  20.152
   30ARHM    C5 5390   2.627   4.442  20.186
   30ARHM    H5 5391   2.537   4.471  20.127
   30ARHM    O5 5392   2.730   4.535  20.152
   30ARHM    C2 5393   2.653   4.685  20.318
   30ARHM    H2 5394   2.620   4.789  20.338
   30ARHM    O2 5395   2.766   4.653  20.397
   30ARHM    C3 5396   2.543   4.589  20.358
   30ARHM    H3 5397   2.458   4.608  20.288
   30ARHM    O3 5398   2.494   4.618  20.491
   30ARHM    C4 5399   2.591   4.449  20.332
   30ARHM    H4 5400   2.682   4.425  20.392
   30ARHM    O4 5401   2.498   4.348  20.367
   30ARHM   HO4 5402   2.423   4.341  20.307
   30ARHM    C6 5403   2.667   4.300  20.143
   30ARHM   H61 5404   2.582   4.231  20.160
   30ARHM   H62 5405   2.689   4.300  20.034
   30ARHM   H63 5406   2.756   4.264  20.199
   31BMANN   C1 5407   2.851   4.759  20.426
   31BMANN   H1 5408   2.791   4.849  20.453
   31BMANN   C5 5409   3.035   4.894  20.358
   31BMANN   H5 5410   2.970   4.979  20.389
   31BMANN   O5 5411   2.944   4.788  20.322
   31BMANN   C2 5412   2.928   4.712  20.545
   31BMANN   H2 5413   2.853   4.699  20.628
   31BMANN    N 5414   2.990   4.584  20.517
   31BMANN   HN 5415   3.003   4.561  20.421
   31BMANN    C 5416   3.017   4.495  20.613
   31BMANN    O 5417   2.987   4.515  20.730
   31BMANN   CT 5418   3.084   4.369  20.571
   31BMANN  HT1 5419   3.160   4.392  20.493
   31BMANN  HT2 5420   3.008   4.305  20.526
   31BMANN  HT3 5421   3.129   4.315  20.657
   31BMANN   C3 5422   3.021   4.823  20.587
   31BMANN   H3 5423   2.962   4.916  20.604
   31BMANN   O3 5424   3.081   4.795  20.711
   31BMANN  HO3 5425   3.032   4.722  20.751
   31BMANN   C4 5426   3.120   4.853  20.477
   31BMANN   H4 5427   3.180   4.763  20.449
   31BMANN   O4 5428   3.211   4.958  20.512
   31BMANN  HO4 5429   3.166   5.027  20.561
   31BMANN   C6 5430   3.119   4.946  20.243
   31BMANN  H61 5431   3.172   5.039  20.270
   31BMANN  H62 5432   3.202   4.878  20.231
   31BMANN   O6 5433   3.050   4.957  20.118
   31BMANN  HO6 5434   2.993   5.035  20.116
   32BGLCN   C1 5435   2.567   4.563  20.598
   32BGLCN   H1 5436   2.675   4.568  20.577
   32BGLCN   C5 5437   2.618   4.371  20.728
   32BGLCN   H5 5438   2.724   4.382  20.695
   32BGLCN   O5 5439   2.534   4.427  20.627
   32BGLCN   C2 5440   2.541   4.645  20.722
   32BGLCN   H2 5441   2.434   4.626  20.751
   32BGLCN    N 5442   2.557   4.786  20.693
   32BGLCN   HN 5443   2.625   4.803  20.625
   32BGLCN    C 5444   2.486   4.886  20.746
   32BGLCN    O 5445   2.395   4.873  20.826
   32BGLCN   CT 5446   2.526   5.021  20.693
   32BGLCN  HT1 5447   2.580   5.006  20.597
   32BGLCN  HT2 5448   2.590   5.079  20.760
   32BGLCN  HT3 5449   2.436   5.082  20.676
   32BGLCN   C3 5450   2.635   4.595  20.829
   32BGLCN   H3 5451   2.737   4.596  20.784
   32BGLCN   O3 5452   2.638   4.678  20.946
   32BGLCN   C4 5453   2.598   4.450  20.856
   32BGLCN   H4 5454   2.490   4.447  20.886
   32BGLCN   O4 5455   2.672   4.391  20.961
   32BGLCN  HO4 5456   2.633   4.414  21.046
   32BGLCN   C6 5457   2.591   4.222  20.740
   32BGLCN  H61 5458   2.661   4.174  20.809
   32BGLCN  H62 5459   2.490   4.205  20.784
   32BGLCN   O6 5460   2.604   4.151  20.616
   32BGLCN  HO6 5461   2.666   4.198  20.558
   33AGAL    C1 5462   2.767   4.689  21.004
   33AGAL    H1 5463   2.821   4.592  20.997
   33AGAL    C5 5464   2.793   4.923  20.957
   33AGAL    H5 5465   2.688   4.913  20.921
   33AGAL    O5 5466   2.848   4.791  20.941
   33AGAL    C2 5467   2.752   4.726  21.151
   33AGAL    H2 5468   2.856   4.740  21.189
   33AGAL    O2 5469   2.700   4.613  21.223
   33AGAL    C3 5470   2.686   4.863  21.166
   33AGAL    H3 5471   2.590   4.864  21.109
   33AGAL    O3 5472   2.646   4.894  21.299
   33AGAL   HO3 5473   2.718   4.887  21.361
   33AGAL    C4 5474   2.779   4.967  21.102
   33AGAL    H4 5475   2.731   5.065  21.108
   33AGAL    O4 5476   2.905   4.989  21.166
   33AGAL   HO4 5477   2.929   4.920  21.228
   33AGAL    C6 5478   2.857   5.024  20.862
   33AGAL   H61 5479   2.836   4.987  20.760
   33AGAL   H62 5480   2.810   5.124  20.873
   33AGAL    O6 5481   2.998   5.044  20.871
   33AGAL   HO6 5482   3.045   4.973  20.825
   34ARHM    C1 5483   2.770   4.581  21.342
   34ARHM    H1 5484   2.783   4.674  21.401
   34ARHM    C5 5485   2.904   4.404  21.243
   34ARHM    H5 5486   2.862   4.426  21.143
   34ARHM    O5 5487   2.903   4.526  21.321
   34ARHM    C2 5488   2.683   4.481  21.418
   34ARHM    H2 5489   2.578   4.521  21.422
   34ARHM    O2 5490   2.728   4.456  21.554
   34ARHM    C3 5491   2.679   4.352  21.337
   34ARHM    H3 5492   2.636   4.374  21.236
   34ARHM    O3 5493   2.596   4.253  21.397
   34ARHM   HO3 5494   2.547   4.202  21.332
   34ARHM    C4 5495   2.819   4.299  21.315
   34ARHM    H4 5496   2.868   4.282  21.414
   34ARHM    O4 5497   2.817   4.175  21.243
   34ARHM   HO4 5498   2.788   4.107  21.305
   34ARHM    C6 5499   3.048   4.349  21.221
   34ARHM   H61 5500   3.103   4.329  21.315
   34ARHM   H62 5501   3.042   4.251  21.170
   34ARHM   H63 5502   3.110   4.415  21.156
   35ARHM    C1 5503   2.741   4.567  21.641
   35ARHM    H1 5504   2.658   4.640  21.623
   35ARHM    C5 5505   2.979   4.542  21.657
   35ARHM    H5 5506   2.976   4.455  21.588
   35ARHM    O5 5507   2.870   4.631  21.629
   35ARHM    C2 5508   2.730   4.521  21.785
   35ARHM    H2 5509   2.634   4.469  21.796
   35ARHM    O2 5510   2.737   4.631  21.878
   35ARHM    C3 5511   2.837   4.420  21.818
   35ARHM    H3 5512   2.830   4.334  21.747
   35ARHM    O3 5513   2.815   4.362  21.946
   35ARHM   HO3 5514   2.786   4.427  22.011
   35ARHM    C4 5515   2.971   4.489  21.800
   35ARHM    H4 5516   2.979   4.576  21.870
   35ARHM    O4 5517   3.080   4.402  21.828
   35ARHM   HO4 5518   3.059   4.312  21.798
   35ARHM    C6 5519   3.110   4.618  21.623
   35ARHM   H61 5520   3.117   4.639  21.514
   35ARHM   H62 5521   3.114   4.713  21.680
   35ARHM   H63 5522   3.196   4.552  21.647
   36BMANN   C1 5523   2.624   4.713  21.883
   36BMANN   H1 5524   2.534   4.658  21.848
   36BMANN   C5 5525   2.510   4.904  21.807
   36BMANN   H5 5526   2.425   4.840  21.779
   36BMANN   O5 5527   2.633   4.827  21.800
   36BMANN   C2 5528   2.608   4.758  22.026
   36BMANN   H2 5529   2.598   4.663  22.079
   36BMANN    N 5530   2.723   4.824  22.086
   36BMANN   HN 5531   2.773   4.884  22.025
   36BMANN    C 5532   2.750   4.819  22.218
   36BMANN    O 5533   2.689   4.746  22.294
   36BMANN   CT 5534   2.858   4.910  22.270
   36BMANN  HT1 5535   2.847   5.010  22.224
   36BMANN  HT2 5536   2.959   4.869  22.250
   36BMANN  HT3 5537   2.846   4.921  22.380
   36BMANN   C3 5538   2.480   4.837  22.038
   36BMANN   H3 5539   2.396   4.774  22.002
   36BMANN   O3 5540   2.451   4.872  22.172
   36BMANN  HO3 5541   2.364   4.842  22.203
   36BMANN   C4 5542   2.487   4.956  21.949
   36BMANN   H4 5543   2.571   5.022  21.981
   36BMANN   O4 5544   2.368   5.032  21.959
   36BMANN  HO4 5545   2.362   5.051  22.054
   36BMANN   C6 5546   2.513   5.013  21.708
   36BMANN  H61 5547   2.532   4.979  21.605
   36BMANN  H62 5548   2.415   5.068  21.708
   36BMANN   O6 5549   2.619   5.094  21.751
   36BMANN  HO6 5550   2.583   5.170  21.800
    1ECLIP HB6S 5551   4.357   2.128  11.776
    1ECLIP  OB6 5552   4.221   2.055  11.908
    1ECLIP  CB6 5553   4.319   2.030  11.807
    1ECLIP HB6R 5554   4.405   1.972  11.847
    1ECLIP  CB5 5555   4.270   1.964  11.679
    1ECLIP  OB5 5556   4.160   2.045  11.632
    1ECLIP  HB5 5557   4.236   1.863  11.709
    1ECLIP  CB1 5558   4.100   1.990  11.515
    1ECLIP  HB1 5559   4.066   1.885  11.533
    1ECLIP  OA6 5560   3.988   2.063  11.470
    1ECLIP  CA6 5561   3.994   2.205  11.493
    1ECLIP HA6R 5562   4.098   2.241  11.512
    1ECLIP HA6S 5563   3.930   2.228  11.581
    1ECLIP  CB4 5564   4.378   1.952  11.569
    1ECLIP  HB4 5565   4.421   2.052  11.542
    1ECLIP  OB4 5566   4.478   1.861  11.620
    1ECLIP   PB 5567   4.629   1.916  11.667
    1ECLIP OPB4 5568   4.678   1.835  11.786
    1ECLIP OPB3 5569   4.610   2.064  11.705
    1ECLIP OPB2 5570   4.724   1.897  11.549
    1ECLIP  CB3 5571   4.314   1.894  11.445
    1ECLIP  OB3 5572   4.402   1.887  11.331
    1ECLIP  HB3 5573   4.268   1.796  11.469
    1ECLIP  C71 5574   4.477   1.777  11.315
    1ECLIP  O71 5575   4.443   1.669  11.363
    1ECLIP  C72 5576   4.543   1.791  11.175
    1ECLIP H72R 5577   4.467   1.810  11.097
    1ECLIP H72S 5578   4.596   1.696  11.153
    1ECLIP  CB2 5579   4.200   1.984  11.403
    1ECLIP  HB2 5580   4.241   2.088  11.387
    1ECLIP  NB2 5581   4.136   1.934  11.281
    1ECLIP HNB2 5582   4.062   1.870  11.293
    1ECLIP  CA4 5583   3.814   2.212  11.316
    1ECLIP  HA4 5584   3.843   2.107  11.288
    1ECLIP  OA4 5585   3.713   2.209  11.417
    1ECLIP HOA4 5586   3.759   2.177  11.496
    1ECLIP  CA5 5587   3.940   2.277  11.370
    1ECLIP  HA5 5588   3.927   2.385  11.393
    1ECLIP  OA5 5589   4.040   2.264  11.271
    1ECLIP  CA1 5590   4.007   2.330  11.147
    1ECLIP  HA1 5591   4.087   2.293  11.079
    1ECLIP  OA1 5592   4.012   2.472  11.151
    1ECLIP OPA2 5593   4.116   2.609  11.341
    1ECLIP OPA3 5594   4.264   2.449  11.224
    1ECLIP OPA4 5595   4.189   2.655  11.106
    1ECLIP   PA 5596   4.150   2.547  11.206
    1ECLIP  CA3 5597   3.766   2.278  11.189
    1ECLIP  HA3 5598   3.741   2.385  11.209
    1ECLIP  OA3 5599   3.643   2.207  11.156
    1ECLIP  C31 5600   3.661   2.089  11.087
    1ECLIP  O31 5601   3.664   2.088  10.965
    1ECLIP  C32 5602   3.589   1.977  11.164
    1ECLIP H32R 5603   3.499   1.949  11.107
    1ECLIP H32S 5604   3.559   2.015  11.264
    1ECLIP  CA2 5605   3.881   2.270  11.087
    1ECLIP  HA2 5606   3.905   2.162  11.070
    1ECLIP  NA2 5607   3.846   2.332  10.959
    1ECLIP HNA2 5608   3.751   2.357  10.948
    1ECLIP  C73 5609   4.643   1.909  11.172
    1ECLIP H73R 5610   4.705   1.903  11.264
    1ECLIP  O73 5611   4.565   2.028  11.165
    1ECLIP  C81 5612   4.607   2.137  11.231
    1ECLIP  O81 5613   4.716   2.146  11.288
    1ECLIP  C82 5614   4.530   2.258  11.171
    1ECLIP H82R 5615   4.561   2.350  11.223
    1ECLIP H82S 5616   4.421   2.245  11.192
    1ECLIP  C83 5617   4.547   2.274  11.018
    1ECLIP H83R 5618   4.477   2.204  10.966
    1ECLIP H83S 5619   4.650   2.245  10.990
    1ECLIP  C84 5620   4.514   2.415  10.966
    1ECLIP H84R 5621   4.591   2.488  10.996
    1ECLIP H84S 5622   4.416   2.443  11.012
    1ECLIP  C85 5623   4.492   2.418  10.813
    1ECLIP H85R 5624   4.432   2.327  10.791
    1ECLIP H85S 5625   4.589   2.407  10.760
    1ECLIP  C86 5626   4.408   2.539  10.765
    1ECLIP H86R 5627   4.473   2.624  10.736
    1ECLIP H86S 5628   4.345   2.575  10.849
    1ECLIP  C87 5629   4.310   2.501  10.652
    1ECLIP H87R 5630   4.258   2.593  10.616
    1ECLIP H87S 5631   4.230   2.435  10.694
    1ECLIP  C88 5632   4.377   2.425  10.538
    1ECLIP H88R 5633   4.395   2.320  10.571
    1ECLIP H88S 5634   4.479   2.468  10.524
    1ECLIP  C89 5635   4.295   2.423  10.408
    1ECLIP H89R 5636   4.188   2.445  10.426
    1ECLIP H89S 5637   4.298   2.322  10.362
    1ECLIP C810 5638   4.356   2.520  10.306
    1ECLIPH810R 5639   4.464   2.527  10.329
    1ECLIPH810S 5640   4.310   2.621  10.323
    1ECLIP C811 5641   4.337   2.477  10.160
    1ECLIPH811R 5642   4.347   2.564  10.090
    1ECLIPH811S 5643   4.233   2.437  10.152
    1ECLIP C812 5644   4.430   2.366  10.110
    1ECLIPH812R 5645   4.395   2.338  10.008
    1ECLIPH812S 5646   4.422   2.278  10.177
    1ECLIP C813 5647   4.579   2.402  10.100
    1ECLIPH813R 5648   4.589   2.487  10.029
    1ECLIPH813S 5649   4.619   2.434  10.199
    1ECLIP C814 5650   4.664   2.286  10.049
    1ECLIPH814R 5651   4.620   2.239   9.958
    1ECLIPH814S 5652   4.671   2.208  10.128
    1ECLIPH814T 5653   4.766   2.320  10.025
    1ECLIP  C74 5654   4.738   1.912  11.049
    1ECLIP H74R 5655   4.804   1.823  11.041
    1ECLIP H74S 5656   4.805   1.999  11.068
    1ECLIP  C75 5657   4.667   1.940  10.914
    1ECLIP H75R 5658   4.735   2.006  10.855
    1ECLIP H75S 5659   4.574   1.998  10.933
    1ECLIP  C76 5660   4.631   1.816  10.831
    1ECLIP H76R 5661   4.539   1.769  10.874
    1ECLIP H76S 5662   4.712   1.739  10.835
    1ECLIP  C77 5663   4.604   1.844  10.682
    1ECLIP H77R 5664   4.698   1.880  10.635
    1ECLIP H77S 5665   4.531   1.926  10.667
    1ECLIP  C78 5666   4.545   1.718  10.616
    1ECLIP H78R 5667   4.610   1.632  10.643
    1ECLIP H78S 5668   4.447   1.700  10.668
    1ECLIP  C79 5669   4.511   1.723  10.466
    1ECLIP H79R 5670   4.404   1.751  10.453
    1ECLIP H79S 5671   4.523   1.622  10.420
    1ECLIP C710 5672   4.598   1.815  10.382
    1ECLIPH710R 5673   4.597   1.918  10.423
    1ECLIPH710S 5674   4.703   1.777  10.385
    1ECLIP C711 5675   4.555   1.825  10.235
    1ECLIPH711R 5676   4.558   1.723  10.190
    1ECLIPH711S 5677   4.451   1.864  10.229
    1ECLIP C712 5678   4.647   1.925  10.165
    1ECLIPH712R 5679   4.749   1.879  10.161
    1ECLIPH712S 5680   4.653   2.016  10.228
    1ECLIP C713 5681   4.595   1.978  10.032
    1ECLIPH713R 5682   4.493   2.020  10.032
    1ECLIPH713S 5683   4.673   2.036   9.974
    1ECLIP C714 5684   4.581   1.867   9.948
    1ECLIPH714R 5685   4.690   1.838   9.959
    1ECLIPH714S 5686   4.512   1.784   9.978
    1ECLIPH714T 5687   4.573   1.880   9.841
    1ECLIP  C51 5688   4.181   1.967  11.159
    1ECLIP  O51 5689   4.258   2.060  11.143
    1ECLIP  C52 5690   4.138   1.882  11.042
    1ECLIP H52R 5691   4.208   1.796  11.029
    1ECLIP H52S 5692   4.037   1.841  11.061
    1ECLIP  C53 5693   4.136   1.966  10.912
    1ECLIP H53R 5694   4.106   2.071  10.935
    1ECLIP  O53 5695   4.047   1.899  10.822
    1ECLIP  C61 5696   3.933   1.959  10.789
    1ECLIP  O61 5697   3.899   2.070  10.822
    1ECLIP  C62 5698   3.852   1.868  10.696
    1ECLIP H62R 5699   3.797   1.795  10.758
    1ECLIP H62S 5700   3.926   1.811  10.637
    1ECLIP  C63 5701   3.753   1.950  10.607
    1ECLIP H63R 5702   3.809   2.037  10.564
    1ECLIP H63S 5703   3.670   1.991  10.669
    1ECLIP  C64 5704   3.692   1.875  10.487
    1ECLIP H64R 5705   3.618   1.940  10.435
    1ECLIP H64S 5706   3.639   1.786  10.528
    1ECLIP  C65 5707   3.801   1.831  10.390
    1ECLIP H65R 5708   3.866   1.763  10.450
    1ECLIP H65S 5709   3.863   1.918  10.358
    1ECLIP  C66 5710   3.761   1.751  10.265
    1ECLIP H66R 5711   3.704   1.661  10.293
    1ECLIP H66S 5712   3.857   1.721  10.216
    1ECLIP  C67 5713   3.682   1.824  10.159
    1ECLIP H67R 5714   3.590   1.876  10.196
    1ECLIP H67S 5715   3.651   1.755  10.076
    1ECLIP  C68 5716   3.760   1.935  10.101
    1ECLIP H68R 5717   3.856   1.910  10.047
    1ECLIP H68S 5718   3.777   2.016  10.174
    1ECLIP  C69 5719   3.672   1.987   9.999
    1ECLIP H69R 5720   3.560   1.987   9.998
    1ECLIP H69S 5721   3.677   1.905   9.928
    1ECLIP C610 5722   3.731   2.121   9.982
    1ECLIPH610R 5723   3.839   2.142   9.961
    1ECLIPH610S 5724   3.673   2.204  10.030
    1ECLIP C611 5725   3.674   2.153   9.870
    1ECLIPH611R 5726   3.576   2.101   9.853
    1ECLIPH611S 5727   3.717   2.252   9.846
    1ECLIP C612 5728   3.711   2.123   9.750
    1ECLIPH612R 5729   3.781   2.173   9.691
    1ECLIPH612S 5730   3.789   2.059   9.767
    1ECLIPH612T 5731   3.630   2.119   9.669
    1ECLIP  C54 5732   4.280   1.966  10.853
    1ECLIP H54R 5733   4.303   1.861  10.824
    1ECLIP H54S 5734   4.350   1.995  10.934
    1ECLIP  C55 5735   4.306   2.058  10.733
    1ECLIP H55R 5736   4.415   2.072  10.719
    1ECLIP H55S 5737   4.265   2.159  10.756
    1ECLIP  C56 5738   4.248   1.996  10.605
    1ECLIP H56R 5739   4.140   1.976  10.622
    1ECLIP H56S 5740   4.297   1.897  10.587
    1ECLIP  C57 5741   4.252   2.078  10.477
    1ECLIP H57R 5742   4.355   2.113  10.454
    1ECLIP H57S 5743   4.189   2.168  10.491
    1ECLIP  C58 5744   4.194   1.994  10.360
    1ECLIP H58R 5745   4.237   1.892  10.358
    1ECLIP H58S 5746   4.086   1.980  10.382
    1ECLIP  C59 5747   4.217   2.061  10.223
    1ECLIP H59R 5748   4.326   2.079  10.208
    1ECLIP H59S 5749   4.168   2.160  10.232
    1ECLIP C510 5750   4.171   1.977  10.101
    1ECLIPH510R 5751   4.071   1.934  10.119
    1ECLIPH510S 5752   4.242   1.892  10.088
    1ECLIP C511 5753   4.166   2.053   9.968
    1ECLIPH511R 5754   4.074   2.114   9.967
    1ECLIPH511S 5755   4.253   2.121   9.958
    1ECLIP C512 5756   4.162   1.963   9.844
    1ECLIPH512R 5757   4.188   2.024   9.754
    1ECLIPH512S 5758   4.239   1.886   9.860
    1ECLIP C513 5759   4.027   1.900   9.807
    1ECLIPH513R 5760   3.955   1.977   9.796
    1ECLIPH513S 5761   3.989   1.835   9.887
    1ECLIP C514 5762   4.016   1.828   9.675
    1ECLIPH514R 5763   4.076   1.744   9.683
    1ECLIPH514S 5764   3.923   1.773   9.658
    1ECLIPH514T 5765   4.044   1.889   9.586
    1ECLIP  C33 5766   3.673   1.847  11.182
    1ECLIP H33R 5767   3.605   1.769  11.223
    1ECLIP  O33 5768   3.773   1.871  11.279
    1ECLIP HO33 5769   3.738   1.874  11.369
    1ECLIP  C34 5770   3.742   1.790  11.056
    1ECLIP H34R 5771   3.813   1.866  11.018
    1ECLIP H34S 5772   3.666   1.774  10.977
    1ECLIP  C35 5773   3.818   1.657  11.080
    1ECLIP H35R 5774   3.748   1.577  11.111
    1ECLIP H35S 5775   3.892   1.674  11.162
    1ECLIP  C36 5776   3.895   1.607  10.956
    1ECLIP H36R 5777   3.924   1.700  10.903
    1ECLIP H36S 5778   3.831   1.546  10.889
    1ECLIP  C37 5779   4.026   1.532  10.989
    1ECLIP H37R 5780   4.001   1.425  11.003
    1ECLIP H37S 5781   4.067   1.570  11.085
    1ECLIP  C38 5782   4.136   1.544  10.880
    1ECLIP H38R 5783   4.185   1.644  10.879
    1ECLIP H38S 5784   4.216   1.471  10.905
    1ECLIP  C39 5785   4.081   1.519  10.739
    1ECLIP H39R 5786   3.996   1.589  10.718
    1ECLIP H39S 5787   4.044   1.414  10.734
    1ECLIP C310 5788   4.180   1.536  10.624
    1ECLIPH310R 5789   4.251   1.451  10.633
    1ECLIPH310S 5790   4.237   1.631  10.632
    1ECLIP C311 5791   4.108   1.545  10.488
    1ECLIPH311R 5792   4.018   1.480  10.489
    1ECLIPH311S 5793   4.072   1.649  10.473
    1ECLIP C312 5794   4.196   1.512  10.366
    1ECLIPH312R 5795   4.300   1.547  10.385
    1ECLIPH312S 5796   4.197   1.402  10.354
    1ECLIP C313 5797   4.142   1.576  10.237
    1ECLIPH313R 5798   4.050   1.519  10.211
    1ECLIPH313S 5799   4.113   1.682  10.254
    1ECLIP C314 5800   4.239   1.569  10.118
    1ECLIPH314R 5801   4.264   1.463  10.096
    1ECLIPH314S 5802   4.194   1.614  10.027
    1ECLIPH314T 5803   4.333   1.624  10.141
    1ECLIP  C11 5804   3.931   2.374  10.862
    1ECLIP  O11 5805   4.046   2.335  10.846
    1ECLIP  C12 5806   3.873   2.478  10.769
    1ECLIP H12R 5807   3.918   2.577  10.791
    1ECLIP H12S 5808   3.764   2.483  10.788
    1ECLIP  C13 5809   3.894   2.444  10.622
    1ECLIP H13R 5810   3.997   2.407  10.601
    1ECLIP  O13 5811   3.875   2.565  10.549
    1ECLIP HO13 5812   3.923   2.569  10.465
    1ECLIP  C14 5813   3.792   2.336  10.580
    1ECLIP H14R 5814   3.695   2.354  10.632
    1ECLIP H14S 5815   3.834   2.239  10.614
    1ECLIP  C15 5816   3.764   2.324  10.431
    1ECLIP H15R 5817   3.731   2.423  10.394
    1ECLIP H15S 5818   3.678   2.254  10.419
    1ECLIP  C16 5819   3.887   2.272  10.356
    1ECLIP H16R 5820   3.895   2.162  10.364
    1ECLIP H16S 5821   3.979   2.314  10.402
    1ECLIP  C17 5822   3.877   2.311  10.209
    1ECLIP H17R 5823   3.774   2.290  10.177
    1ECLIP H17S 5824   3.945   2.250  10.146
    1ECLIP  C18 5825   3.904   2.460  10.193
    1ECLIP H18R 5826   3.836   2.518  10.257
    1ECLIP H18S 5827   4.011   2.483  10.218
    1ECLIP  C19 5828   3.863   2.514  10.060
    1ECLIP H19R 5829   3.889   2.620  10.041
    1ECLIP H19S 5830   3.772   2.473  10.011
    1ECLIP C110 5831   3.949   2.470   9.972
    1ECLIPH110R 5832   4.049   2.458  10.028
    1ECLIPH110S 5833   3.965   2.355   9.986
    1ECLIP C111 5834   3.937   2.553   9.788
    1ECLIPH111R 5835   3.840   2.522   9.781
    1ECLIPH111S 5836   3.936   2.653   9.806
    1ECLIP C112 5837   4.076   2.478   9.634
    1ECLIPH112R 5838   4.190   2.443   9.649
    1ECLIPH112S 5839   4.140   2.377   9.668
    1ECLIP C113 5840   4.031   2.481   9.521
    1ECLIPH113R 5841   3.933   2.447   9.514
    1ECLIPH113S 5842   4.025   2.590   9.533
    1ECLIP C114 5843   4.122   2.412   9.437
    1ECLIPH114R 5844   4.224   2.405   9.466
    1ECLIPH114S 5845   4.151   2.311   9.414
    1ECLIPH114T 5846   4.094   2.463   9.344
    2AKDO    C1 5847   4.213   1.828  11.979
    2AKDO   O11 5848   4.311   1.748  11.980
    2AKDO   O12 5849   4.095   1.801  11.945
    2AKDO    C2 5850   4.239   1.975  12.024
    2AKDO    C6 5851   4.403   2.122  12.123
    2AKDO    H6 5852   4.387   2.185  12.032
    2AKDO    O6 5853   4.371   1.987  12.083
    2AKDO    C3 5854   4.139   2.025  12.129
    2AKDO   H31 5855   4.137   1.954  12.215
    2AKDO   H32 5856   4.038   2.025  12.082
    2AKDO    C4 5857   4.169   2.164  12.173
    2AKDO    H4 5858   4.171   2.232  12.085
    2AKDO    O4 5859   4.077   2.209  12.273
    2AKDO    C5 5860   4.308   2.173  12.232
    2AKDO    H5 5861   4.331   2.281  12.244
    2AKDO    O5 5862   4.305   2.104  12.362
    2AKDO    C7 5863   4.552   2.135  12.153
    2AKDO    H7 5864   4.574   2.075  12.244
    2AKDO    O7 5865   4.589   2.272  12.174
    2AKDO   HO7 5866   4.597   2.310  12.087
    2AKDO    C8 5867   4.636   2.080  12.038
    2AKDO   H81 5868   4.604   1.973  12.022
    2AKDO   H82 5869   4.609   2.135  11.945
    2AKDO    O8 5870   4.780   2.088  12.058
    2AKDO   HO8 5871   4.810   2.001  12.028
    3AKDO    C1 5872   3.962   2.354  12.116
    3AKDO   O11 5873   3.931   2.307  12.003
    3AKDO   O12 5874   4.015   2.466  12.143
    3AKDO    C2 5875   3.949   2.257  12.237
    3AKDO    C6 5876   3.843   2.055  12.315
    3AKDO    H6 5877   3.943   2.008  12.334
    3AKDO    O6 5878   3.855   2.151  12.209
    3AKDO    C3 5879   3.904   2.324  12.368
    3AKDO   H31 5880   3.803   2.369  12.352
    3AKDO   H32 5881   3.972   2.407  12.394
    3AKDO    C4 5882   3.896   2.224  12.479
    3AKDO    H4 5883   3.995   2.172  12.485
    3AKDO    O4 5884   3.871   2.282  12.605
    3AKDO   HO4 5885   3.938   2.254  12.670
    3AKDO    C5 5886   3.794   2.122  12.442
    3AKDO    H5 5887   3.788   2.048  12.525
    3AKDO    O5 5888   3.664   2.179  12.423
    3AKDO   HO5 5889   3.676   2.247  12.357
    3AKDO    C7 5890   3.751   1.945  12.271
    3AKDO    H7 5891   3.650   1.989  12.250
    3AKDO    O7 5892   3.738   1.848  12.376
    3AKDO   HO7 5893   3.668   1.788  12.347
    3AKDO    C8 5894   3.807   1.880  12.147
    3AKDO   H81 5895   3.826   1.957  12.069
    3AKDO   H82 5896   3.904   1.829  12.168
    3AKDO    O8 5897   3.713   1.787  12.096
    3AKDO   HO8 5898   3.647   1.843  12.054
    4AHEP    C1 5899   4.393   2.153  12.461
    4AHEP    H1 5900   4.493   2.119  12.427
    4AHEP    C5 5901   4.293   2.359  12.536
    4AHEP    H5 5902   4.200   2.323  12.488
    4AHEP    O5 5903   4.403   2.296  12.466
    4AHEP    C2 5904   4.384   2.102  12.607
    4AHEP    H2 5905   4.370   1.992  12.604
    4AHEP    O2 5906   4.509   2.121  12.672
    4AHEP   HO2 5907   4.529   2.048  12.730
    4AHEP    C3 5908   4.270   2.162  12.686
    4AHEP    H3 5909   4.171   2.132  12.646
    4AHEP    O3 5910   4.279   2.122  12.825
    4AHEP    C4 5911   4.287   2.313  12.682
    4AHEP    H4 5912   4.381   2.346  12.733
    4AHEP    O4 5913   4.172   2.370  12.743
    4AHEP    P4 5914   4.180   2.452  12.886
    4AHEP  OP42 5915   4.044   2.419  12.947
    4AHEP  OP43 5916   4.191   2.596  12.835
    4AHEP  OP44 5917   4.300   2.401  12.965
    4AHEP    C6 5918   4.305   2.513  12.516
    4AHEP    H6 5919   4.205   2.554  12.544
    4AHEP    O6 5920   4.402   2.580  12.598
    4AHEP   HO6 5921   4.359   2.634  12.667
    4AHEP    C7 5922   4.334   2.555  12.370
    4AHEP   H71 5923   4.315   2.663  12.359
    4AHEP   H72 5924   4.267   2.499  12.301
    4AHEP    O7 5925   4.469   2.536  12.324
    4AHEP   HO7 5926   4.522   2.599  12.373
    5AHEP    C1 5927   4.171   2.053  12.883
    5AHEP    H1 5928   4.075   2.083  12.835
    5AHEP    C5 5929   4.308   1.865  12.932
    5AHEP    H5 5930   4.394   1.926  12.896
    5AHEP    O5 5931   4.189   1.912  12.865
    5AHEP    C2 5932   4.160   2.082  13.033
    5AHEP    H2 5933   4.153   2.193  13.045
    5AHEP    O2 5934   4.038   2.025  13.084
    5AHEP   HO2 5935   3.974   2.095  13.100
    5AHEP    C3 5936   4.284   2.035  13.109
    5AHEP    H3 5937   4.373   2.089  13.068
    5AHEP    O3 5938   4.280   2.055  13.252
    5AHEP    C4 5939   4.300   1.887  13.082
    5AHEP    H4 5940   4.210   1.831  13.121
    5AHEP    O4 5941   4.423   1.843  13.141
    5AHEP    P4 5942   4.418   1.733  13.267
    5AHEP  OP42 5943   4.562   1.730  13.317
    5AHEP  OP43 5944   4.381   1.599  13.204
    5AHEP  OP44 5945   4.317   1.784  13.369
    5AHEP    C6 5946   4.335   1.721  12.890
    5AHEP    H6 5947   4.428   1.694  12.938
    5AHEP    O6 5948   4.236   1.628  12.937
    5AHEP   HO6 5949   4.157   1.636  12.885
    5AHEP    C7 5950   4.361   1.706  12.742
    5AHEP   H71 5951   4.442   1.629  12.729
    5AHEP   H72 5952   4.401   1.799  12.697
    5AHEP    O7 5953   4.245   1.654  12.677
    6AHEP    C1 5954   4.170   1.753  12.614
    6AHEP    H1 5955   4.206   1.855  12.639
    6AHEP    C5 5956   4.134   1.608  12.432
    6AHEP    H5 5957   4.192   1.531  12.489
    6AHEP    O5 5958   4.182   1.737  12.473
    6AHEP    C2 5959   4.025   1.743  12.658
    6AHEP    H2 5960   4.025   1.754  12.769
    6AHEP    O2 5961   3.952   1.855  12.609
    6AHEP   HO2 5962   3.929   1.911  12.683
    6AHEP    C3 5963   3.969   1.606  12.619
    6AHEP    H3 5964   4.029   1.530  12.674
    6AHEP    O3 5965   3.831   1.586  12.653
    6AHEP   HO3 5966   3.817   1.543  12.737
    6AHEP    C4 5967   3.987   1.590  12.469
    6AHEP    H4 5968   3.924   1.664  12.415
    6AHEP    O4 5969   3.949   1.459  12.425
    6AHEP   HO4 5970   4.014   1.398  12.457
    6AHEP    C6 5971   4.167   1.577  12.286
    6AHEP    H6 5972   4.141   1.471  12.270
    6AHEP    O6 5973   4.084   1.643  12.192
    6AHEP   HO6 5974   4.133   1.708  12.139
    6AHEP    C7 5975   4.316   1.585  12.255
    6AHEP   H71 5976   4.332   1.549  12.150
    6AHEP   H72 5977   4.370   1.521  12.326
    6AHEP    O7 5978   4.376   1.713  12.264
    6AHEP   HO7 5979   4.383   1.739  12.356
    7AGLC    C1 5980   4.335   2.174  13.302
    7AGLC    H1 5981   4.433   2.197  13.252
    7AGLC    C5 5982   4.119   2.267  13.346
    7AGLC    H5 5983   4.073   2.169  13.318
    7AGLC    O5 5984   4.246   2.282  13.279
    7AGLC    C2 5985   4.360   2.176  13.453
    7AGLC    H2 5986   4.390   2.279  13.479
    7AGLC    O2 5987   4.471   2.097  13.494
    7AGLC   HO2 5988   4.442   2.003  13.492
    7AGLC    C3 5989   4.235   2.150  13.533
    7AGLC    H3 5990   4.191   2.055  13.497
    7AGLC    O3 5991   4.261   2.137  13.676
    7AGLC    C4 5992   4.142   2.265  13.497
    7AGLC    H4 5993   4.188   2.362  13.529
    7AGLC    O4 5994   4.018   2.245  13.563
    7AGLC   HO4 5995   3.985   2.327  13.603
    7AGLC    C6 5996   4.026   2.373  13.287
    7AGLC   H61 5997   4.020   2.357  13.177
    7AGLC   H62 5998   3.922   2.364  13.325
    7AGLC    O6 5999   4.072   2.506  13.310
    7AGLC   HO6 6000   4.031   2.538  13.388
    8AGLC    C1 6001   4.223   2.011  13.729
    8AGLC    H1 6002   4.124   1.981  13.687
    8AGLC    C5 6003   4.448   1.917  13.758
    8AGLC    H5 6004   4.491   2.013  13.724
    8AGLC    O5 6005   4.317   1.906  13.697
    8AGLC    C2 6006   4.206   2.012  13.880
    8AGLC    H2 6007   4.168   1.911  13.906
    8AGLC    O2 6008   4.111   2.106  13.931
    8AGLC    C3 6009   4.338   2.033  13.949
    8AGLC    H3 6010   4.379   2.129  13.909
    8AGLC    O3 6011   4.313   2.049  14.090
    8AGLC    C4 6012   4.429   1.919  13.909
    8AGLC    H4 6013   4.380   1.823  13.939
    8AGLC    O4 6014   4.554   1.927  13.977
    8AGLC   HO4 6015   4.585   2.017  13.977
    8AGLC    C6 6016   4.550   1.810  13.711
    8AGLC   H61 6017   4.551   1.799  13.599
    8AGLC   H62 6018   4.654   1.841  13.738
    8AGLC    O6 6019   4.528   1.683  13.773
    8AGLC   HO6 6020   4.576   1.682  13.855
    9AGAL    C1 6021   3.981   2.102  13.879
    9AGAL    H1 6022   3.982   2.100  13.769
    9AGAL    C5 6023   3.884   1.989  14.064
    9AGAL    H5 6024   3.984   2.005  14.111
    9AGAL    O5 6025   3.905   1.987  13.922
    9AGAL    C2 6026   3.911   2.232  13.920
    9AGAL    H2 6027   3.811   2.229  13.873
    9AGAL    O2 6028   3.985   2.340  13.857
    9AGAL    C3 6029   3.889   2.236  14.069
    9AGAL    H3 6030   3.985   2.234  14.125
    9AGAL    O3 6031   3.825   2.357  14.108
    9AGAL   HO3 6032   3.868   2.426  14.055
    9AGAL    C4 6033   3.805   2.113  14.105
    9AGAL    H4 6034   3.788   2.110  14.215
    9AGAL    O4 6035   3.676   2.116  14.043
    9AGAL   HO4 6036   3.618   2.060  14.094
    9AGAL    C6 6037   3.835   1.855  14.121
    9AGAL   H61 6038   3.909   1.776  14.097
    9AGAL   H62 6039   3.829   1.866  14.231
    9AGAL    O6 6040   3.708   1.804  14.077
    9AGAL   HO6 6041   3.723   1.758  13.994
   10AGAL    C1 6042   4.009   2.469  13.912
   10AGAL    H1 6043   3.913   2.526  13.920
   10AGAL    C5 6044   4.207   2.412  14.041
   10AGAL    H5 6045   4.192   2.309  14.001
   10AGAL    O5 6046   4.075   2.470  14.041
   10AGAL    C2 6047   4.097   2.543  13.813
   10AGAL    H2 6048   4.109   2.647  13.849
   10AGAL    O2 6049   4.035   2.561  13.686
   10AGAL   HO2 6050   4.055   2.654  13.668
   10AGAL    C3 6051   4.234   2.477  13.807
   10AGAL    H3 6052   4.219   2.369  13.781
   10AGAL    O3 6053   4.317   2.531  13.706
   10AGAL   HO3 6054   4.334   2.467  13.637
   10AGAL    C4 6055   4.298   2.484  13.944
   10AGAL    H4 6056   4.396   2.432  13.944
   10AGAL    O4 6057   4.317   2.619  13.984
   10AGAL   HO4 6058   4.230   2.658  13.997
   10AGAL    C6 6059   4.271   2.389  14.179
   10AGAL   H61 6060   4.197   2.341  14.245
   10AGAL   H62 6061   4.355   2.316  14.164
   10AGAL    O6 6062   4.325   2.502  14.249
   10AGAL   HO6 6063   4.272   2.517  14.327
   11BGLC    C1 6064   4.322   1.942  14.184
   11BGLC    H1 6065   4.429   1.916  14.199
   11BGLC    C5 6066   4.242   1.720  14.248
   11BGLC    H5 6067   4.345   1.683  14.272
   11BGLC    O5 6068   4.241   1.826  14.149
   11BGLC    C2 6069   4.267   1.998  14.315
   11BGLC    H2 6070   4.161   2.032  14.300
   11BGLC    O2 6071   4.339   2.112  14.357
   11BGLC   HO2 6072   4.283   2.188  14.363
   11BGLC    C3 6073   4.266   1.897  14.427
   11BGLC    H3 6074   4.370   1.867  14.454
   11BGLC    O3 6075   4.197   1.954  14.541
   11BGLC    C4 6076   4.185   1.779  14.379
   11BGLC    H4 6077   4.085   1.821  14.356
   11BGLC    O4 6078   4.174   1.683  14.484
   11BGLC   HO4 6079   4.109   1.717  14.548
   11BGLC    C6 6080   4.167   1.599  14.188
   11BGLC   H61 6081   4.131   1.528  14.266
   11BGLC   H62 6082   4.080   1.634  14.129
   11BGLC    O6 6083   4.245   1.522  14.097
   11BGLC   HO6 6084   4.271   1.436  14.133
   12BGLCN   C1 6085   4.260   1.953  14.668
   12BGLCN   H1 6086   4.330   2.040  14.674
   12BGLCN   C5 6087   4.396   1.837  14.825
   12BGLCN   H5 6088   4.467   1.923  14.832
   12BGLCN   O5 6089   4.333   1.834  14.695
   12BGLCN   C2 6090   4.149   1.967  14.771
   12BGLCN   H2 6091   4.090   1.871  14.767
   12BGLCN    N 6092   4.068   2.082  14.740
   12BGLCN   HN 6093   4.118   2.166  14.735
   12BGLCN    C 6094   3.935   2.076  14.728
   12BGLCN    O 6095   3.873   1.973  14.747
   12BGLCN   CT 6096   3.863   2.202  14.691
   12BGLCN  HT1 6097   3.803   2.237  14.777
   12BGLCN  HT2 6098   3.792   2.183  14.608
   12BGLCN  HT3 6099   3.936   2.278  14.660
   12BGLCN   C3 6100   4.205   1.976  14.912
   12BGLCN   H3 6101   4.270   2.067  14.917
   12BGLCN   O3 6102   4.101   1.994  15.013
   12BGLCN   C4 6103   4.288   1.850  14.933
   12BGLCN   H4 6104   4.222   1.760  14.926
   12BGLCN   O4 6105   4.345   1.850  15.062
   12BGLCN  HO4 6106   4.417   1.913  15.065
   12BGLCN   C6 6107   4.479   1.710  14.832
   12BGLCN  H61 6108   4.532   1.700  14.929
   12BGLCN  H62 6109   4.411   1.624  14.822
   12BGLCN   O6 6110   4.574   1.703  14.726
   12BGLCN  HO6 6111   4.656   1.747  14.751
   13AGAL    C1 6112   4.132   2.083  15.120
   13AGAL    H1 6113   4.238   2.067  15.151
   13AGAL    C5 6114   3.969   2.251  15.064
   13AGAL    H5 6115   3.934   2.173  14.991
   13AGAL    O5 6116   4.109   2.221  15.085
   13AGAL    C2 6117   4.049   2.062  15.247
   13AGAL    H2 6118   4.080   2.144  15.316
   13AGAL    O2 6119   4.083   1.938  15.311
   13AGAL    C3 6120   3.900   2.086  15.226
   13AGAL    H3 6121   3.867   2.026  15.139
   13AGAL    O3 6122   3.820   2.047  15.338
   13AGAL   HO3 6123   3.740   1.999  15.310
   13AGAL    C4 6124   3.883   2.231  15.189
   13AGAL    H4 6125   3.776   2.247  15.160
   13AGAL    O4 6126   3.913   2.323  15.295
   13AGAL   HO4 6127   3.994   2.299  15.340
   13AGAL    C6 6128   3.938   2.380  14.991
   13AGAL   H61 6129   3.997   2.383  14.897
   13AGAL   H62 6130   3.829   2.380  14.967
   13AGAL    O6 6131   3.965   2.499  15.063
   13AGAL   HO6 6132   3.902   2.511  15.135
   14ARHM    C1 6133   4.148   1.947  15.437
   14ARHM    H1 6134   4.209   2.040  15.440
   14ARHM    C5 6135   4.177   1.714  15.457
   14ARHM    H5 6136   4.128   1.710  15.359
   14ARHM    O5 6137   4.242   1.841  15.456
   14ARHM    C2 6138   4.045   1.946  15.548
   14ARHM    H2 6139   3.974   2.029  15.529
   14ARHM    O2 6140   4.094   1.955  15.683
   14ARHM    C3 6141   3.972   1.814  15.543
   14ARHM    H3 6142   3.934   1.798  15.439
   14ARHM    O3 6143   3.858   1.814  15.629
   14ARHM   HO3 6144   3.887   1.804  15.720
   14ARHM    C4 6145   4.073   1.704  15.569
   14ARHM    H4 6146   4.128   1.720  15.665
   14ARHM    O4 6147   4.011   1.575  15.575
   14ARHM   HO4 6148   4.008   1.541  15.666
   14ARHM    C6 6149   4.284   1.604  15.463
   14ARHM   H61 6150   4.368   1.625  15.395
   14ARHM   H62 6151   4.318   1.597  15.568
   14ARHM   H63 6152   4.244   1.505  15.433
   15ARHM    C1 6153   4.181   2.061  15.711
   15ARHM    H1 6154   4.162   2.145  15.641
   15ARHM    C5 6155   4.364   1.926  15.800
   15ARHM    H5 6156   4.315   1.827  15.782
   15ARHM    O5 6157   4.321   2.025  15.704
   15ARHM    C2 6158   4.149   2.111  15.850
   15ARHM    H2 6159   4.039   2.131  15.857
   15ARHM    O2 6160   4.222   2.234  15.866
   15ARHM    C3 6161   4.184   2.004  15.949
   15ARHM    H3 6162   4.131   1.910  15.920
   15ARHM    O3 6163   4.132   2.045  16.076
   15ARHM    C4 6164   4.332   1.978  15.939
   15ARHM    H4 6165   4.386   2.075  15.952
   15ARHM    O4 6166   4.383   1.890  16.039
   15ARHM   HO4 6167   4.480   1.893  16.033
   15ARHM    C6 6168   4.515   1.903  15.783
   15ARHM   H61 6169   4.553   1.816  15.840
   15ARHM   H62 6170   4.537   1.889  15.675
   15ARHM   H63 6171   4.573   1.991  15.818
   16BMANN   C1 6172   4.212   2.307  15.987
   16BMANN   H1 6173   4.264   2.250  16.068
   16BMANN   C5 6174   4.074   2.402  16.155
   16BMANN   H5 6175   4.130   2.341  16.231
   16BMANN   O5 6176   4.078   2.335  16.027
   16BMANN   C2 6177   4.286   2.439  15.967
   16BMANN   H2 6178   4.391   2.413  15.940
   16BMANN    N 6179   4.233   2.525  15.862
   16BMANN   HN 6180   4.167   2.594  15.892
   16BMANN    C 6181   4.275   2.528  15.735
   16BMANN    O 6182   4.362   2.454  15.691
   16BMANN   CT 6183   4.201   2.623  15.646
   16BMANN  HT1 6184   4.265   2.711  15.623
   16BMANN  HT2 6185   4.106   2.658  15.691
   16BMANN  HT3 6186   4.180   2.571  15.553
   16BMANN   C3 6187   4.286   2.512  16.100
   16BMANN   H3 6188   4.336   2.447  16.176
   16BMANN   O3 6189   4.362   2.631  16.091
   16BMANN  HO3 6190   4.417   2.631  16.170
   16BMANN   C4 6191   4.143   2.537  16.147
   16BMANN   H4 6192   4.090   2.601  16.073
   16BMANN   O4 6193   4.135   2.603  16.273
   16BMANN  HO4 6194   4.050   2.649  16.278
   16BMANN   C6 6195   3.933   2.418  16.208
   16BMANN  H61 6196   3.942   2.422  16.317
   16BMANN  H62 6197   3.889   2.514  16.176
   16BMANN   O6 6198   3.841   2.314  16.175
   16BMANN  HO6 6199   3.772   2.356  16.122
   17BGLCN   C1 6200   4.074   1.942  16.150
   17BGLCN   H1 6201   4.133   1.849  16.134
   17BGLCN   C5 6202   3.875   1.813  16.192
   17BGLCN   H5 6203   3.927   1.717  16.172
   17BGLCN   O5 6204   3.938   1.918  16.115
   17BGLCN   C2 6205   4.083   1.989  16.294
   17BGLCN   H2 6206   4.020   2.080  16.311
   17BGLCN    N 6207   4.220   2.027  16.324
   17BGLCN   HN 6208   4.291   1.980  16.272
   17BGLCN    C 6209   4.260   2.114  16.417
   17BGLCN    O 6210   4.186   2.185  16.483
   17BGLCN   CT 6211   4.410   2.117  16.440
   17BGLCN  HT1 6212   4.458   2.203  16.389
   17BGLCN  HT2 6213   4.452   2.021  16.405
   17BGLCN  HT3 6214   4.430   2.126  16.549
   17BGLCN   C3 6215   4.031   1.876  16.379
   17BGLCN   H3 6216   4.088   1.786  16.346
   17BGLCN   O3 6217   4.061   1.900  16.519
   17BGLCN   C4 6218   3.885   1.853  16.341
   17BGLCN   H4 6219   3.828   1.948  16.352
   17BGLCN   O4 6220   3.823   1.755  16.423
   17BGLCN  HO4 6221   3.727   1.755  16.413
   17BGLCN   C6 6222   3.729   1.795  16.148
   17BGLCN  H61 6223   3.700   1.688  16.153
   17BGLCN  H62 6224   3.661   1.850  16.217
   17BGLCN   O6 6225   3.703   1.841  16.015
   17BGLCN  HO6 6226   3.761   1.796  15.953
   18AGAL    C1 6227   4.091   1.786  16.598
   18AGAL    H1 6228   3.997   1.730  16.617
   18AGAL    C5 6229   4.315   1.757  16.522
   18AGAL    H5 6230   4.302   1.857  16.477
   18AGAL    O5 6231   4.185   1.698  16.535
   18AGAL    C2 6232   4.154   1.820  16.733
   18AGAL    H2 6233   4.174   1.719  16.776
   18AGAL    O2 6234   4.062   1.881  16.824
   18AGAL    C3 6235   4.290   1.888  16.721
   18AGAL    H3 6236   4.278   1.976  16.653
   18AGAL    O3 6237   4.343   1.938  16.845
   18AGAL   HO3 6238   4.372   2.029  16.835
   18AGAL    C4 6239   4.384   1.790  16.653
   18AGAL    H4 6240   4.482   1.838  16.630
   18AGAL    O4 6241   4.411   1.675  16.733
   18AGAL   HO4 6242   4.467   1.705  16.806
   18AGAL    C6 6243   4.391   1.687  16.413
   18AGAL   H61 6244   4.332   1.702  16.320
   18AGAL   H62 6245   4.491   1.736  16.400
   18AGAL    O6 6246   4.403   1.546  16.432
   18AGAL   HO6 6247   4.357   1.522  16.513
   19ARHM    C1 6248   4.076   1.828  16.954
   19ARHM    H1 6249   4.180   1.794  16.972
   19ARHM    C5 6250   3.854   1.742  16.960
   19ARHM    H5 6251   3.842   1.783  16.857
   19ARHM    O5 6252   3.993   1.713  16.979
   19ARHM    C2 6253   4.038   1.938  17.047
   19ARHM    H2 6254   4.094   2.032  17.023
   19ARHM    O2 6255   4.071   1.900  17.182
   19ARHM    C3 6256   3.892   1.971  17.032
   19ARHM    H3 6257   3.872   2.000  16.926
   19ARHM    O3 6258   3.857   2.080  17.115
   19ARHM   HO3 6259   3.886   2.062  17.204
   19ARHM    C4 6260   3.810   1.848  17.059
   19ARHM    H4 6261   3.836   1.813  17.160
   19ARHM    O4 6262   3.670   1.872  17.052
   19ARHM   HO4 6263   3.651   1.887  16.958
   19ARHM    C6 6264   3.775   1.611  16.964
   19ARHM   H61 6265   3.818   1.547  16.884
   19ARHM   H62 6266   3.782   1.558  17.060
   19ARHM   H63 6267   3.668   1.630  16.943
   20ARHM    C1 6268   4.210   1.905  17.207
   20ARHM    H1 6269   4.264   1.955  17.123
   20ARHM    C5 6270   4.218   1.704  17.333
   20ARHM    H5 6271   4.108   1.694  17.318
   20ARHM    O5 6272   4.271   1.776  17.221
   20ARHM    C2 6273   4.229   1.986  17.332
   20ARHM    H2 6274   4.171   2.081  17.321
   20ARHM    O2 6275   4.368   2.013  17.353
   20ARHM    C3 6276   4.174   1.913  17.450
   20ARHM    H3 6277   4.066   1.895  17.433
   20ARHM    O3 6278   4.192   1.998  17.563
   20ARHM    C4 6279   4.246   1.781  17.461
   20ARHM    H4 6280   4.357   1.793  17.469
   20ARHM    O4 6281   4.202   1.709  17.575
   20ARHM   HO4 6282   4.207   1.617  17.547
   20ARHM    C6 6283   4.277   1.563  17.332
   20ARHM   H61 6284   4.387   1.562  17.346
   20ARHM   H62 6285   4.232   1.502  17.413
   20ARHM   H63 6286   4.257   1.512  17.235
   21BMANN   C1 6287   4.406   2.124  17.278
   21BMANN   H1 6288   4.324   2.153  17.209
   21BMANN   C5 6289   4.538   2.209  17.101
   21BMANN   H5 6290   4.444   2.236  17.045
   21BMANN   O5 6291   4.513   2.097  17.188
   21BMANN   C2 6292   4.440   2.239  17.371
   21BMANN   H2 6293   4.346   2.258  17.429
   21BMANN    N 6294   4.550   2.212  17.464
   21BMANN   HN 6295   4.626   2.161  17.426
   21BMANN    C 6296   4.553   2.252  17.594
   21BMANN    O 6297   4.473   2.331  17.640
   21BMANN   CT 6298   4.661   2.194  17.683
   21BMANN  HT1 6299   4.757   2.245  17.665
   21BMANN  HT2 6300   4.670   2.085  17.667
   21BMANN  HT3 6301   4.635   2.210  17.790
   21BMANN   C3 6302   4.468   2.358  17.282
   21BMANN   H3 6303   4.376   2.375  17.225
   21BMANN   O3 6304   4.492   2.477  17.355
   21BMANN  HO3 6305   4.564   2.461  17.417
   21BMANN   C4 6306   4.578   2.330  17.182
   21BMANN   H4 6307   4.673   2.309  17.237
   21BMANN   O4 6308   4.605   2.438  17.093
   21BMANN  HO4 6309   4.691   2.475  17.112
   21BMANN   C6 6310   4.642   2.177  16.999
   21BMANN  H61 6311   4.636   2.252  16.918
   21BMANN  H62 6312   4.743   2.186  17.045
   21BMANN   O6 6313   4.625   2.048  16.942
   21BMANN  HO6 6314   4.639   1.984  17.012
   22BGLCN   C1 6315   4.091   1.992  17.660
   22BGLCN   H1 6316   4.039   1.894  17.661
   22BGLCN   C5 6317   3.895   2.095  17.746
   22BGLCN   H5 6318   3.847   1.994  17.747
   22BGLCN   O5 6319   3.995   2.097  17.642
   22BGLCN   C2 6320   4.162   2.012  17.791
   22BGLCN   H2 6321   4.213   2.112  17.786
   22BGLCN    N 6322   4.261   1.908  17.809
   22BGLCN   HN 6323   4.236   1.818  17.776
   22BGLCN    C 6324   4.378   1.925  17.871
   22BGLCN    O 6325   4.415   2.031  17.921
   22BGLCN   CT 6326   4.465   1.806  17.876
   22BGLCN  HT1 6327   4.535   1.811  17.790
   22BGLCN  HT2 6328   4.406   1.716  17.863
   22BGLCN  HT3 6329   4.520   1.795  17.973
   22BGLCN   C3 6330   4.062   2.010  17.904
   22BGLCN   H3 6331   4.008   1.913  17.901
   22BGLCN   O3 6332   4.139   2.018  18.026
   22BGLCN   C4 6333   3.961   2.120  17.882
   22BGLCN   H4 6334   4.017   2.217  17.877
   22BGLCN   O4 6335   3.866   2.128  17.988
   22BGLCN  HO4 6336   3.850   2.219  18.013
   22BGLCN   C6 6337   3.792   2.199  17.711
   22BGLCN  H61 6338   3.732   2.219  17.802
   22BGLCN  H62 6339   3.841   2.294  17.681
   22BGLCN   O6 6340   3.700   2.154  17.612
   22BGLCN  HO6 6341   3.746   2.129  17.531
   23AGAL    C1 6342   4.081   1.976  18.146
   23AGAL    H1 6343   4.009   2.054  18.181
   23AGAL    C5 6344   4.095   1.740  18.109
   23AGAL    H5 6345   4.156   1.762  18.018
   23AGAL    O5 6346   4.009   1.853  18.135
   23AGAL    C2 6347   4.185   1.964  18.254
   23AGAL    H2 6348   4.130   1.935  18.346
   23AGAL    O2 6349   4.252   2.090  18.279
   23AGAL    C3 6350   4.279   1.848  18.224
   23AGAL    H3 6351   4.321   1.862  18.123
   23AGAL    O3 6352   4.390   1.843  18.313
   23AGAL   HO3 6353   4.359   1.855  18.402
   23AGAL    C4 6354   4.197   1.720  18.222
   23AGAL    H4 6355   4.262   1.632  18.198
   23AGAL    O4 6356   4.130   1.695  18.346
   23AGAL   HO4 6357   4.055   1.639  18.320
   23AGAL    C6 6358   4.008   1.622  18.070
   23AGAL   H61 6359   3.935   1.655  17.993
   23AGAL   H62 6360   4.069   1.543  18.021
   23AGAL    O6 6361   3.933   1.569  18.179
   23AGAL   HO6 6362   3.886   1.492  18.145
   24ARHM    C1 6363   4.189   2.183  18.365
   24ARHM    H1 6364   4.081   2.158  18.375
   24ARHM    C5 6365   4.328   2.368  18.300
   24ARHM    H5 6366   4.379   2.298  18.230
   24ARHM    O5 6367   4.194   2.319  18.319
   24ARHM    C2 6368   4.261   2.173  18.497
   24ARHM    H2 6369   4.264   2.066  18.529
   24ARHM    O2 6370   4.200   2.255  18.597
   24ARHM    C3 6371   4.403   2.219  18.478
   24ARHM    H3 6372   4.449   2.156  18.399
   24ARHM    O3 6373   4.480   2.197  18.595
   24ARHM   HO3 6374   4.473   2.274  18.654
   24ARHM    C4 6375   4.403   2.363  18.431
   24ARHM    H4 6376   4.346   2.424  18.503
   24ARHM    O4 6377   4.534   2.416  18.417
   24ARHM   HO4 6378   4.538   2.510  18.439
   24ARHM    C6 6379   4.326   2.506  18.232
   24ARHM   H61 6380   4.421   2.517  18.177
   24ARHM   H62 6381   4.246   2.512  18.157
   24ARHM   H63 6382   4.313   2.590  18.304
   25ARHM    C1 6383   4.083   2.202  18.651
   25ARHM    H1 6384   4.043   2.124  18.583
   25ARHM    C5 6385   4.004   2.402  18.757
   25ARHM    H5 6386   4.095   2.457  18.722
   25ARHM    O5 6387   3.975   2.297  18.663
   25ARHM    C2 6388   4.115   2.139  18.783
   25ARHM    H2 6389   4.206   2.075  18.773
   25ARHM    O2 6390   4.004   2.059  18.825
   25ARHM    C3 6391   4.147   2.248  18.882
   25ARHM    H3 6392   4.235   2.306  18.845
   25ARHM    O3 6393   4.175   2.184  19.007
   25ARHM    C4 6394   4.033   2.344  18.895
   25ARHM    H4 6395   3.940   2.290  18.927
   25ARHM    O4 6396   4.064   2.442  18.994
   25ARHM   HO4 6397   3.980   2.466  19.036
   25ARHM    C6 6398   3.889   2.505  18.758
   25ARHM   H61 6399   3.866   2.538  18.654
   25ARHM   H62 6400   3.797   2.462  18.802
   25ARHM   H63 6401   3.919   2.595  18.816
   26BMANN   C1 6402   3.997   1.932  18.764
   26BMANN   H1 6403   4.096   1.902  18.722
   26BMANN   C5 6404   3.899   1.796  18.595
   26BMANN   H5 6405   4.001   1.777  18.554
   26BMANN   O5 6406   3.901   1.926  18.657
   26BMANN   C2 6407   3.960   1.835  18.871
   26BMANN   H2 6408   4.041   1.844  18.948
   26BMANN    N 6409   3.829   1.867  18.929
   26BMANN   HN 6410   3.754   1.877  18.865
   26BMANN    C 6411   3.806   1.882  19.060
   26BMANN    O 6412   3.896   1.884  19.142
   26BMANN   CT 6413   3.661   1.891  19.102
   26BMANN  HT1 6414   3.600   1.932  19.019
   26BMANN  HT2 6415   3.645   1.948  19.195
   26BMANN  HT3 6416   3.627   1.787  19.122
   26BMANN   C3 6417   3.966   1.697  18.811
   26BMANN   H3 6418   4.068   1.679  18.769
   26BMANN   O3 6419   3.947   1.598  18.912
   26BMANN  HO3 6420   4.029   1.596  18.963
   26BMANN   C4 6421   3.865   1.689  18.698
   26BMANN   H4 6422   3.762   1.706  18.735
   26BMANN   O4 6423   3.866   1.561  18.637
   26BMANN  HO4 6424   3.813   1.503  18.692
   26BMANN   C6 6425   3.805   1.804  18.475
   26BMANN  H61 6426   3.816   1.904  18.427
   26BMANN  H62 6427   3.831   1.727  18.400
   26BMANN   O6 6428   3.667   1.787  18.509
   26BMANN  HO6 6429   3.655   1.702  18.551
   27BGLCN   C1 6430   4.279   2.236  19.083
   27BGLCN   H1 6431   4.284   2.345  19.077
   27BGLCN   C5 6432   4.512   2.230  19.128
   27BGLCN   H5 6433   4.509   2.341  19.130
   27BGLCN   O5 6434   4.405   2.182  19.044
   27BGLCN   C2 6435   4.246   2.188  19.223
   27BGLCN   H2 6436   4.249   2.077  19.220
   27BGLCN    N 6437   4.114   2.231  19.266
   27BGLCN   HN 6438   4.087   2.323  19.241
   27BGLCN    C 6439   4.031   2.148  19.332
   27BGLCN    O 6440   4.071   2.048  19.390
   27BGLCN   CT 6441   3.884   2.180  19.337
   27BGLCN  HT1 6442   3.861   2.266  19.272
   27BGLCN  HT2 6443   3.851   2.199  19.441
   27BGLCN  HT3 6444   3.828   2.091  19.302
   27BGLCN   C3 6445   4.353   2.233  19.318
   27BGLCN   H3 6446   4.358   2.345  19.314
   27BGLCN   O3 6447   4.308   2.190  19.449
   27BGLCN   C4 6448   4.486   2.181  19.270
   27BGLCN   H4 6449   4.486   2.069  19.269
   27BGLCN   O4 6450   4.589   2.226  19.355
   27BGLCN  HO4 6451   4.602   2.320  19.343
   27BGLCN   C6 6452   4.646   2.192  19.068
   27BGLCN  H61 6453   4.727   2.247  19.122
   27BGLCN  H62 6454   4.665   2.084  19.082
   27BGLCN   O6 6455   4.655   2.225  18.929
   27BGLCN  HO6 6456   4.740   2.196  18.894
   28AGAL    C1 6457   4.367   2.251  19.561
   28AGAL    H1 6458   4.471   2.213  19.569
   28AGAL    C5 6459   4.240   2.454  19.549
   28AGAL    H5 6460   4.171   2.399  19.479
   28AGAL    O5 6461   4.371   2.394  19.541
   28AGAL    C2 6462   4.301   2.223  19.698
   28AGAL    H2 6463   4.369   2.280  19.766
   28AGAL    O2 6464   4.301   2.088  19.746
   28AGAL    C3 6465   4.162   2.285  19.706
   28AGAL    H3 6466   4.103   2.244  19.621
   28AGAL    O3 6467   4.083   2.259  19.824
   28AGAL   HO3 6468   4.008   2.204  19.800
   28AGAL    C4 6469   4.177   2.433  19.685
   28AGAL    H4 6470   4.075   2.477  19.686
   28AGAL    O4 6471   4.255   2.494  19.787
   28AGAL   HO4 6472   4.198   2.545  19.846
   28AGAL    C6 6473   4.243   2.598  19.500
   28AGAL   H61 6474   4.265   2.598  19.392
   28AGAL   H62 6475   4.145   2.647  19.512
   28AGAL    O6 6476   4.335   2.683  19.567
   28AGAL   HO6 6477   4.424   2.669  19.533
   29ARHM    C1 6478   4.332   2.087  19.884
   29ARHM    H1 6479   4.303   2.182  19.932
   29ARHM    C5 6480   4.517   1.941  19.851
   29ARHM    H5 6481   4.489   1.940  19.743
   29ARHM    O5 6482   4.472   2.064  19.907
   29ARHM    C2 6483   4.255   1.978  19.953
   29ARHM    H2 6484   4.146   1.993  19.929
   29ARHM    O2 6485   4.275   1.984  20.097
   29ARHM    C3 6486   4.297   1.845  19.897
   29ARHM    H3 6487   4.277   1.843  19.787
   29ARHM    O3 6488   4.217   1.742  19.953
   29ARHM   HO3 6489   4.273   1.665  19.960
   29ARHM    C4 6490   4.446   1.822  19.918
   29ARHM    H4 6491   4.470   1.824  20.027
   29ARHM    O4 6492   4.490   1.694  19.870
   29ARHM   HO4 6493   4.461   1.676  19.781
   29ARHM    C6 6494   4.669   1.949  19.859
   29ARHM   H61 6495   4.700   2.046  19.814
   29ARHM   H62 6496   4.705   1.946  19.964
   29ARHM   H63 6497   4.715   1.867  19.800
   30ARHM    C1 6498   4.177   2.050  20.173
   30ARHM    H1 6499   4.077   2.006  20.152
   30ARHM    C5 6500   4.297   2.257  20.186
   30ARHM    H5 6501   4.376   2.205  20.127
   30ARHM    O5 6502   4.172   2.193  20.153
   30ARHM    C2 6503   4.210   2.027  20.319
   30ARHM    H2 6504   4.216   1.917  20.339
   30ARHM    O2 6505   4.108   2.089  20.396
   30ARHM    C3 6506   4.341   2.092  20.358
   30ARHM    H3 6507   4.418   2.052  20.288
   30ARHM    O3 6508   4.383   2.053  20.491
   30ARHM    C4 6509   4.330   2.240  20.332
   30ARHM    H4 6510   4.248   2.286  20.392
   30ARHM    O4 6511   4.447   2.312  20.366
   30ARHM   HO4 6512   4.518   2.304  20.302
   30ARHM    C6 6513   4.294   2.404  20.142
   30ARHM   H61 6514   4.394   2.449  20.159
   30ARHM   H62 6515   4.274   2.410  20.034
   30ARHM   H63 6516   4.218   2.461  20.199
   31BMANN   C1 6517   4.000   2.007  20.427
   31BMANN   H1 6518   4.035   1.905  20.452
   31BMANN   C5 6519   3.787   1.926  20.357
   31BMANN   H5 6520   3.828   1.826  20.386
   31BMANN   O5 6521   3.902   2.006  20.323
   31BMANN   C2 6522   3.938   2.072  20.545
   31BMANN   H2 6523   4.013   2.065  20.628
   31BMANN    N 6524   3.911   2.213  20.519
   31BMANN   HN 6525   3.905   2.239  20.423
   31BMANN    C 6526   3.910   2.305  20.615
   31BMANN    O 6527   3.933   2.274  20.731
   31BMANN   CT 6528   3.879   2.445  20.570
   31BMANN  HT1 6529   3.799   2.442  20.494
   31BMANN  HT2 6530   3.970   2.492  20.527
   31BMANN  HT3 6531   3.846   2.508  20.656
   31BMANN   C3 6532   3.819   1.989  20.587
   31BMANN   H3 6533   3.852   1.884  20.604
   31BMANN   O3 6534   3.769   2.033  20.712
   31BMANN  HO3 6535   3.839   2.091  20.748
   31BMANN   C4 6536   3.717   1.986  20.477
   31BMANN   H4 6537   3.682   2.088  20.449
   31BMANN   O4 6538   3.601   1.910  20.511
   31BMANN  HO4 6539   3.625   1.829  20.556
   31BMANN   C6 6540   3.691   1.904  20.242
   31BMANN  H61 6541   3.619   1.824  20.270
   31BMANN  H62 6542   3.631   1.996  20.223
   31BMANN   O6 6543   3.756   1.866  20.120
   31BMANN  HO6 6544   3.793   1.777  20.126
   32BGLCN   C1 6545   4.326   2.124  20.598
   32BGLCN   H1 6546   4.220   2.146  20.577
   32BGLCN   C5 6547   4.324   2.322  20.729
   32BGLCN   H5 6548   4.219   2.338  20.695
   32BGLCN   O5 6549   4.392   2.247  20.627
   32BGLCN   C2 6550   4.329   2.038  20.722
   32BGLCN   H2 6551   4.437   2.030  20.751
   32BGLCN    N 6552   4.278   1.906  20.693
   32BGLCN   HN 6553   4.208   1.906  20.623
   32BGLCN    C 6554   4.321   1.790  20.745
   32BGLCN    O 6555   4.411   1.779  20.828
   32BGLCN   CT 6556   4.251   1.668  20.691
   32BGLCN  HT1 6557   4.200   1.698  20.597
   32BGLCN  HT2 6558   4.175   1.627  20.760
   32BGLCN  HT3 6559   4.324   1.587  20.668
   32BGLCN   C3 6560   4.251   2.110  20.829
   32BGLCN   H3 6561   4.152   2.135  20.784
   32BGLCN   O3 6562   4.226   2.030  20.946
   32BGLCN   C4 6563   4.323   2.240  20.857
   32BGLCN   H4 6564   4.428   2.216  20.887
   32BGLCN   O4 6565   4.262   2.313  20.961
   32BGLCN  HO4 6566   4.302   2.286  21.045
   32BGLCN   C6 6567   4.386   2.458  20.741
   32BGLCN  H61 6568   4.327   2.526  20.808
   32BGLCN  H62 6569   4.487   2.449  20.787
   32BGLCN   O6 6570   4.398   2.521  20.613
   32BGLCN  HO6 6571   4.318   2.509  20.561
   33AGAL    C1 6572   4.099   2.053  21.005
   33AGAL    H1 6573   4.072   2.160  20.997
   33AGAL    C5 6574   4.014   1.834  20.957
   33AGAL    H5 6575   4.118   1.817  20.920
   33AGAL    O5 6576   3.994   1.976  20.942
   33AGAL    C2 6577   4.104   2.013  21.151
   33AGAL    H2 6578   4.000   2.025  21.190
   33AGAL    O2 6579   4.183   2.108  21.224
   33AGAL    C3 6580   4.134   1.864  21.167
   33AGAL    H3 6581   4.226   1.839  21.108
   33AGAL    O3 6582   4.168   1.823  21.299
   33AGAL   HO3 6583   4.098   1.849  21.360
   33AGAL    C4 6584   4.019   1.786  21.102
   33AGAL    H4 6585   4.043   1.678  21.101
   33AGAL    O4 6586   3.893   1.795  21.168
   33AGAL   HO4 6587   3.880   1.872  21.223
   33AGAL    C6 6588   3.926   1.753  20.862
   33AGAL   H61 6589   3.956   1.783  20.760
   33AGAL   H62 6590   3.947   1.644  20.873
   33AGAL    O6 6591   3.785   1.769  20.875
   33AGAL   HO6 6592   3.751   1.847  20.828
   34ARHM    C1 6593   4.123   2.159  21.342
   34ARHM    H1 6594   4.087   2.072  21.401
   34ARHM    C5 6595   4.039   2.365  21.243
   34ARHM    H5 6596   4.075   2.332  21.143
   34ARHM    O5 6597   4.008   2.246  21.320
   34ARHM    C2 6598   4.233   2.232  21.417
   34ARHM    H2 6599   4.323   2.167  21.421
   34ARHM    O2 6600   4.197   2.267  21.554
   34ARHM    C3 6601   4.271   2.356  21.337
   34ARHM    H3 6602   4.306   2.324  21.236
   34ARHM    O3 6603   4.377   2.431  21.398
   34ARHM   HO3 6604   4.435   2.466  21.330
   34ARHM    C4 6605   4.149   2.442  21.317
   34ARHM    H4 6606   4.105   2.471  21.415
   34ARHM    O4 6607   4.183   2.562  21.248
   34ARHM   HO4 6608   4.227   2.625  21.305
   34ARHM    C6 6609   3.913   2.454  21.220
   34ARHM   H61 6610   3.866   2.488  21.314
   34ARHM   H62 6611   3.945   2.547  21.169
   34ARHM   H63 6612   3.838   2.406  21.155
   35ARHM    C1 6613   4.156   2.163  21.642
   35ARHM    H1 6614   4.217   2.072  21.623
   35ARHM    C5 6615   3.932   2.249  21.657
   35ARHM    H5 6616   3.958   2.331  21.587
   35ARHM    O5 6617   4.015   2.134  21.631
   35ARHM    C2 6618   4.182   2.207  21.786
   35ARHM    H2 6619   4.290   2.231  21.801
   35ARHM    O2 6620   4.146   2.103  21.878
   35ARHM    C3 6621   4.102   2.331  21.818
   35ARHM    H3 6622   4.129   2.412  21.747
   35ARHM    O3 6623   4.137   2.383  21.946
   35ARHM   HO3 6624   4.146   2.311  22.010
   35ARHM    C4 6625   3.954   2.299  21.800
   35ARHM    H4 6626   3.924   2.217  21.870
   35ARHM    O4 6627   3.872   2.414  21.824
   35ARHM   HO4 6628   3.921   2.493  21.798
   35ARHM    C6 6629   3.786   2.211  21.621
   35ARHM   H61 6630   3.773   2.191  21.513
   35ARHM   H62 6631   3.757   2.120  21.678
   35ARHM   H63 6632   3.718   2.296  21.645
   36BMANN   C1 6633   4.232   1.993  21.883
   36BMANN   H1 6634   4.333   2.023  21.849
   36BMANN   C5 6635   4.287   1.775  21.808
   36BMANN   H5 6636   4.387   1.817  21.779
   36BMANN   O5 6637   4.190   1.883  21.802
   36BMANN   C2 6638   4.238   1.947  22.027
   36BMANN   H2 6639   4.277   2.035  22.084
   36BMANN    N 6640   4.109   1.909  22.085
   36BMANN   HN 6641   4.044   1.864  22.025
   36BMANN    C 6642   4.083   1.923  22.218
   36BMANN    O 6643   4.159   1.981  22.295
   36BMANN   CT 6644   3.955   1.863  22.271
   36BMANN  HT1 6645   3.939   1.764  22.224
   36BMANN  HT2 6646   3.868   1.928  22.251
   36BMANN  HT3 6647   3.963   1.850  22.381
   36BMANN   C3 6648   4.342   1.837  22.037
   36BMANN   H3 6649   4.440   1.875  22.001
   36BMANN   O3 6650   4.359   1.794  22.171
   36BMANN  HO3 6651   4.448   1.803  22.208
   36BMANN   C4 6652   4.301   1.723  21.949
   36BMANN   H4 6653   4.203   1.682  21.981
   36BMANN   O4 6654   4.393   1.617  21.959
   36BMANN  HO4 6655   4.395   1.603  22.055
   36BMANN   C6 6656   4.257   1.667  21.708
   36BMANN  H61 6657   4.250   1.710  21.606
   36BMANN  H62 6658   4.344   1.597  21.706
   36BMANN   O6 6659   4.138   1.595  21.742
   36BMANN  HO6 6660   4.162   1.522  21.800
    1ECLIP HB6S 6661   4.427   5.891  11.778
    1ECLIP  OB6 6662   4.375   5.742  11.908
    1ECLIP  CB6 6663   4.464   5.791  11.806
    1ECLIP HB6R 6664   4.568   5.803  11.847
    1ECLIP  CB5 6665   4.475   5.706  11.680
    1ECLIP  OB5 6666   4.339   5.691  11.633
    1ECLIP  HB5 6667   4.519   5.608  11.710
    1ECLIP  CB1 6668   4.333   5.607  11.516
    1ECLIP  HB1 6669   4.379   5.507  11.534
    1ECLIP  OA6 6670   4.203   5.585  11.469
    1ECLIP  CA6 6671   4.109   5.691  11.492
    1ECLIP HA6R 6672   4.160   5.788  11.511
    1ECLIP HA6S 6673   4.046   5.663  11.580
    1ECLIP  CB4 6674   4.562   5.770  11.570
    1ECLIP  HB4 6675   4.525   5.871  11.541
    1ECLIP  OB4 6676   4.697   5.773  11.618
    1ECLIP   PB 6677   4.769   5.916  11.665
    1ECLIP OPB4 6678   4.861   5.892  11.785
    1ECLIP OPB3 6679   4.651   6.008  11.704
    1ECLIP OPB2 6680   4.849   5.971  11.547
    1ECLIP  CB3 6681   4.552   5.683  11.446
    1ECLIP  OB3 6682   4.614   5.741  11.331
    1ECLIP  HB3 6683   4.587   5.579  11.470
    1ECLIP  C71 6684   4.742   5.719  11.322
    1ECLIP  O71 6685   4.796   5.626  11.381
    1ECLIP  C72 6686   4.782   5.771  11.178
    1ECLIP H72R 6687   4.719   5.728  11.098
    1ECLIP H72S 6688   4.885   5.752  11.152
    1ECLIP  CB2 6689   4.409   5.670  11.403
    1ECLIP  HB2 6690   4.369   5.774  11.387
    1ECLIP  NB2 6691   4.399   5.589  11.282
    1ECLIP HNB2 6692   4.388   5.492  11.295
    1ECLIP  CA4 6693   3.971   5.575  11.318
    1ECLIP  HA4 6694   4.063   5.519  11.290
    1ECLIP  OA4 6695   3.900   5.507  11.422
    1ECLIP HOA4 6696   3.961   5.507  11.497
    1ECLIP  CA5 6697   4.021   5.707  11.370
    1ECLIP  HA5 6698   3.938   5.777  11.394
    1ECLIP  OA5 6699   4.103   5.765  11.269
    1ECLIP  CA1 6700   4.034   5.791  11.147
    1ECLIP  HA1 6701   4.117   5.818  11.078
    1ECLIP  OA1 6702   3.942   5.897  11.151
    1ECLIP OPA2 6703   3.912   6.059  11.338
    1ECLIP OPA3 6704   4.140   6.048  11.228
    1ECLIP OPA4 6705   3.934   6.143  11.100
    1ECLIP   PA 6706   3.989   6.046  11.207
    1ECLIP  CA3 6707   3.892   5.593  11.190
    1ECLIP  HA3 6708   3.801   5.652  11.210
    1ECLIP  OA3 6709   3.847   5.461  11.155
    1ECLIP  C31 6710   3.942   5.392  11.092
    1ECLIP  O31 6711   3.946   5.380  10.970
    1ECLIP  C32 6712   3.973   5.276  11.182
    1ECLIP H32R 6713   3.909   5.201  11.133
    1ECLIP H32S 6714   3.923   5.270  11.279
    1ECLIP  CA2 6715   3.982   5.662  11.088
    1ECLIP  HA2 6716   4.073   5.600  11.070
    1ECLIP  NA2 6717   3.914   5.682  10.959
    1ECLIP HNA2 6718   3.828   5.635  10.948
    1ECLIP  C73 6719   4.781   5.923  11.172
    1ECLIP H73R 6720   4.832   5.960  11.265
    1ECLIP  O73 6721   4.644   5.955  11.164
    1ECLIP  C81 6722   4.601   6.060  11.232
    1ECLIP  O81 6723   4.673   6.138  11.292
    1ECLIP  C82 6724   4.463   6.096  11.171
    1ECLIP H82R 6725   4.423   6.185  11.222
    1ECLIP H82S 6726   4.392   6.013  11.192
    1ECLIP  C83 6727   4.466   6.120  11.017
    1ECLIP H83R 6728   4.462   6.021  10.965
    1ECLIP H83S 6729   4.561   6.170  10.990
    1ECLIP  C84 6730   4.345   6.199  10.966
    1ECLIP H84R 6731   4.350   6.306  10.996
    1ECLIP H84S 6732   4.254   6.153  11.013
    1ECLIP  C85 6733   4.326   6.187  10.813
    1ECLIP H85R 6734   4.345   6.080  10.791
    1ECLIP H85S 6735   4.404   6.245  10.760
    1ECLIP  C86 6736   4.183   6.217  10.765
    1ECLIP H86R 6737   4.172   6.324  10.736
    1ECLIP H86S 6738   4.112   6.201  10.849
    1ECLIP  C87 6739   4.137   6.123  10.652
    1ECLIP H87R 6740   4.036   6.154  10.616
    1ECLIP H87S 6741   4.124   6.020  10.694
    1ECLIP  C88 6742   4.238   6.113  10.538
    1ECLIP H88R 6743   4.323   6.049  10.571
    1ECLIP H88S 6744   4.283   6.214  10.524
    1ECLIP  C89 6745   4.180   6.056  10.408
    1ECLIP H89R 6746   4.086   5.998  10.426
    1ECLIP H89S 6747   4.251   5.984  10.362
    1ECLIP C810 6748   4.157   6.168  10.306
    1ECLIPH810R 6749   4.232   6.247  10.329
    1ECLIPH810S 6750   4.055   6.210  10.323
    1ECLIP C811 6751   4.173   6.124  10.160
    1ECLIPH811R 6752   4.121   6.194  10.090
    1ECLIPH811S 6753   4.125   6.023  10.152
    1ECLIP C812 6754   4.317   6.107  10.110
    1ECLIPH812R 6755   4.310   6.062  10.008
    1ECLIPH812S 6756   4.371   6.037  10.177
    1ECLIP C813 6757   4.401   6.234  10.100
    1ECLIPH813R 6758   4.351   6.303  10.029
    1ECLIPH813S 6759   4.408   6.286  10.199
    1ECLIP C814 6760   4.542   6.207  10.050
    1ECLIPH814R 6761   4.543   6.143   9.959
    1ECLIPH814S 6762   4.602   6.155  10.128
    1ECLIPH814T 6763   4.593   6.302  10.026
    1ECLIP  C74 6764   4.852   5.986  11.049
    1ECLIP H74R 6765   4.961   5.967  11.040
    1ECLIP H74S 6766   4.841   6.096  11.067
    1ECLIP  C75 6767   4.781   5.958  10.915
    1ECLIP H75R 6768   4.786   6.052  10.855
    1ECLIP H75S 6769   4.674   5.937  10.934
    1ECLIP  C76 6770   4.840   5.843  10.832
    1ECLIP H76R 6771   4.805   5.746  10.874
    1ECLIP H76S 6772   4.951   5.843  10.835
    1ECLIP  C77 6773   4.799   5.850  10.684
    1ECLIP H77R 6774   4.845   5.939  10.636
    1ECLIP H77S 6775   4.690   5.858  10.669
    1ECLIP  C78 6776   4.839   5.721  10.616
    1ECLIP H78R 6777   4.946   5.703  10.642
    1ECLIP H78S 6778   4.785   5.638  10.668
    1ECLIP  C79 6779   4.802   5.707  10.466
    1ECLIP H79R 6780   4.712   5.644  10.453
    1ECLIP H79S 6781   4.876   5.655  10.404
    1ECLIP C710 6782   4.812   5.830  10.381
    1ECLIPH710R 6783   4.742   5.903  10.422
    1ECLIPH710S 6784   4.918   5.866  10.385
    1ECLIP C711 6785   4.775   5.801  10.235
    1ECLIPH711R 6786   4.846   5.731  10.190
    1ECLIPH711S 6787   4.674   5.756  10.228
    1ECLIP C712 6788   4.781   5.933  10.160
    1ECLIPH712R 6789   4.886   5.970  10.163
    1ECLIPH712S 6790   4.718   6.003  10.218
    1ECLIP C713 6791   4.732   5.920  10.016
    1ECLIPH713R 6792   4.625   5.886  10.020
    1ECLIPH713S 6793   4.733   6.020   9.968
    1ECLIP C714 6794   4.821   5.826   9.933
    1ECLIPH714R 6795   4.924   5.864   9.925
    1ECLIPH714S 6796   4.813   5.720   9.965
    1ECLIPH714T 6797   4.797   5.820   9.827
    1ECLIP  C51 6798   4.408   5.645  11.160
    1ECLIP  O51 6799   4.399   5.765  11.143
    1ECLIP  C52 6800   4.435   5.554  11.042
    1ECLIP H52R 6801   4.545   5.540  11.029
    1ECLIP H52S 6802   4.390   5.456  11.061
    1ECLIP  C53 6803   4.377   5.615  10.913
    1ECLIP H53R 6804   4.282   5.670  10.935
    1ECLIP  O53 6805   4.356   5.508  10.821
    1ECLIP  C61 6806   4.233   5.476  10.787
    1ECLIP  O61 6807   4.131   5.529  10.824
    1ECLIP  C62 6808   4.236   5.360  10.689
    1ECLIP H62R 6809   4.252   5.272  10.748
    1ECLIP H62S 6810   4.329   5.364  10.632
    1ECLIP  C63 6811   4.105   5.349  10.608
    1ECLIP H63R 6812   4.085   5.449  10.565
    1ECLIP H63S 6813   4.019   5.314  10.671
    1ECLIP  C64 6814   4.112   5.262  10.484
    1ECLIP H64R 6815   4.014   5.246  10.433
    1ECLIP H64S 6816   4.137   5.168  10.531
    1ECLIP  C65 6817   4.228   5.306  10.392
    1ECLIP H65R 6818   4.319   5.287  10.453
    1ECLIP H65S 6819   4.211   5.410  10.363
    1ECLIP  C66 6820   4.260   5.244  10.258
    1ECLIP H66R 6821   4.305   5.150  10.281
    1ECLIP H66S 6822   4.351   5.275  10.206
    1ECLIP  C67 6823   4.147   5.237  10.163
    1ECLIP H67R 6824   4.044   5.220  10.202
    1ECLIP H67S 6825   4.176   5.167  10.086
    1ECLIP  C68 6826   4.123   5.355  10.089
    1ECLIP H68R 6827   4.215   5.396  10.048
    1ECLIP H68S 6828   4.075   5.419  10.165
    1ECLIP  C69 6829   4.037   5.314   9.979
    1ECLIP H69R 6830   3.959   5.234   9.985
    1ECLIP H69S 6831   4.102   5.283   9.895
    1ECLIP C610 6832   3.969   5.439   9.964
    1ECLIPH610R 6833   4.033   5.533   9.953
    1ECLIPH610S 6834   3.882   5.456  10.035
    1ECLIP C611 6835   3.927   5.397   9.836
    1ECLIPH611R 6836   3.845   5.324   9.817
    1ECLIPH611S 6837   3.885   5.491   9.855
    1ECLIP C612 6838   4.019   5.415   9.725
    1ECLIPH612R 6839   4.030   5.522   9.689
    1ECLIPH612S 6840   4.106   5.355   9.712
    1ECLIPH612T 6841   3.966   5.347   9.659
    1ECLIP  C54 6842   4.482   5.713  10.853
    1ECLIP H54R 6843   4.570   5.652  10.824
    1ECLIP H54S 6844   4.513   5.782  10.934
    1ECLIP  C55 6845   4.437   5.797  10.733
    1ECLIP H55R 6846   4.507   5.882  10.719
    1ECLIP H55S 6847   4.338   5.843  10.756
    1ECLIP  C56 6848   4.438   5.712  10.606
    1ECLIP H56R 6849   4.373   5.624  10.622
    1ECLIP H56S 6850   4.541   5.674  10.587
    1ECLIP  C57 6851   4.385   5.774  10.477
    1ECLIP H57R 6852   4.436   5.871  10.455
    1ECLIP H57S 6853   4.277   5.797  10.491
    1ECLIP  C58 6854   4.400   5.674  10.363
    1ECLIP H58R 6855   4.502   5.629  10.359
    1ECLIP H58S 6856   4.331   5.589  10.383
    1ECLIP  C59 6857   4.371   5.739  10.228
    1ECLIP H59R 6858   4.438   5.826  10.209
    1ECLIP H59S 6859   4.267   5.777  10.235
    1ECLIP C510 6860   4.391   5.648  10.108
    1ECLIPH510R 6861   4.350   5.546  10.121
    1ECLIPH510S 6862   4.501   5.635  10.088
    1ECLIP C511 6863   4.317   5.711   9.989
    1ECLIPH511R 6864   4.211   5.685   9.980
    1ECLIPH511S 6865   4.345   5.820   9.973
    1ECLIP C512 6866   4.353   5.643   9.864
    1ECLIPH512R 6867   4.354   5.717   9.780
    1ECLIPH512S 6868   4.462   5.673   9.892
    1ECLIP C513 6869   4.307   5.471   9.826
    1ECLIPH513R 6870   4.203   5.495   9.831
    1ECLIPH513S 6871   4.340   5.421   9.915
    1ECLIP C514 6872   4.335   5.346   9.691
    1ECLIPH514R 6873   4.433   5.340   9.627
    1ECLIPH514S 6874   4.341   5.242   9.683
    1ECLIPH514T 6875   4.409   5.378   9.614
    1ECLIP  C33 6876   4.128   5.247  11.195
    1ECLIP H33R 6877   4.145   5.163  11.256
    1ECLIP  O33 6878   4.184   5.327  11.292
    1ECLIP HO33 6879   4.158   5.283  11.375
    1ECLIP  C34 6880   4.224   5.255  11.071
    1ECLIP H34R 6881   4.211   5.346  11.014
    1ECLIP H34S 6882   4.201   5.184  10.994
    1ECLIP  C35 6883   4.364   5.196  11.072
    1ECLIP H35R 6884   4.392   5.088  11.077
    1ECLIP H35S 6885   4.414   5.240  11.160
    1ECLIP  C36 6886   4.411   5.204  10.931
    1ECLIP H36R 6887   4.379   5.293  10.883
    1ECLIP H36S 6888   4.414   5.108  10.868
    1ECLIP  C37 6889   4.543   5.236  10.947
    1ECLIP H37R 6890   4.554   5.124  10.975
    1ECLIP H37S 6891   4.562   5.293  11.041
    1ECLIP  C38 6892   4.612   5.326  10.840
    1ECLIP H38R 6893   4.587   5.428  10.865
    1ECLIP H38S 6894   4.726   5.324  10.816
    1ECLIP  C39 6895   4.569   5.326  10.705
    1ECLIP H39R 6896   4.492   5.252  10.690
    1ECLIP H39S 6897   4.625   5.246  10.697
    1ECLIP C310 6898   4.680   5.361  10.608
    1ECLIPH310R 6899   4.785   5.321  10.624
    1ECLIPH310S 6900   4.686   5.467  10.622
    1ECLIP C311 6901   4.611   5.324  10.482
    1ECLIPH311R 6902   4.543   5.239  10.492
    1ECLIPH311S 6903   4.528   5.386  10.463
    1ECLIP C312 6904   4.701   5.328  10.367
    1ECLIPH312R 6905   4.747   5.416  10.412
    1ECLIPH312S 6906   4.787   5.260  10.354
    1ECLIP C313 6907   4.629   5.345  10.236
    1ECLIPH313R 6908   4.579   5.253  10.208
    1ECLIPH313S 6909   4.542   5.408  10.254
    1ECLIP C314 6910   4.703   5.391  10.112
    1ECLIPH314R 6911   4.792   5.332  10.078
    1ECLIPH314S 6912   4.637   5.394  10.034
    1ECLIPH314T 6913   4.724   5.498  10.122
    1ECLIP  C11 6914   3.948   5.771  10.862
    1ECLIP  O11 6915   4.058   5.820  10.846
    1ECLIP  C12 6916   3.834   5.806  10.769
    1ECLIP H12R 6917   3.800   5.909  10.791
    1ECLIP H12S 6918   3.751   5.735  10.788
    1ECLIP  C13 6919   3.873   5.797  10.622
    1ECLIP H13R 6920   3.974   5.840  10.601
    1ECLIP  O13 6921   3.777   5.871  10.548
    1ECLIP HO13 6922   3.809   5.908  10.465
    1ECLIP  C14 6923   3.872   5.648  10.580
    1ECLIP H14R 6924   3.790   5.594  10.632
    1ECLIP H14S 6925   3.969   5.606  10.614
    1ECLIP  C15 6926   3.860   5.620  10.431
    1ECLIP H15R 6927   3.768   5.670  10.393
    1ECLIP H15S 6928   3.846   5.510  10.419
    1ECLIP  C16 6929   3.985   5.667  10.354
    1ECLIP H16R 6930   4.066   5.593  10.364
    1ECLIP H16S 6931   4.023   5.760  10.401
    1ECLIP  C17 6932   3.952   5.689  10.207
    1ECLIP H17R 6933   3.891   5.602  10.176
    1ECLIP H17S 6934   4.043   5.691  10.143
    1ECLIP  C18 6935   3.873   5.817  10.186
    1ECLIP H18R 6936   3.781   5.811  10.248
    1ECLIP H18S 6937   3.933   5.906  10.216
    1ECLIP  C19 6938   3.828   5.835  10.044
    1ECLIP H19R 6939   3.759   5.921  10.033
    1ECLIP H19S 6940   3.778   5.744  10.004
    1ECLIP C110 6941   3.943   5.860   9.952
    1ECLIPH110R 6942   4.008   5.946   9.983
    1ECLIPH110S 6943   4.009   5.771   9.948
    1ECLIP C111 6944   3.869   5.883   9.820
    1ECLIPH111R 6945   3.799   5.807   9.788
    1ECLIPH111S 6946   3.823   5.986   9.820
    1ECLIP C112 6947   3.967   5.869   9.712
    1ECLIPH112R 6948   3.997   5.962   9.767
    1ECLIPH112S 6949   4.047   5.793   9.722
    1ECLIP C113 6950   3.935   5.888   9.562
    1ECLIPH113R 6951   3.899   5.790   9.532
    1ECLIPH113S 6952   3.859   5.969   9.559
    1ECLIP C114 6953   4.043   5.917   9.455
    1ECLIPH114R 6954   4.062   6.027   9.470
    1ECLIPH114S 6955   4.137   5.860   9.451
    1ECLIPH114T 6956   4.028   5.932   9.352
    2AKDO    C1 6957   4.526   5.569  11.978
    2AKDO   O11 6958   4.650   5.580  11.979
    2AKDO   O12 6959   4.458   5.467  11.947
    2AKDO    C2 6960   4.444   5.693  12.023
    2AKDO    C6 6961   4.464   5.911  12.123
    2AKDO    H6 6962   4.410   5.946  12.032
    2AKDO    O6 6963   4.532   5.792  12.082
    2AKDO    C3 6964   4.338   5.658  12.129
    2AKDO   H31 6965   4.386   5.606  12.215
    2AKDO   H32 6966   4.264   5.590  12.082
    2AKDO    C4 6967   4.265   5.781  12.174
    2AKDO    H4 6968   4.220   5.831  12.086
    2AKDO    O4 6969   4.166   5.750  12.273
    2AKDO    C5 6970   4.361   5.882  12.233
    2AKDO    H5 6971   4.303   5.977  12.246
    2AKDO    O5 6972   4.407   5.830  12.362
    2AKDO    C7 6973   4.563   6.023  12.153
    2AKDO    H7 6974   4.617   5.995  12.244
    2AKDO    O7 6975   4.497   6.150  12.173
    2AKDO   HO7 6976   4.483   6.182  12.086
    2AKDO    C8 6977   4.663   6.041  12.040
    2AKDO   H81 6978   4.713   5.941  12.024
    2AKDO   H82 6979   4.607   6.061  11.946
    2AKDO    O8 6980   4.760   6.147  12.063
    2AKDO   HO8 6981   4.837   6.101  12.029
    3AKDO    C1 6982   3.982   5.777  12.115
    3AKDO   O11 6983   4.000   5.726  12.001
    3AKDO   O12 6984   3.945   5.895  12.140
    3AKDO    C2 6985   4.040   5.699  12.237
    3AKDO    C6 6986   4.103   5.478  12.315
    3AKDO    H6 6987   4.208   5.512  12.334
    3AKDO    O6 6988   4.045   5.557  12.208
    3AKDO    C3 6989   3.960   5.716  12.368
    3AKDO   H31 6990   3.855   5.681  12.351
    3AKDO   H32 6991   3.953   5.824  12.395
    3AKDO    C4 6992   4.026   5.638  12.479
    3AKDO    H4 6993   4.133   5.667  12.484
    3AKDO    O4 6994   3.969   5.661  12.606
    3AKDO   HO4 6995   4.037   5.689  12.670
    3AKDO    C5 6996   4.021   5.493  12.442
    3AKDO    H5 6997   4.067   5.435  12.525
    3AKDO    O5 6998   3.888   5.446  12.423
    3AKDO   HO5 6999   3.846   5.499  12.354
    3AKDO    C7 7000   4.109   5.335  12.271
    3AKDO    H7 7001   4.006   5.298  12.249
    3AKDO    O7 7002   4.162   5.254  12.376
    3AKDO   HO7 7003   4.157   5.163  12.345
    3AKDO    C8 7004   4.195   5.327  12.149
    3AKDO   H81 7005   4.157   5.394  12.068
    3AKDO   H82 7006   4.300   5.356  12.169
    3AKDO    O8 7007   4.189   5.193  12.104
    3AKDO   HO8 7008   4.112   5.188  12.047
    4AHEP    C1 7009   4.436   5.926  12.461
    4AHEP    H1 7010   4.532   5.969  12.427
    4AHEP    C5 7011   4.222   6.009  12.536
    4AHEP    H5 7012   4.178   5.918  12.488
    4AHEP    O5 7013   4.345   6.037  12.466
    4AHEP    C2 7014   4.465   5.884  12.606
    4AHEP    H2 7015   4.529   5.794  12.603
    4AHEP    O2 7016   4.543   5.985  12.669
    4AHEP   HO2 7017   4.604   5.950  12.733
    4AHEP    C3 7018   4.340   5.849  12.686
    4AHEP    H3 7019   4.289   5.758  12.646
    4AHEP    O3 7020   4.376   5.826  12.824
    4AHEP    C4 7021   4.249   5.970  12.682
    4AHEP    H4 7022   4.295   6.058  12.733
    4AHEP    O4 7023   4.126   5.929  12.740
    4AHEP    P4 7024   4.073   5.996  12.883
    4AHEP  OP42 7025   3.996   5.880  12.943
    4AHEP  OP43 7026   3.981   6.112  12.839
    4AHEP  OP44 7027   4.194   6.036  12.966
    4AHEP    C6 7028   4.124   6.128  12.515
    4AHEP    H6 7029   4.024   6.088  12.544
    4AHEP    O6 7030   4.148   6.245  12.598
    4AHEP   HO6 7031   4.084   6.249  12.671
    4AHEP    C7 7032   4.117   6.178  12.370
    4AHEP   H71 7033   4.028   6.243  12.355
    4AHEP   H72 7034   4.107   6.091  12.302
    4AHEP    O7 7035   4.229   6.256  12.325
    4AHEP   HO7 7036   4.218   6.340  12.370
    5AHEP    C1 7037   4.344   5.702  12.882
    5AHEP    H1 7038   4.253   5.658  12.834
    5AHEP    C5 7039   4.573   5.660  12.934
    5AHEP    H5 7040   4.591   5.763  12.897
    5AHEP    O5 7041   4.454   5.612  12.866
    5AHEP    C2 7042   4.315   5.715  13.032
    5AHEP    H2 7043   4.234   5.791  13.045
    5AHEP    O2 7044   4.267   5.589  13.082
    5AHEP   HO2 7045   4.174   5.598  13.102
    5AHEP    C3 7046   4.437   5.766  13.109
    5AHEP    H3 7047   4.465   5.866  13.068
    5AHEP    O3 7048   4.419   5.777  13.253
    5AHEP    C4 7049   4.550   5.669  13.084
    5AHEP    H4 7050   4.523   5.567  13.121
    5AHEP    O4 7051   4.671   5.718  13.142
    5AHEP    P4 7052   4.743   5.636  13.267
    5AHEP  OP42 7053   4.843   5.738  13.317
    5AHEP  OP43 7054   4.807   5.517  13.198
    5AHEP  OP44 7055   4.632   5.604  13.366
    5AHEP    C6 7056   4.696   5.580  12.894
    5AHEP    H6 7057   4.786   5.623  12.942
    5AHEP    O6 7058   4.689   5.441  12.936
    5AHEP   HO6 7059   4.616   5.391  12.899
    5AHEP    C7 7060   4.714   5.596  12.744
    5AHEP   H71 7061   4.823   5.576  12.723
    5AHEP   H72 7062   4.685   5.691  12.700
    5AHEP    O7 7063   4.633   5.489  12.696
    6AHEP    C1 7064   4.524   5.504  12.616
    6AHEP    H1 7065   4.483   5.599  12.641
    6AHEP    C5 7066   4.580   5.382  12.426
    6AHEP    H5 7067   4.678   5.394  12.480
    6AHEP    O5 7068   4.536   5.508  12.473
    6AHEP    C2 7069   4.432   5.392  12.661
    6AHEP    H2 7070   4.431   5.390  12.773
    6AHEP    O2 7071   4.305   5.416  12.611
    6AHEP   HO2 7072   4.253   5.432  12.688
    6AHEP    C3 7073   4.473   5.255  12.622
    6AHEP    H3 7074   4.563   5.233  12.680
    6AHEP    O3 7075   4.383   5.158  12.675
    6AHEP   HO3 7076   4.430   5.093  12.728
    6AHEP    C4 7077   4.477   5.253  12.472
    6AHEP    H4 7078   4.391   5.268  12.411
    6AHEP    O4 7079   4.486   5.106  12.442
    6AHEP   HO4 7080   4.579   5.073  12.440
    6AHEP    C6 7081   4.631   5.374  12.280
    6AHEP    H6 7082   4.696   5.289  12.245
    6AHEP    O6 7083   4.531   5.356  12.187
    6AHEP   HO6 7084   4.551   5.429  12.125
    6AHEP    C7 7085   4.736   5.469  12.250
    6AHEP   H71 7086   4.759   5.441  12.145
    6AHEP   H72 7087   4.814   5.438  12.318
    6AHEP    O7 7088   4.714   5.606  12.266
    6AHEP   HO7 7089   4.716   5.622  12.359
    7AGLC    C1 7090   4.379   5.902  13.302
    7AGLC    H1 7091   4.435   5.985  13.252
    7AGLC    C5 7092   4.158   5.822  13.346
    7AGLC    H5 7093   4.191   5.719  13.318
    7AGLC    O5 7094   4.239   5.920  13.280
    7AGLC    C2 7095   4.398   5.920  13.453
    7AGLC    H2 7096   4.348   6.016  13.480
    7AGLC    O2 7097   4.534   5.937  13.492
    7AGLC   HO2 7098   4.576   5.848  13.492
    7AGLC    C3 7099   4.324   5.816  13.534
    7AGLC    H3 7100   4.356   5.716  13.498
    7AGLC    O3 7101   4.352   5.828  13.677
    7AGLC    C4 7102   4.176   5.835  13.497
    7AGLC    H4 7103   4.143   5.937  13.529
    7AGLC    O4 7104   4.097   5.736  13.561
    7AGLC   HO4 7105   4.018   5.774  13.601
    7AGLC    C6 7106   4.018   5.836  13.287
    7AGLC   H61 7107   4.025   5.820  13.177
    7AGLC   H62 7108   3.947   5.759  13.325
    7AGLC    O6 7109   3.963   5.967  13.310
    7AGLC   HO6 7110   3.905   5.962  13.385
    8AGLC    C1 7111   4.411   5.711  13.729
    8AGLC    H1 7112   4.355   5.626  13.690
    8AGLC    C5 7113   4.639   5.792  13.759
    8AGLC    H5 7114   4.603   5.892  13.725
    8AGLC    O5 7115   4.552   5.697  13.696
    8AGLC    C2 7116   4.397   5.695  13.880
    8AGLC    H2 7117   4.437   5.594  13.906
    8AGLC    O2 7118   4.263   5.700  13.931
    8AGLC    C3 7119   4.479   5.798  13.949
    8AGLC    H3 7120   4.441   5.892  13.903
    8AGLC    O3 7121   4.448   5.795  14.090
    8AGLC    C4 7122   4.624   5.780  13.910
    8AGLC    H4 7123   4.653   5.676  13.939
    8AGLC    O4 7124   4.708   5.873  13.978
    8AGLC   HO4 7125   4.666   5.960  13.979
    8AGLC    C6 7126   4.786   5.783  13.711
    8AGLC   H61 7127   4.793   5.773  13.600
    8AGLC   H62 7128   4.839   5.877  13.738
    8AGLC    O6 7129   4.862   5.680  13.773
    8AGLC   HO6 7130   4.889   5.709  13.860
    9AGAL    C1 7131   4.170   5.608  13.880
    9AGAL    H1 7132   4.172   5.606  13.769
    9AGAL    C5 7133   4.176   5.459  14.065
    9AGAL    H5 7134   4.240   5.538  14.112
    9AGAL    O5 7135   4.192   5.473  13.923
    9AGAL    C2 7136   4.030   5.654  13.921
    9AGAL    H2 7137   3.960   5.581  13.874
    9AGAL    O2 7138   4.006   5.782  13.857
    9AGAL    C3 7139   4.010   5.642  14.072
    9AGAL    H3 7140   4.084   5.705  14.125
    9AGAL    O3 7141   3.883   5.691  14.112
    9AGAL   HO3 7142   3.872   5.763  14.051
    9AGAL    C4 7143   4.034   5.495  14.107
    9AGAL    H4 7144   4.024   5.480  14.216
    9AGAL    O4 7145   3.941   5.408  14.043
    9AGAL   HO4 7146   3.926   5.330  14.099
    9AGAL    C6 7147   4.230   5.327  14.120
    9AGAL   H61 7148   4.339   5.320  14.095
    9AGAL   H62 7149   4.224   5.327  14.231
    9AGAL    O6 7150   4.164   5.210  14.073
    9AGAL   HO6 7151   4.220   5.171  14.004
   10AGAL    C1 7152   3.938   5.894  13.910
   10AGAL    H1 7153   3.831   5.869  13.917
   10AGAL    C5 7154   4.120   5.985  14.041
   10AGAL    H5 7155   4.181   5.901  14.001
   10AGAL    O5 7156   3.982   5.940  14.041
   10AGAL    C2 7157   3.953   6.010  13.811
   10AGAL    H2 7158   3.892   6.094  13.848
   10AGAL    O2 7159   3.897   5.982  13.683
   10AGAL   HO2 7160   3.839   6.057  13.662
   10AGAL    C3 7161   4.099   6.054  13.806
   10AGAL    H3 7162   4.161   5.965  13.780
   10AGAL    O3 7163   4.131   6.155  13.708
   10AGAL   HO3 7164   4.175   6.113  13.634
   10AGAL    C4 7165   4.138   6.100  13.944
   10AGAL    H4 7166   4.243   6.132  13.942
   10AGAL    O4 7167   4.067   6.214  13.986
   10AGAL   HO4 7168   3.975   6.189  13.997
   10AGAL    C6 7169   4.181   6.011  14.180
   10AGAL   H61 7170   4.161   5.926  14.247
   10AGAL   H62 7171   4.291   6.016  14.170
   10AGAL    O6 7172   4.139   6.129  14.246
   10AGAL   HO6 7173   4.096   6.111  14.329
   11BGLC    C1 7174   4.529   5.724  14.185
   11BGLC    H1 7175   4.625   5.778  14.198
   11BGLC    C5 7176   4.621   5.507  14.250
   11BGLC    H5 7177   4.722   5.549  14.272
   11BGLC    O5 7178   4.548   5.585  14.150
   11BGLC    C2 7179   4.450   5.728  14.315
   11BGLC    H2 7180   4.350   5.680  14.300
   11BGLC    O2 7181   4.424   5.862  14.355
   11BGLC   HO2 7182   4.331   5.876  14.363
   11BGLC    C3 7183   4.517   5.652  14.427
   11BGLC    H3 7184   4.614   5.701  14.453
   11BGLC    O3 7185   4.429   5.647  14.541
   11BGLC    C4 7186   4.537   5.510  14.379
   11BGLC    H4 7187   4.437   5.467  14.354
   11BGLC    O4 7188   4.591   5.429  14.482
   11BGLC   HO4 7189   4.524   5.414  14.550
   11BGLC    C6 7190   4.641   5.368  14.191
   11BGLC   H61 7191   4.673   5.292  14.267
   11BGLC   H62 7192   4.554   5.337  14.132
   11BGLC    O6 7193   4.732   5.360  14.087
   11BGLC   HO6 7194   4.815   5.328  14.124
   12BGLCN   C1 7195   4.476   5.690  14.668
   12BGLCN   H1 7196   4.468   5.801  14.674
   12BGLCN   C5 7197   4.654   5.697  14.824
   12BGLCN   H5 7198   4.646   5.808  14.831
   12BGLCN   O5 7199   4.610   5.651  14.695
   12BGLCN   C2 7200   4.385   5.624  14.772
   12BGLCN   H2 7201   4.408   5.514  14.767
   12BGLCN    N 7202   4.247   5.654  14.741
   12BGLCN   HN 7203   4.228   5.750  14.735
   12BGLCN    C 7204   4.156   5.558  14.727
   12BGLCN    O 7205   4.184   5.440  14.742
   12BGLCN   CT 7206   4.015   5.600  14.691
   12BGLCN  HT1 7207   3.948   5.583  14.777
   12BGLCN  HT2 7208   3.976   5.537  14.608
   12BGLCN  HT3 7209   4.016   5.706  14.660
   12BGLCN   C3 7210   4.420   5.669  14.913
   12BGLCN   H3 7211   4.406   5.779  14.917
   12BGLCN   O3 7212   4.332   5.609  15.013
   12BGLCN   C4 7213   4.566   5.632  14.932
   12BGLCN   H4 7214   4.580   5.521  14.925
   12BGLCN   O4 7215   4.610   5.669  15.061
   12BGLCN  HO4 7216   4.619   5.764  15.067
   12BGLCN   C6 7217   4.802   5.662  14.831
   12BGLCN  H61 7218   4.847   5.691  14.929
   12BGLCN  H62 7219   4.812   5.552  14.820
   12BGLCN   O6 7220   4.878   5.724  14.726
   12BGLCN  HO6 7221   4.903   5.813  14.749
   13AGAL    C1 7222   4.294   5.697  15.120
   13AGAL    H1 7223   4.382   5.758  15.151
   13AGAL    C5 7224   4.061   5.707  15.063
   13AGAL    H5 7225   4.088   5.627  14.990
   13AGAL    O5 7226   4.183   5.783  15.082
   13AGAL    C2 7227   4.248   5.625  15.247
   13AGAL    H2 7228   4.214   5.706  15.317
   13AGAL    O2 7229   4.358   5.558  15.311
   13AGAL    C3 7230   4.124   5.541  15.226
   13AGAL    H3 7231   4.141   5.473  15.139
   13AGAL    O3 7232   4.089   5.459  15.337
   13AGAL   HO3 7233   4.062   5.371  15.308
   13AGAL    C4 7234   4.014   5.634  15.188
   13AGAL    H4 7235   3.929   5.571  15.162
   13AGAL    O4 7236   3.969   5.720  15.294
   13AGAL   HO4 7237   4.042   5.764  15.340
   13AGAL    C6 7238   3.949   5.780  14.991
   13AGAL   H61 7239   3.989   5.823  14.897
   13AGAL   H62 7240   3.870   5.706  14.965
   13AGAL    O6 7241   3.885   5.882  15.066
   13AGAL   HO6 7242   3.830   5.846  15.137
   14ARHM    C1 7243   4.399   5.609  15.436
   14ARHM    H1 7244   4.378   5.718  15.440
   14ARHM    C5 7245   4.576   5.455  15.454
   14ARHM    H5 7246   4.544   5.411  15.356
   14ARHM    O5 7247   4.539   5.594  15.455
   14ARHM    C2 7248   4.322   5.539  15.547
   14ARHM    H2 7249   4.214   5.550  15.529
   14ARHM    O2 7250   4.353   5.577  15.682
   14ARHM    C3 7251   4.356   5.395  15.543
   14ARHM    H3 7252   4.342   5.354  15.439
   14ARHM    O3 7253   4.269   5.318  15.627
   14ARHM   HO3 7254   4.301   5.324  15.717
   14ARHM    C4 7255   4.502   5.383  15.569
   14ARHM    H4 7256   4.538   5.428  15.665
   14ARHM    O4 7257   4.519   5.245  15.578
   14ARHM   HO4 7258   4.566   5.226  15.660
   14ARHM    C6 7259   4.729   5.453  15.460
   14ARHM   H61 7260   4.779   5.525  15.393
   14ARHM   H62 7261   4.759   5.469  15.565
   14ARHM   H63 7262   4.768   5.354  15.429
   15ARHM    C1 7263   4.346   5.713  15.711
   15ARHM    H1 7264   4.277   5.762  15.639
   15ARHM    C5 7265   4.570   5.738  15.800
   15ARHM    H5 7266   4.602   5.633  15.780
   15ARHM    O5 7267   4.472   5.782  15.704
   15ARHM    C2 7268   4.288   5.727  15.850
   15ARHM    H2 7269   4.194   5.667  15.857
   15ARHM    O2 7270   4.255   5.867  15.866
   15ARHM    C3 7271   4.386   5.672  15.950
   15ARHM    H3 7272   4.411   5.568  15.921
   15ARHM    O3 7273   4.321   5.670  16.077
   15ARHM    C4 7274   4.513   5.753  15.940
   15ARHM    H4 7275   4.485   5.859  15.954
   15ARHM    O4 7276   4.610   5.727  16.039
   15ARHM   HO4 7277   4.678   5.794  16.031
   15ARHM    C6 7278   4.696   5.826  15.782
   15ARHM   H61 7279   4.782   5.789  15.841
   15ARHM   H62 7280   4.722   5.831  15.674
   15ARHM   H63 7281   4.675   5.930  15.813
   16BMANN   C1 7282   4.198   5.914  15.986
   16BMANN   H1 7283   4.274   5.908  16.068
   16BMANN   C5 7284   4.033   5.888  16.153
   16BMANN   H5 7285   4.115   5.882  16.230
   16BMANN   O5 7286   4.082   5.842  16.026
   16BMANN   C2 7287   4.157   6.061  15.968
   16BMANN   H2 7288   4.244   6.122  15.942
   16BMANN    N 7289   4.063   6.089  15.862
   16BMANN   HN 7290   3.969   6.094  15.890
   16BMANN    C 7291   4.093   6.117  15.734
   16BMANN    O 7292   4.207   6.122  15.693
   16BMANN   CT 7293   3.974   6.139  15.643
   16BMANN  HT1 7294   3.959   6.246  15.621
   16BMANN  HT2 7295   3.883   6.098  15.690
   16BMANN  HT3 7296   3.991   6.084  15.548
   16BMANN   C3 7297   4.110   6.114  16.103
   16BMANN   H3 7298   4.193   6.101  16.176
   16BMANN   O3 7299   4.083   6.252  16.096
   16BMANN  HO3 7300   4.126   6.300  16.167
   16BMANN   C4 7301   3.991   6.033  16.148
   16BMANN   H4 7302   3.909   6.047  16.074
   16BMANN   O4 7303   3.940   6.069  16.276
   16BMANN  HO4 7304   3.844   6.063  16.275
   16BMANN   C6 7305   3.921   5.803  16.206
   16BMANN  H61 7306   3.925   5.815  16.314
   16BMANN  H62 7307   3.823   5.842  16.179
   16BMANN   O6 7308   3.923   5.666  16.174
   16BMANN  HO6 7309   3.844   5.645  16.123
   17BGLCN   C1 7310   4.347   5.553  16.150
   17BGLCN   H1 7311   4.453   5.525  16.134
   17BGLCN   C5 7312   4.287   5.325  16.192
   17BGLCN   H5 7313   4.389   5.293  16.167
   17BGLCN   O5 7314   4.261   5.443  16.114
   17BGLCN   C2 7315   4.322   5.594  16.294
   17BGLCN   H2 7316   4.214   5.616  16.311
   17BGLCN    N 7317   4.395   5.716  16.324
   17BGLCN   HN 7318   4.479   5.727  16.273
   17BGLCN    C 7319   4.364   5.808  16.417
   17BGLCN    O 7320   4.260   5.809  16.482
   17BGLCN   CT 7321   4.471   5.911  16.440
   17BGLCN  HT1 7322   4.449   6.007  16.389
   17BGLCN  HT2 7323   4.567   5.869  16.404
   17BGLCN  HT3 7324   4.482   5.931  16.548
   17BGLCN   C3 7325   4.361   5.475  16.379
   17BGLCN   H3 7326   4.464   5.449  16.345
   17BGLCN   O3 7327   4.365   5.514  16.519
   17BGLCN   C4 7328   4.269   5.360  16.341
   17BGLCN   H4 7329   4.162   5.392  16.351
   17BGLCN   O4 7330   4.289   5.247  16.425
   17BGLCN  HO4 7331   4.228   5.175  16.407
   17BGLCN   C6 7332   4.196   5.210  16.148
   17BGLCN  H61 7333   4.251   5.113  16.152
   17BGLCN  H62 7334   4.109   5.204  16.216
   17BGLCN   O6 7335   4.145   5.223  16.016
   17BGLCN  HO6 7336   4.216   5.234  15.953
   18AGAL    C1 7337   4.466   5.453  16.597
   18AGAL    H1 7338   4.438   5.347  16.616
   18AGAL    C5 7339   4.643   5.590  16.521
   18AGAL    H5 7340   4.563   5.651  16.479
   18AGAL    O5 7341   4.593   5.456  16.531
   18AGAL    C2 7342   4.488   5.519  16.733
   18AGAL    H2 7343   4.572   5.460  16.773
   18AGAL    O2 7344   4.379   5.503  16.824
   18AGAL    C3 7345   4.540   5.663  16.721
   18AGAL    H3 7346   4.472   5.720  16.654
   18AGAL    O3 7347   4.542   5.734  16.845
   18AGAL   HO3 7348   4.507   5.823  16.835
   18AGAL    C4 7349   4.674   5.659  16.655
   18AGAL    H4 7350   4.715   5.760  16.631
   18AGAL    O4 7351   4.774   5.593  16.733
   18AGAL   HO4 7352   4.796   5.651  16.807
   18AGAL    C6 7353   4.743   5.603  16.416
   18AGAL   H61 7354   4.709   5.547  16.324
   18AGAL   H62 7355   4.775   5.704  16.391
   18AGAL    O6 7356   4.857   5.560  16.480
   18AGAL   HO6 7357   4.835   5.467  16.508
   19ARHM    C1 7358   4.425   5.472  16.953
   19ARHM    H1 7359   4.523   5.521  16.971
   19ARHM    C5 7360   4.323   5.257  16.961
   19ARHM    H5 7361   4.288   5.280  16.858
   19ARHM    O5 7362   4.444   5.331  16.977
   19ARHM    C2 7363   4.323   5.526  17.049
   19ARHM    H2 7364   4.301   5.633  17.024
   19ARHM    O2 7365   4.373   5.521  17.183
   19ARHM    C3 7366   4.195   5.448  17.033
   19ARHM    H3 7367   4.161   5.456  16.926
   19ARHM    O3 7368   4.092   5.501  17.115
   19ARHM   HO3 7369   4.132   5.510  17.202
   19ARHM    C4 7370   4.220   5.302  17.061
   19ARHM    H4 7371   4.259   5.293  17.165
   19ARHM    O4 7372   4.103   5.222  17.052
   19ARHM   HO4 7373   4.073   5.226  16.961
   19ARHM    C6 7374   4.353   5.107  16.959
   19ARHM   H61 7375   4.432   5.095  16.884
   19ARHM   H62 7376   4.391   5.062  17.050
   19ARHM   H63 7377   4.262   5.048  16.938
   20ARHM    C1 7378   4.472   5.620  17.206
   20ARHM    H1 7379   4.477   5.693  17.123
   20ARHM    C5 7380   4.616   5.479  17.332
   20ARHM    H5 7381   4.543   5.396  17.317
   20ARHM    O5 7382   4.605   5.569  17.222
   20ARHM    C2 7383   4.430   5.692  17.331
   20ARHM    H2 7384   4.322   5.722  17.321
   20ARHM    O2 7385   4.513   5.806  17.352
   20ARHM    C3 7386   4.440   5.601  17.449
   20ARHM    H3 7387   4.374   5.513  17.432
   20ARHM    O3 7388   4.396   5.674  17.564
   20ARHM    C4 7389   4.582   5.554  17.460
   20ARHM    H4 7390   4.655   5.638  17.468
   20ARHM    O4 7391   4.597   5.472  17.574
   20ARHM   HO4 7392   4.665   5.409  17.549
   20ARHM    C6 7393   4.756   5.416  17.333
   20ARHM   H61 7394   4.837   5.492  17.341
   20ARHM   H62 7395   4.765   5.342  17.414
   20ARHM   H63 7396   4.772   5.363  17.238
   21BMANN   C1 7397   4.466   5.914  17.277
   21BMANN   H1 7398   4.385   5.879  17.208
   21BMANN   C5 7399   4.502   6.065  17.101
   21BMANN   H5 7400   4.416   6.021  17.045
   21BMANN   O5 7401   4.563   5.967  17.187
   21BMANN   C2 7402   4.410   6.021  17.371
   21BMANN   H2 7403   4.329   5.969  17.429
   21BMANN    N 7404   4.508   6.078  17.464
   21BMANN   HN 7405   4.598   6.093  17.427
   21BMANN    C 7406   4.483   6.108  17.593
   21BMANN    O 7407   4.370   6.108  17.639
   21BMANN   CT 7408   4.601   6.141  17.681
   21BMANN  HT1 7409   4.636   6.244  17.664
   21BMANN  HT2 7410   4.682   6.067  17.668
   21BMANN  HT3 7411   4.567   6.132  17.786
   21BMANN   C3 7412   4.346   6.124  17.282
   21BMANN   H3 7413   4.265   6.070  17.227
   21BMANN   O3 7414   4.283   6.227  17.353
   21BMANN  HO3 7415   4.346   6.263  17.416
   21BMANN   C4 7416   4.447   6.179  17.183
   21BMANN   H4 7417   4.529   6.229  17.239
   21BMANN   O4 7418   4.393   6.276  17.095
   21BMANN  HO4 7419   4.431   6.363  17.115
   21BMANN   C6 7420   4.599   6.114  16.996
   21BMANN  H61 7421   4.544   6.167  16.916
   21BMANN  H62 7422   4.667   6.187  17.042
   21BMANN   O6 7423   4.677   6.008  16.941
   21BMANN  HO6 7424   4.727   5.969  17.014
   22BGLCN   C1 7425   4.324   5.601  17.660
   22BGLCN   H1 7426   4.354   5.494  17.661
   22BGLCN   C5 7427   4.112   5.543  17.746
   22BGLCN   H5 7428   4.146   5.436  17.748
   22BGLCN   O5 7429   4.183   5.613  17.642
   22BGLCN   C2 7430   4.364   5.665  17.791
   22BGLCN   H2 7431   4.332   5.773  17.786
   22BGLCN    N 7432   4.507   5.658  17.810
   22BGLCN   HN 7433   4.551   5.576  17.776
   22BGLCN    C 7434   4.580   5.751  17.872
   22BGLCN    O 7435   4.533   5.853  17.921
   22BGLCN   CT 7436   4.726   5.719  17.877
   22BGLCN  HT1 7437   4.774   5.771  17.791
   22BGLCN  HT2 7438   4.742   5.610  17.865
   22BGLCN  HT3 7439   4.773   5.750  17.973
   22BGLCN   C3 7440   4.292   5.596  17.905
   22BGLCN   H3 7441   4.318   5.488  17.902
   22BGLCN   O3 7442   4.343   5.655  18.026
   22BGLCN   C4 7443   4.144   5.607  17.882
   22BGLCN   H4 7444   4.117   5.715  17.877
   22BGLCN   O4 7445   4.070   5.550  17.989
   22BGLCN  HO4 7446   3.990   5.601  18.006
   22BGLCN   C6 7447   3.965   5.549  17.714
   22BGLCN  H61 7448   3.908   5.524  17.806
   22BGLCN  H62 7449   3.938   5.653  17.684
   22BGLCN   O6 7450   3.922   5.458  17.612
   22BGLCN  HO6 7451   3.982   5.462  17.537
   23AGAL    C1 7452   4.328   5.584  18.146
   23AGAL    H1 7453   4.223   5.591  18.181
   23AGAL    C5 7454   4.498   5.423  18.108
   23AGAL    H5 7455   4.529   5.480  18.017
   23AGAL    O5 7456   4.360   5.445  18.134
   23AGAL    C2 7457   4.413   5.646  18.255
   23AGAL    H2 7458   4.393   5.586  18.347
   23AGAL    O2 7459   4.377   5.783  18.280
   23AGAL    C3 7460   4.560   5.626  18.224
   23AGAL    H3 7461   4.582   5.665  18.122
   23AGAL    O3 7462   4.645   5.698  18.313
   23AGAL   HO3 7463   4.614   5.684  18.401
   23AGAL    C4 7464   4.588   5.477  18.221
   23AGAL    H4 7465   4.696   5.465  18.198
   23AGAL    O4 7466   4.561   5.413  18.345
   23AGAL   HO4 7467   4.537   5.321  18.325
   23AGAL    C6 7468   4.501   5.278  18.065
   23AGAL   H61 7469   4.426   5.252  17.990
   23AGAL   H62 7470   4.593   5.268  18.004
   23AGAL    O6 7471   4.488   5.185  18.174
   23AGAL   HO6 7472   4.515   5.094  18.152
   24ARHM    C1 7473   4.265   5.809  18.363
   24ARHM    H1 7474   4.204   5.716  18.375
   24ARHM    C5 7475   4.241   6.039  18.300
   24ARHM    H5 7476   4.327   6.023  18.231
   24ARHM    O5 7477   4.176   5.912  18.314
   24ARHM    C2 7478   4.323   5.851  18.495
   24ARHM    H2 7479   4.397   5.775  18.527
   24ARHM    O2 7480   4.223   5.868  18.596
   24ARHM    C3 7481   4.397   5.981  18.479
   24ARHM    H3 7482   4.474   5.967  18.399
   24ARHM    O3 7483   4.468   6.015  18.598
   24ARHM   HO3 7484   4.410   6.071  18.652
   24ARHM    C4 7485   4.297   6.086  18.432
   24ARHM    H4 7486   4.214   6.094  18.506
   24ARHM    O4 7487   4.358   6.214  18.417
   24ARHM   HO4 7488   4.297   6.284  18.441
   24ARHM    C6 7489   4.148   6.141  18.230
   24ARHM   H61 7490   4.209   6.216  18.176
   24ARHM   H62 7491   4.083   6.088  18.158
   24ARHM   H63 7492   4.085   6.195  18.302
   25ARHM    C1 7493   4.174   5.748  18.651
   25ARHM    H1 7494   4.200   5.664  18.583
   25ARHM    C5 7495   3.981   5.839  18.757
   25ARHM    H5 7496   4.014   5.938  18.719
   25ARHM    O5 7497   4.031   5.742  18.664
   25ARHM    C2 7498   4.241   5.725  18.783
   25ARHM    H2 7499   4.351   5.741  18.774
   25ARHM    O2 7500   4.214   5.591  18.826
   25ARHM    C3 7501   4.190   5.826  18.882
   25ARHM    H3 7502   4.214   5.929  18.845
   25ARHM    O3 7503   4.253   5.800  19.007
   25ARHM    C4 7504   4.042   5.818  18.895
   25ARHM    H4 7505   4.011   5.715  18.928
   25ARHM    O4 7506   3.997   5.914  18.990
   25ARHM   HO4 7507   3.926   5.870  19.038
   25ARHM    C6 7508   3.827   5.836  18.758
   25ARHM   H61 7509   3.789   5.844  18.654
   25ARHM   H62 7510   3.791   5.743  18.804
   25ARHM   H63 7511   3.788   5.922  18.817
   26BMANN   C1 7512   4.293   5.492  18.765
   26BMANN   H1 7513   4.384   5.534  18.724
   26BMANN   C5 7514   4.319   5.327  18.595
   26BMANN   H5 7515   4.407   5.383  18.555
   26BMANN   O5 7516   4.229   5.421  18.659
   26BMANN   C2 7517   4.335   5.397  18.873
   26BMANN   H2 7518   4.390   5.459  18.949
   26BMANN    N 7519   4.219   5.330  18.930
   26BMANN   HN 7520   4.156   5.292  18.864
   26BMANN    C 7521   4.192   5.326  19.060
   26BMANN    O 7522   4.255   5.390  19.142
   26BMANN   CT 7523   4.081   5.234  19.102
   26BMANN  HT1 7524   4.006   5.223  19.021
   26BMANN  HT2 7525   4.030   5.264  19.196
   26BMANN  HT3 7526   4.126   5.135  19.122
   26BMANN   C3 7527   4.434   5.302  18.813
   26BMANN   H3 7528   4.519   5.361  18.774
   26BMANN   O3 7529   4.483   5.216  18.914
   26BMANN  HO3 7530   4.552   5.265  18.961
   26BMANN   C4 7531   4.369   5.226  18.698
   26BMANN   H4 7532   4.283   5.168  18.735
   26BMANN   O4 7533   4.457   5.134  18.638
   26BMANN  HO4 7534   4.465   5.055  18.693
   26BMANN   C6 7535   4.245   5.268  18.477
   26BMANN  H61 7536   4.185   5.348  18.428
   26BMANN  H62 7537   4.317   5.230  18.401
   26BMANN   O6 7538   4.159   5.161  18.517
   26BMANN  HO6 7539   4.216   5.090  18.550
   27BGLCN   C1 7540   4.295   5.909  19.083
   27BGLCN   H1 7541   4.223   5.994  19.079
   27BGLCN   C5 7542   4.472   6.058  19.128
   27BGLCN   H5 7543   4.389   6.128  19.129
   27BGLCN   O5 7544   4.425   5.953  19.043
   27BGLCN   C2 7545   4.304   5.851  19.224
   27BGLCN   H2 7546   4.383   5.772  19.220
   27BGLCN    N 7547   4.179   5.791  19.267
   27BGLCN   HN 7548   4.096   5.839  19.241
   27BGLCN    C 7549   4.177   5.673  19.333
   27BGLCN    O 7550   4.277   5.629  19.389
   27BGLCN   CT 7551   4.047   5.596  19.339
   27BGLCN  HT1 7552   3.972   5.644  19.274
   27BGLCN  HT2 7553   4.009   5.588  19.443
   27BGLCN  HT3 7554   4.066   5.492  19.303
   27BGLCN   C3 7555   4.352   5.957  19.319
   27BGLCN   H3 7556   4.280   6.042  19.314
   27BGLCN   O3 7557   4.349   5.894  19.450
   27BGLCN   C4 7558   4.487   6.008  19.270
   27BGLCN   H4 7559   4.563   5.926  19.271
   27BGLCN   O4 7560   4.533   6.115  19.352
   27BGLCN  HO4 7561   4.472   6.189  19.344
   27BGLCN   C6 7562   4.591   6.130  19.067
   27BGLCN  H61 7563   4.612   6.225  19.121
   27BGLCN  H62 7564   4.682   6.070  19.080
   27BGLCN   O6 7565   4.571   6.159  18.928
   27BGLCN  HO6 7566   4.654   6.193  18.891
   28AGAL    C1 7567   4.350   5.980  19.561
   28AGAL    H1 7568   4.452   6.022  19.568
   28AGAL    C5 7569   4.118   6.040  19.549
   28AGAL    H5 7570   4.105   5.954  19.480
   28AGAL    O5 7571   4.255   6.086  19.541
   28AGAL    C2 7572   4.321   5.914  19.697
   28AGAL    H2 7573   4.331   6.001  19.766
   28AGAL    O2 7574   4.413   5.814  19.746
   28AGAL    C3 7575   4.179   5.864  19.705
   28AGAL    H3 7576   4.162   5.793  19.621
   28AGAL    O3 7577   4.147   5.792  19.823
   28AGAL   HO3 7578   4.113   5.705  19.800
   28AGAL    C4 7579   4.087   5.982  19.686
   28AGAL    H4 7580   3.983   5.945  19.685
   28AGAL    O4 7581   4.100   6.080  19.788
   28AGAL   HO4 7582   4.024   6.073  19.847
   28AGAL    C6 7583   4.019   6.146  19.501
   28AGAL   H61 7584   4.038   6.163  19.393
   28AGAL   H62 7585   3.914   6.113  19.513
   28AGAL    O6 7586   4.028   6.272  19.568
   28AGAL   HO6 7587   4.104   6.322  19.535
   29ARHM    C1 7588   4.437   5.835  19.885
   29ARHM    H1 7589   4.350   5.886  19.933
   29ARHM    C5 7590   4.670   5.856  19.851
   29ARHM    H5 7591   4.652   5.837  19.742
   29ARHM    O5 7592   4.553   5.914  19.907
   29ARHM    C2 7593   4.454   5.703  19.953
   29ARHM    H2 7594   4.366   5.640  19.929
   29ARHM    O2 7595   4.466   5.722  20.097
   29ARHM    C3 7596   4.576   5.635  19.897
   29ARHM    H3 7597   4.563   5.620  19.787
   29ARHM    O3 7598   4.589   5.507  19.955
   29ARHM   HO3 7599   4.683   5.491  19.957
   29ARHM    C4 7600   4.700   5.722  19.918
   29ARHM    H4 7601   4.716   5.739  20.027
   29ARHM    O4 7602   4.821   5.663  19.871
   29ARHM   HO4 7603   4.815   5.628  19.781
   29ARHM    C6 7604   4.777   5.965  19.859
   29ARHM   H61 7605   4.733   6.056  19.813
   29ARHM   H62 7606   4.805   5.987  19.963
   29ARHM   H63 7607   4.867   5.937  19.801
   30ARHM    C1 7608   4.349   5.703  20.174
   30ARHM    H1 7609   4.306   5.602  20.152
   30ARHM    C5 7610   4.296   5.936  20.186
   30ARHM    H5 7611   4.389   5.952  20.127
   30ARHM    O5 7612   4.249   5.804  20.153
   30ARHM    C2 7613   4.389   5.709  20.319
   30ARHM    H2 7614   4.468   5.633  20.339
   30ARHM    O2 7615   4.272   5.684  20.397
   30ARHM    C3 7616   4.440   5.846  20.358
   30ARHM    H3 7617   4.522   5.869  20.287
   30ARHM    O3 7618   4.498   5.847  20.490
   30ARHM    C4 7619   4.331   5.947  20.333
   30ARHM    H4 7620   4.239   5.925  20.392
   30ARHM    O4 7621   4.371   6.080  20.370
   30ARHM   HO4 7622   4.422   6.123  20.302
   30ARHM    C6 7623   4.194   6.043  20.142
   30ARHM   H61 7624   4.236   6.144  20.160
   30ARHM   H62 7625   4.174   6.031  20.034
   30ARHM   H63 7626   4.098   6.031  20.198
   31BMANN   C1 7627   4.249   5.550  20.426
   31BMANN   H1 7628   4.345   5.499  20.452
   31BMANN   C5 7629   4.149   5.344  20.357
   31BMANN   H5 7630   4.247   5.300  20.386
   31BMANN   O5 7631   4.178   5.481  20.322
   31BMANN   C2 7632   4.160   5.554  20.545
   31BMANN   H2 7633   4.219   5.601  20.628
   31BMANN    N 7634   4.043   5.637  20.520
   31BMANN   HN 7635   4.022   5.654  20.424
   31BMANN    C 7636   3.980   5.706  20.614
   31BMANN    O 7637   4.013   5.700  20.732
   31BMANN   CT 7638   3.863   5.789  20.569
   31BMANN  HT1 7639   3.808   5.737  20.488
   31BMANN  HT2 7640   3.898   5.885  20.528
   31BMANN  HT3 7641   3.795   5.810  20.655
   31BMANN   C3 7642   4.130   5.413  20.588
   31BMANN   H3 7643   4.227   5.359  20.603
   31BMANN   O3 7644   4.067   5.410  20.714
   31BMANN  HO3 7645   4.073   5.500  20.748
   31BMANN   C4 7646   4.058   5.340  20.479
   31BMANN   H4 7647   3.962   5.390  20.450
   31BMANN   O4 7648   4.026   5.207  20.519
   31BMANN  HO4 7649   4.104   5.164  20.554
   31BMANN   C6 7650   4.095   5.262  20.241
   31BMANN  H61 7651   4.098   5.154  20.269
   31BMANN  H62 7652   3.989   5.288  20.224
   31BMANN   O6 7653   4.166   5.282  20.119
   31BMANN  HO6 7654   4.254   5.242  20.119
   32BGLCN   C1 7655   4.407   5.858  20.597
   32BGLCN   H1 7656   4.314   5.802  20.577
   32BGLCN   C5 7657   4.269   6.000  20.728
   32BGLCN   H5 7658   4.181   5.940  20.694
   32BGLCN   O5 7659   4.370   5.993  20.626
   32BGLCN   C2 7660   4.468   5.798  20.722
   32BGLCN   H2 7661   4.552   5.866  20.751
   32BGLCN    N 7662   4.521   5.666  20.693
   32BGLCN   HN 7663   4.471   5.619  20.623
   32BGLCN    C 7664   4.632   5.611  20.744
   32BGLCN    O 7665   4.701   5.666  20.827
   32BGLCN   CT 7666   4.663   5.474  20.689
   32BGLCN  HT1 7667   4.606   5.461  20.595
   32BGLCN  HT2 7668   4.637   5.393  20.760
   32BGLCN  HT3 7669   4.772   5.465  20.667
   32BGLCN   C3 7670   4.362   5.797  20.828
   32BGLCN   H3 7671   4.272   5.748  20.784
   32BGLCN   O3 7672   4.398   5.722  20.945
   32BGLCN   C4 7673   4.325   5.941  20.856
   32BGLCN   H4 7674   4.417   5.996  20.887
   32BGLCN   O4 7675   4.229   5.951  20.960
   32BGLCN  HO4 7676   4.279   5.964  21.043
   32BGLCN   C6 7677   4.220   6.141  20.739
   32BGLCN  H61 7678   4.133   6.152  20.808
   32BGLCN  H62 7679   4.306   6.197  20.778
   32BGLCN   O6 7680   4.186   6.198  20.613
   32BGLCN  HO6 7681   4.140   6.131  20.562
   33AGAL    C1 7682   4.289   5.651  21.004
   33AGAL    H1 7683   4.196   5.712  20.997
   33AGAL    C5 7684   4.379   5.434  20.958
   33AGAL    H5 7685   4.466   5.493  20.921
   33AGAL    O5 7686   4.266   5.523  20.942
   33AGAL    C2 7687   4.320   5.626  21.150
   33AGAL    H2 7688   4.237   5.564  21.189
   33AGAL    O2 7689   4.314   5.750  21.223
   33AGAL    C3 7690   4.445   5.538  21.166
   33AGAL    H3 7691   4.530   5.582  21.109
   33AGAL    O3 7692   4.493   5.532  21.299
   33AGAL   HO3 7693   4.427   5.503  21.361
   33AGAL    C4 7694   4.415   5.402  21.102
   33AGAL    H4 7695   4.507   5.339  21.103
   33AGAL    O4 7696   4.315   5.323  21.168
   33AGAL   HO4 7697   4.255   5.374  21.223
   33AGAL    C6 7698   4.369   5.315  20.863
   33AGAL   H61 7699   4.369   5.358  20.761
   33AGAL   H62 7700   4.458   5.249  20.874
   33AGAL    O6 7701   4.254   5.233  20.879
   33AGAL   HO6 7702   4.180   5.263  20.824
   34ARHM    C1 7703   4.237   5.746  21.341
   34ARHM    H1 7704   4.269   5.658  21.401
   34ARHM    C5 7705   4.034   5.838  21.243
   34ARHM    H5 7706   4.081   5.839  21.143
   34ARHM    O5 7707   4.094   5.731  21.320
   34ARHM    C2 7708   4.266   5.874  21.417
   34ARHM    H2 7709   4.377   5.888  21.421
   34ARHM    O2 7710   4.216   5.876  21.553
   34ARHM    C3 7711   4.208   5.991  21.337
   34ARHM    H3 7712   4.255   5.992  21.236
   34ARHM    O3 7713   4.235   6.116  21.401
   34ARHM   HO3 7714   4.251   6.181  21.330
   34ARHM    C4 7715   4.059   5.969  21.316
   34ARHM    H4 7716   4.009   5.960  21.415
   34ARHM    O4 7717   3.998   6.077  21.245
   34ARHM   HO4 7718   3.991   6.157  21.299
   34ARHM    C6 7719   3.881   5.816  21.220
   34ARHM   H61 7720   3.823   5.809  21.314
   34ARHM   H62 7721   3.840   5.906  21.169
   34ARHM   H63 7722   3.857   5.730  21.155
   35ARHM    C1 7723   4.256   5.773  21.642
   35ARHM    H1 7724   4.363   5.747  21.624
   35ARHM    C5 7725   4.034   5.681  21.656
   35ARHM    H5 7726   3.995   5.758  21.587
   35ARHM    O5 7727   4.173   5.655  21.628
   35ARHM    C2 7728   4.245   5.821  21.786
   35ARHM    H2 7729   4.307   5.912  21.802
   35ARHM    O2 7730   4.290   5.720  21.878
   35ARHM    C3 7731   4.102   5.857  21.820
   35ARHM    H3 7732   4.065   5.934  21.749
   35ARHM    O3 7733   4.094   5.917  21.950
   35ARHM   HO3 7734   4.148   5.865  22.012
   35ARHM    C4 7735   4.016   5.732  21.800
   35ARHM    H4 7736   4.051   5.648  21.864
   35ARHM    O4 7737   3.878   5.759  21.828
   35ARHM   HO4 7738   3.853   5.846  21.796
   35ARHM    C6 7739   3.954   5.553  21.623
   35ARHM   H61 7740   3.958   5.529  21.514
   35ARHM   H62 7741   3.995   5.467  21.679
   35ARHM   H63 7742   3.847   5.568  21.647
   36BMANN   C1 7743   4.428   5.700  21.883
   36BMANN   H1 7744   4.481   5.791  21.849
   36BMANN   C5 7745   4.616   5.580  21.808
   36BMANN   H5 7746   4.662   5.677  21.779
   36BMANN   O5 7747   4.473   5.593  21.801
   36BMANN   C2 7748   4.463   5.670  22.028
   36BMANN   H2 7749   4.431   5.761  22.085
   36BMANN    N 7750   4.395   5.555  22.086
   36BMANN   HN 7751   4.378   5.479  22.025
   36BMANN    C 7752   4.366   5.546  22.217
   36BMANN    O 7753   4.382   5.639  22.296
   36BMANN   CT 7754   4.314   5.415  22.269
   36BMANN  HT1 7755   4.371   5.332  22.221
   36BMANN  HT2 7756   4.206   5.403  22.249
   36BMANN  HT3 7757   4.327   5.410  22.378
   36BMANN   C3 7758   4.614   5.660  22.038
   36BMANN   H3 7759   4.660   5.755  22.001
   36BMANN   O3 7760   4.659   5.640  22.172
   36BMANN  HO3 7761   4.712   5.714  22.204
   36BMANN   C4 7762   4.663   5.549  21.949
   36BMANN   H4 7763   4.620   5.451  21.981
   36BMANN   O4 7764   4.804   5.536  21.960
   36BMANN  HO4 7765   4.816   5.524  22.055
   36BMANN   C6 7766   4.662   5.477  21.710
   36BMANN  H61 7767   4.635   5.505  21.605
   36BMANN  H62 7768   4.769   5.482  21.718
   36BMANN   O6 7769   4.627   5.343  21.744
   36BMANN  HO6 7770   4.695   5.303  21.800
    1ECLIP HB6S 7771   2.862   5.735  11.778
    1ECLIP  OB6 7772   2.703   5.735  11.908
    1ECLIP  CB6 7773   2.779   5.667  11.806
    1ECLIP HB6R 7774   2.824   5.573  11.846
    1ECLIP  CB5 7775   2.702   5.631  11.680
    1ECLIP  OB5 7776   2.643   5.754  11.632
    1ECLIP  HB5 7777   2.624   5.557  11.710
    1ECLIP  CB1 7778   2.563   5.733  11.515
    1ECLIP  HB1 7779   2.483   5.657  11.533
    1ECLIP  OA6 7780   2.501   5.850  11.468
    1ECLIP  CA6 7781   2.573   5.972  11.492
    1ECLIP HA6R 7782   2.682   5.953  11.511
    1ECLIP HA6S 7783   2.528   6.022  11.581
    1ECLIP  CB4 7784   2.790   5.568  11.570
    1ECLIP  HB4 7785   2.874   5.635  11.541
    1ECLIP  OB4 7786   2.835   5.441  11.618
    1ECLIP   PB 7787   2.993   5.418  11.666
    1ECLIP OPB4 7788   2.996   5.319  11.783
    1ECLIP OPB3 7789   3.050   5.557  11.699
    1ECLIP OPB2 7790   3.070   5.363  11.546
    1ECLIP  CB3 7791   2.703   5.549  11.449
    1ECLIP  OB3 7792   2.775   5.505  11.336
    1ECLIP  HB3 7793   2.616   5.482  11.472
    1ECLIP  C71 7794   2.794   5.379  11.323
    1ECLIP  O71 7795   2.718   5.290  11.362
    1ECLIP  C72 7796   2.856   5.372  11.184
    1ECLIP H72R 7797   2.802   5.422  11.103
    1ECLIP H72S 7798   2.829   5.269  11.180
    1ECLIP  CB2 7799   2.648   5.681  11.403
    1ECLIP  HB2 7800   2.734   5.752  11.388
    1ECLIP  NB2 7801   2.569   5.666  11.281
    1ECLIP HNB2 7802   2.472   5.646  11.293
    1ECLIP  CA4 7803   2.419   6.067  11.317
    1ECLIP  HA4 7804   2.393   5.962  11.291
    1ECLIP  OA4 7805   2.337   6.120  11.422
    1ECLIP HOA4 7806   2.344   6.055  11.493
    1ECLIP  CA5 7807   2.560   6.060  11.370
    1ECLIP  HA5 7808   2.601   6.161  11.393
    1ECLIP  OA5 7809   2.642   6.002  11.270
    1ECLIP  CA1 7810   2.645   6.076  11.147
    1ECLIP  HA1 7811   2.697   6.006  11.079
    1ECLIP  OA1 7812   2.717   6.199  11.150
    1ECLIP OPA2 7813   2.852   6.279  11.336
    1ECLIP OPA3 7814   2.918   6.056  11.223
    1ECLIP OPA4 7815   2.958   6.274  11.100
    1ECLIP   PA 7816   2.873   6.200  11.205
    1ECLIP  CA3 7817   2.409   6.147  11.190
    1ECLIP  HA3 7818   2.438   6.252  11.209
    1ECLIP  OA3 7819   2.268   6.147  11.155
    1ECLIP  C31 7820   2.230   6.035  11.088
    1ECLIP  O31 7821   2.221   6.034  10.967
    1ECLIP  C32 7822   2.117   5.973  11.167
    1ECLIP H32R 7823   2.022   5.981  11.109
    1ECLIP H32S 7824   2.101   6.018  11.266
    1ECLIP  CA2 7825   2.505   6.084  11.087
    1ECLIP  HA2 7826   2.475   5.978  11.070
    1ECLIP  NA2 7827   2.504   6.155  10.958
    1ECLIP HNA2 7828   2.433   6.221  10.947
    1ECLIP  C73 7829   3.005   5.413  11.172
    1ECLIP H73R 7830   3.056   5.374  11.264
    1ECLIP  O73 7831   2.993   5.553  11.167
    1ECLIP  C81 7832   3.079   5.625  11.231
    1ECLIP  O81 7833   3.175   5.584  11.297
    1ECLIP  C82 7834   3.070   5.765  11.171
    1ECLIP H82R 7835   3.141   5.831  11.223
    1ECLIP H82S 7836   2.968   5.806  11.192
    1ECLIP  C83 7837   3.093   5.769  11.017
    1ECLIP H83R 7838   2.998   5.742  10.966
    1ECLIP H83S 7839   3.170   5.695  10.990
    1ECLIP  C84 7840   3.130   5.909  10.966
    1ECLIP H84R 7841   3.233   5.936  10.997
    1ECLIP H84S 7842   3.057   5.980  11.013
    1ECLIP  C85 7843   3.113   5.923  10.813
    1ECLIP H85R 7844   3.017   5.872  10.791
    1ECLIP H85S 7845   3.192   5.866  10.759
    1ECLIP  C86 7846   3.097   6.069  10.765
    1ECLIP H86R 7847   3.194   6.112  10.735
    1ECLIP H86S 7848   3.057   6.131  10.849
    1ECLIP  C87 7849   2.992   6.082  10.652
    1ECLIP H87R 7850   2.990   6.187  10.616
    1ECLIP H87S 7851   2.891   6.062  10.694
    1ECLIP  C88 7852   3.015   5.983  10.539
    1ECLIP H88R 7853   2.981   5.882  10.571
    1ECLIP H88S 7854   3.124   5.972  10.524
    1ECLIP  C89 7855   2.942   6.020  10.408
    1ECLIP H89R 7856   2.858   6.091  10.426
    1ECLIP H89S 7857   2.896   5.930  10.362
    1ECLIP C810 7858   3.041   6.077  10.307
    1ECLIPH810R 7859   3.140   6.031  10.330
    1ECLIPH810S 7860   3.049   6.187  10.323
    1ECLIP C811 7861   3.003   6.047  10.162
    1ECLIPH811R 7862   3.053   6.121  10.097
    1ECLIPH811S 7863   2.894   6.061  10.155
    1ECLIP C812 7864   3.033   5.906  10.110
    1ECLIPH812R 7865   2.989   5.899  10.008
    1ECLIPH812S 7866   2.984   5.832  10.177
    1ECLIP C813 7867   3.181   5.867  10.100
    1ECLIPH813R 7868   3.230   5.936  10.029
    1ECLIPH813S 7869   3.232   5.876  10.199
    1ECLIP C814 7870   3.199   5.723  10.049
    1ECLIPH814R 7871   3.139   5.703   9.958
    1ECLIPH814S 7872   3.169   5.651  10.128
    1ECLIPH814T 7873   3.306   5.705  10.025
    1ECLIP  C74 7874   3.093   5.373  11.046
    1ECLIP H74R 7875   3.123   5.268  11.031
    1ECLIP H74S 7876   3.193   5.416  11.069
    1ECLIP  C75 7877   3.047   5.433  10.910
    1ECLIP H75R 7878   3.139   5.455  10.854
    1ECLIP H75S 7879   2.986   5.523  10.933
    1ECLIP  C76 7880   2.964   5.352  10.813
    1ECLIP H76R 7881   2.857   5.365  10.847
    1ECLIP H76S 7882   3.004   5.246  10.810
    1ECLIP  C77 7883   2.958   5.382  10.667
    1ECLIP H77R 7884   3.057   5.362  10.626
    1ECLIP H77S 7885   2.919   5.484  10.656
    1ECLIP  C78 7886   2.860   5.295  10.596
    1ECLIP H78R 7887   2.872   5.187  10.620
    1ECLIP H78S 7888   2.768   5.341  10.636
    1ECLIP  C79 7889   2.826   5.325  10.452
    1ECLIP H79R 7890   2.737   5.392  10.443
    1ECLIP H79S 7891   2.806   5.230  10.397
    1ECLIP C710 7892   2.937   5.360  10.373
    1ECLIPH710R 7893   2.979   5.450  10.419
    1ECLIPH710S 7894   3.001   5.274  10.397
    1ECLIP C711 7895   2.891   5.376  10.231
    1ECLIPH711R 7896   2.851   5.283  10.187
    1ECLIPH711S 7897   2.813   5.456  10.226
    1ECLIP C712 7898   3.015   5.413  10.156
    1ECLIPH712R 7899   3.083   5.325  10.159
    1ECLIPH712S 7900   3.061   5.493  10.217
    1ECLIP C713 7901   2.986   5.462  10.015
    1ECLIPH713R 7902   2.921   5.551  10.021
    1ECLIPH713S 7903   3.083   5.487   9.967
    1ECLIP C714 7904   2.919   5.359   9.928
    1ECLIPH714R 7905   2.990   5.276   9.939
    1ECLIPH714S 7906   2.821   5.322   9.961
    1ECLIPH714T 7907   2.915   5.393   9.823
    1ECLIP  C51 7908   2.625   5.674  11.160
    1ECLIP  O51 7909   2.737   5.719  11.144
    1ECLIP  C52 7910   2.549   5.619  11.041
    1ECLIP H52R 7911   2.566   5.511  11.029
    1ECLIP H52S 7912   2.445   5.635  11.060
    1ECLIP  C53 7913   2.585   5.695  10.912
    1ECLIP H53R 7914   2.608   5.802  10.935
    1ECLIP  O53 7915   2.474   5.678  10.821
    1ECLIP  C61 7916   2.403   5.786  10.788
    1ECLIP  O61 7917   2.425   5.900  10.823
    1ECLIP  C62 7918   2.288   5.745  10.696
    1ECLIP H62R 7919   2.205   5.707  10.759
    1ECLIP H62S 7920   2.325   5.659  10.637
    1ECLIP  C63 7921   2.240   5.865  10.609
    1ECLIP H63R 7922   2.330   5.914  10.565
    1ECLIP H63S 7923   2.186   5.940  10.671
    1ECLIP  C64 7924   2.152   5.829  10.490
    1ECLIP H64R 7925   2.117   5.920  10.436
    1ECLIP H64S 7926   2.063   5.775  10.528
    1ECLIP  C65 7927   2.236   5.744  10.396
    1ECLIP H65R 7928   2.252   5.648  10.452
    1ECLIP H65S 7929   2.331   5.788  10.364
    1ECLIP  C66 7930   2.170   5.706  10.268
    1ECLIP H66R 7931   2.075   5.673  10.312
    1ECLIP H66S 7932   2.226   5.621  10.222
    1ECLIP  C67 7933   2.127   5.805  10.160
    1ECLIP H67R 7934   2.063   5.886  10.198
    1ECLIP H67S 7935   2.069   5.761  10.076
    1ECLIP  C68 7936   2.245   5.862  10.092
    1ECLIP H68R 7937   2.311   5.784  10.046
    1ECLIP H68S 7938   2.298   5.917  10.170
    1ECLIP  C69 7939   2.187   5.954   9.986
    1ECLIP H69R 7940   2.083   5.989   9.987
    1ECLIP H69S 7941   2.156   5.865   9.925
    1ECLIP C610 7942   2.288   6.066   9.937
    1ECLIPH610R 7943   2.391   6.023   9.948
    1ECLIPH610S 7944   2.282   6.142  10.020
    1ECLIP C611 7945   2.259   6.146   9.795
    1ECLIPH611R 7946   2.157   6.173   9.809
    1ECLIPH611S 7947   2.293   6.248   9.807
    1ECLIP C612 7948   2.275   6.111   9.634
    1ECLIPH612R 7949   2.379   6.071   9.619
    1ECLIPH612S 7950   2.183   6.040   9.629
    1ECLIPH612T 7951   2.233   6.076   9.540
    1ECLIP  C54 7952   2.711   5.626  10.853
    1ECLIP H54R 7953   2.680   5.523  10.825
    1ECLIP H54S 7954   2.786   5.618  10.934
    1ECLIP  C55 7955   2.777   5.695  10.733
    1ECLIP H55R 7956   2.880   5.657  10.719
    1ECLIP H55S 7957   2.789   5.803  10.756
    1ECLIP  C56 7958   2.696   5.667  10.606
    1ECLIP H56R 7959   2.592   5.701  10.622
    1ECLIP H56S 7960   2.692   5.558  10.587
    1ECLIP  C57 7961   2.739   5.737  10.478
    1ECLIP H57R 7962   2.847   5.719  10.455
    1ECLIP H57S 7963   2.727   5.847  10.491
    1ECLIP  C58 7964   2.649   5.692  10.362
    1ECLIP H58R 7965   2.638   5.581  10.358
    1ECLIP H58S 7966   2.546   5.731  10.383
    1ECLIP  C59 7967   2.701   5.740  10.228
    1ECLIP H59R 7968   2.805   5.703  10.209
    1ECLIP H59S 7969   2.705   5.851  10.234
    1ECLIP C510 7970   2.619   5.688  10.112
    1ECLIPH510R 7971   2.509   5.697  10.123
    1ECLIPH510S 7972   2.642   5.579  10.093
    1ECLIP C511 7973   2.650   5.757   9.985
    1ECLIPH511R 7974   2.597   5.853   9.968
    1ECLIPH511S 7975   2.762   5.779   9.977
    1ECLIP C512 7976   2.605   5.656   9.882
    1ECLIPH512R 7977   2.681   5.715   9.827
    1ECLIPH512S 7978   2.638   5.553   9.878
    1ECLIP C513 7979   2.458   5.651   9.828
    1ECLIPH513R 7980   2.470   5.755   9.803
    1ECLIPH513S 7981   2.380   5.644   9.904
    1ECLIP C514 7982   2.405   5.580   9.698
    1ECLIPH514R 7983   2.445   5.481   9.681
    1ECLIPH514S 7984   2.296   5.584   9.682
    1ECLIPH514T 7985   2.438   5.629   9.604
    1ECLIP  C33 7986   2.150   5.824  11.189
    1ECLIP H33R 7987   2.053   5.784  11.223
    1ECLIP  O33 7988   2.234   5.798  11.297
    1ECLIP HO33 7989   2.184   5.797  11.380
    1ECLIP  C34 7990   2.212   5.743  11.073
    1ECLIP H34R 7991   2.298   5.777  11.018
    1ECLIP H34S 7992   2.147   5.782  10.990
    1ECLIP  C35 7993   2.233   5.585  11.102
    1ECLIP H35R 7994   2.150   5.525  11.124
    1ECLIP H35S 7995   2.265   5.556  11.202
    1ECLIP  C36 7996   2.238   5.491  10.982
    1ECLIP H36R 7997   2.272   5.553  10.899
    1ECLIP H36S 7998   2.139   5.441  10.961
    1ECLIP  C37 7999   2.293   5.357  11.001
    1ECLIP H37R 8000   2.213   5.277  11.010
    1ECLIP H37S 8001   2.348   5.366  11.095
    1ECLIP  C38 8002   2.371   5.330  10.878
    1ECLIP H38R 8003   2.468   5.385  10.878
    1ECLIP H38S 8004   2.372   5.220  10.896
    1ECLIP  C39 8005   2.302   5.341  10.746
    1ECLIP H39R 8006   2.272   5.443  10.723
    1ECLIP H39S 8007   2.229   5.256  10.746
    1ECLIP C310 8008   2.373   5.315  10.621
    1ECLIPH310R 8009   2.366   5.201  10.616
    1ECLIPH310S 8010   2.475   5.364  10.626
    1ECLIP C311 8011   2.318   5.369  10.493
    1ECLIPH311R 8012   2.216   5.340  10.488
    1ECLIPH311S 8013   2.358   5.471  10.475
    1ECLIP C312 8014   2.365   5.300  10.373
    1ECLIPH312R 8015   2.459   5.311  10.432
    1ECLIPH312S 8016   2.329   5.196  10.357
    1ECLIP C313 8017   2.374   5.381  10.244
    1ECLIPH313R 8018   2.269   5.364  10.211
    1ECLIPH313S 8019   2.413   5.481  10.263
    1ECLIP C314 8020   2.448   5.339  10.122
    1ECLIPH314R 8021   2.384   5.248  10.103
    1ECLIPH314S 8022   2.450   5.394  10.027
    1ECLIPH314T 8023   2.558   5.326  10.137
    1ECLIP  C11 8024   2.599   6.151  10.862
    1ECLIP  O11 8025   2.681   6.062  10.846
    1ECLIP  C12 8026   2.597   6.270  10.769
    1ECLIP H12R 8027   2.684   6.335  10.791
    1ECLIP H12S 8028   2.503   6.327  10.788
    1ECLIP  C13 8029   2.599   6.230  10.622
    1ECLIP H13R 8030   2.672   6.148  10.601
    1ECLIP  O13 8031   2.640   6.345  10.548
    1ECLIP HO13 8032   2.685   6.326  10.466
    1ECLIP  C14 8033   2.458   6.184  10.580
    1ECLIP H14R 8034   2.381   6.246  10.632
    1ECLIP H14S 8035   2.449   6.079  10.614
    1ECLIP  C15 8036   2.427   6.186  10.432
    1ECLIP H15R 8037   2.445   6.289  10.394
    1ECLIP H15S 8038   2.319   6.166  10.419
    1ECLIP  C16 8039   2.510   6.081  10.357
    1ECLIP H16R 8040   2.465   5.980  10.365
    1ECLIP H16S 8041   2.611   6.075  10.402
    1ECLIP  C17 8042   2.523   6.118  10.211
    1ECLIP H17R 8043   2.422   6.153  10.177
    1ECLIP H17S 8044   2.553   6.035  10.144
    1ECLIP  C18 8045   2.628   6.228  10.208
    1ECLIP H18R 8046   2.589   6.318  10.262
    1ECLIP H18S 8047   2.731   6.199  10.234
    1ECLIP  C19 8048   2.647   6.276  10.072
    1ECLIP H19R 8049   2.694   6.376  10.066
    1ECLIP H19S 8050   2.536   6.301  10.070
    1ECLIP C110 8051   2.707   6.170   9.969
    1ECLIPH110R 8052   2.804   6.131  10.004
    1ECLIPH110S 8053   2.633   6.088   9.954
    1ECLIP C111 8054   2.765   6.207   9.830
    1ECLIPH111R 8055   2.722   6.271   9.761
    1ECLIPH111S 8056   2.819   6.302   9.827
    1ECLIP C112 8057   2.778   6.098   9.724
    1ECLIPH112R 8058   2.872   6.059   9.757
    1ECLIPH112S 8059   2.694   6.023   9.723
    1ECLIP C113 8060   2.788   6.162   9.587
    1ECLIPH113R 8061   2.680   6.169   9.594
    1ECLIPH113S 8062   2.807   6.271   9.573
    1ECLIP C114 8063   2.834   6.087   9.463
    1ECLIPH114R 8064   2.940   6.066   9.468
    1ECLIPH114S 8065   2.767   6.001   9.441
    1ECLIPH114T 8066   2.832   6.151   9.372
    2AKDO    C1 8067   2.586   5.539  11.978
    2AKDO   O11 8068   2.634   5.423  11.975
    2AKDO   O12 8069   2.470   5.573  11.945
    2AKDO    C2 8070   2.680   5.655  12.024
    2AKDO    C6 8071   2.894   5.705  12.122
    2AKDO    H6 8072   2.910   5.768  12.031
    2AKDO    O6 8073   2.802   5.603  12.083
    2AKDO    C3 8074   2.615   5.745  12.129
    2AKDO   H31 8075   2.579   5.684  12.215
    2AKDO   H32 8076   2.526   5.793  12.082
    2AKDO    C4 8077   2.707   5.854  12.174
    2AKDO    H4 8078   2.741   5.912  12.085
    2AKDO    O4 8079   2.648   5.938  12.273
    2AKDO    C5 8080   2.833   5.795  12.233
    2AKDO    H5 8081   2.906   5.879  12.245
    2AKDO    O5 8082   2.799   5.735  12.362
    2AKDO    C7 8083   3.030   5.644  12.152
    2AKDO    H7 8084   3.021   5.582  12.244
    2AKDO    O7 8085   3.127   5.748  12.171
    2AKDO   HO7 8086   3.154   5.776  12.084
    2AKDO    C8 8087   3.075   5.556  12.039
    2AKDO   H81 8088   2.998   5.477  12.022
    2AKDO   H82 8089   3.082   5.616  11.945
    2AKDO    O8 8090   3.203   5.495  12.067
    2AKDO   HO8 8091   3.196   5.405  12.030
    3AKDO    C1 8092   2.615   6.121  12.115
    3AKDO   O11 8093   2.574   6.092  11.999
    3AKDO   O12 8094   2.712   6.195  12.144
    3AKDO    C2 8095   2.558   6.041  12.237
    3AKDO    C6 8096   2.369   5.914  12.317
    3AKDO    H6 8097   2.435   5.824  12.335
    3AKDO    O6 8098   2.425   5.993  12.210
    3AKDO    C3 8099   2.550   6.123  12.369
    3AKDO   H31 8100   2.485   6.212  12.352
    3AKDO   H32 8101   2.650   6.163  12.395
    3AKDO    C4 8102   2.495   6.036  12.481
    3AKDO    H4 8103   2.557   5.943  12.485
    3AKDO    O4 8104   2.494   6.094  12.611
    3AKDO   HO4 8105   2.553   6.043  12.668
    3AKDO    C5 8106   2.357   5.996  12.443
    3AKDO    H5 8107   2.317   5.931  12.525
    3AKDO    O5 8108   2.271   6.109  12.427
    3AKDO   HO5 8109   2.305   6.158  12.351
    3AKDO    C7 8110   2.237   5.861  12.272
    3AKDO    H7 8111   2.169   5.947  12.248
    3AKDO    O7 8112   2.176   5.784  12.378
    3AKDO   HO7 8113   2.088   5.759  12.348
    3AKDO    C8 8114   2.269   5.777  12.152
    3AKDO   H81 8115   2.315   5.837  12.071
    3AKDO   H82 8116   2.329   5.689  12.174
    3AKDO    O8 8117   2.154   5.725  12.098
    3AKDO   HO8 8118   2.117   5.809  12.067
    4AHEP    C1 8119   2.900   5.736  12.461
    4AHEP    H1 8120   2.970   5.658  12.427
    4AHEP    C5 8121   2.910   5.966  12.536
    4AHEP    H5 8122   2.811   5.979  12.488
    4AHEP    O5 8123   2.976   5.858  12.467
    4AHEP    C2 8124   2.868   5.695  12.607
    4AHEP    H2 8125   2.802   5.606  12.604
    4AHEP    O2 8126   2.986   5.655  12.675
    4AHEP   HO2 8127   2.970   5.573  12.722
    4AHEP    C3 8128   2.795   5.803  12.686
    4AHEP    H3 8129   2.693   5.823  12.646
    4AHEP    O3 8130   2.784   5.762  12.824
    4AHEP    C4 8131   2.881   5.928  12.682
    4AHEP    H4 8132   2.979   5.913  12.734
    4AHEP    O4 8133   2.804   6.033  12.741
    4AHEP    P4 8134   2.844   6.105  12.886
    4AHEP  OP42 8135   2.709   6.140  12.948
    4AHEP  OP43 8136   2.925   6.228  12.842
    4AHEP  OP44 8137   2.926   6.003  12.966
    4AHEP    C6 8138   2.993   6.097  12.517
    4AHEP    H6 8139   2.923   6.180  12.544
    4AHEP    O6 8140   3.110   6.112  12.601
    4AHEP   HO6 8141   3.088   6.176  12.670
    4AHEP    C7 8142   3.039   6.120  12.371
    4AHEP   H71 8143   3.071   6.225  12.355
    4AHEP   H72 8144   2.953   6.101  12.302
    4AHEP    O7 8145   3.148   6.038  12.327
    4AHEP   HO7 8146   3.225   6.071  12.374
    5AHEP    C1 8147   2.656   5.755  12.883
    5AHEP    H1 8148   2.586   5.826  12.834
    5AHEP    C5 8149   2.688   5.527  12.936
    5AHEP    H5 8150   2.792   5.537  12.897
    5AHEP    O5 8151   2.606   5.622  12.866
    5AHEP    C2 8152   2.661   5.786  13.033
    5AHEP    H2 8153   2.707   5.886  13.045
    5AHEP    O2 8154   2.527   5.793  13.085
    5AHEP   HO2 8155   2.503   5.885  13.099
    5AHEP    C3 8156   2.747   5.686  13.110
    5AHEP    H3 8157   2.851   5.690  13.068
    5AHEP    O3 8158   2.754   5.705  13.253
    5AHEP    C4 8159   2.690   5.550  13.085
    5AHEP    H4 8160   2.585   5.541  13.121
    5AHEP    O4 8161   2.779   5.454  13.142
    5AHEP    P4 8162   2.723   5.362  13.268
    5AHEP  OP42 8163   2.852   5.294  13.313
    5AHEP  OP43 8164   2.624   5.272  13.198
    5AHEP  OP44 8165   2.660   5.461  13.367
    5AHEP    C6 8166   2.643   5.389  12.902
    5AHEP    H6 8167   2.714   5.316  12.953
    5AHEP    O6 8168   2.511   5.353  12.941
    5AHEP   HO6 8169   2.443   5.396  12.892
    5AHEP    C7 8170   2.653   5.378  12.756
    5AHEP   H71 8171   2.685   5.276  12.775
    5AHEP   H72 8172   2.739   5.424  12.701
    5AHEP    O7 8173   2.533   5.371  12.679
    6AHEP    C1 8174   2.509   5.493  12.616
    6AHEP    H1 8175   2.591   5.565  12.638
    6AHEP    C5 8176   2.399   5.392  12.436
    6AHEP    H5 8177   2.410   5.296  12.492
    6AHEP    O5 8178   2.509   5.475  12.477
    6AHEP    C2 8179   2.378   5.554  12.660
    6AHEP    H2 8180   2.384   5.564  12.771
    6AHEP    O2 8181   2.365   5.685  12.609
    6AHEP   HO2 8182   2.375   5.741  12.686
    6AHEP    C3 8183   2.262   5.462  12.623
    6AHEP    H3 8184   2.279   5.364  12.675
    6AHEP    O3 8185   2.134   5.515  12.661
    6AHEP   HO3 8186   2.100   5.471  12.740
    6AHEP    C4 8187   2.266   5.443  12.473
    6AHEP    H4 8188   2.248   5.537  12.417
    6AHEP    O4 8189   2.172   5.344  12.431
    6AHEP   HO4 8190   2.205   5.257  12.449
    6AHEP    C6 8191   2.402   5.369  12.284
    6AHEP    H6 8192   2.333   5.286  12.258
    6AHEP    O6 8193   2.374   5.470  12.195
    6AHEP   HO6 8194   2.451   5.469  12.134
    6AHEP    C7 8195   2.533   5.336  12.242
    6AHEP   H71 8196   2.535   5.277  12.146
    6AHEP   H72 8197   2.542   5.278  12.333
    6AHEP    O7 8198   2.647   5.418  12.256
    6AHEP   HO7 8199   2.702   5.376  12.325
    7AGLC    C1 8200   2.860   5.784  13.302
    7AGLC    H1 8201   2.956   5.756  13.253
    7AGLC    C5 8202   2.713   5.967  13.346
    7AGLC    H5 8203   2.626   5.903  13.318
    7AGLC    O5 8204   2.832   5.922  13.280
    7AGLC    C2 8205   2.881   5.771  13.453
    7AGLC    H2 8206   2.957   5.848  13.480
    7AGLC    O2 8207   2.939   5.648  13.492
    7AGLC   HO2 8208   2.870   5.578  13.492
    7AGLC    C3 8209   2.759   5.809  13.533
    7AGLC    H3 8210   2.675   5.746  13.497
    7AGLC    O3 8211   2.775   5.785  13.676
    7AGLC    C4 8212   2.731   5.954  13.498
    7AGLC    H4 8213   2.817   6.018  13.530
    7AGLC    O4 8214   2.612   5.995  13.563
    7AGLC   HO4 8215   2.621   6.084  13.601
    7AGLC    C6 8216   2.681   6.105  13.288
    7AGLC   H61 8217   2.670   6.093  13.177
    7AGLC   H62 8218   2.586   6.147  13.325
    7AGLC    O6 8219   2.786   6.198  13.313
    7AGLC   HO6 8220   2.764   6.252  13.388
    8AGLC    C1 8221   2.682   5.691  13.729
    8AGLC    H1 8222   2.581   5.713  13.688
    8AGLC    C5 8223   2.835   5.501  13.758
    8AGLC    H5 8224   2.919   5.566  13.725
    8AGLC    O5 8225   2.714   5.554  13.697
    8AGLC    C2 8226   2.668   5.702  13.880
    8AGLC    H2 8227   2.586   5.631  13.907
    8AGLC    O2 8228   2.630   5.831  13.930
    8AGLC    C3 8229   2.793   5.657  13.949
    8AGLC    H3 8230   2.876   5.721  13.909
    8AGLC    O3 8231   2.777   5.685  14.089
    8AGLC    C4 8232   2.820   5.513  13.910
    8AGLC    H4 8233   2.730   5.453  13.940
    8AGLC    O4 8234   2.933   5.461  13.980
    8AGLC   HO4 8235   3.005   5.525  13.973
    8AGLC    C6 8236   2.874   5.359  13.710
    8AGLC   H61 8237   2.868   5.350  13.599
    8AGLC   H62 8238   2.980   5.339  13.737
    8AGLC    O6 8239   2.801   5.252  13.771
    8AGLC   HO6 8240   2.833   5.241  13.860
    9AGAL    C1 8241   2.512   5.889  13.880
    9AGAL    H1 8242   2.512   5.887  13.769
    9AGAL    C5 8243   2.373   5.836  14.064
    9AGAL    H5 8244   2.468   5.801  14.111
    9AGAL    O5 8245   2.391   5.824  13.922
    9AGAL    C2 8246   2.514   6.036  13.921
    9AGAL    H2 8247   2.424   6.081  13.874
    9AGAL    O2 8248   2.630   6.096  13.857
    9AGAL    C3 8249   2.496   6.052  14.071
    9AGAL    H3 8250   2.579   6.000  14.125
    9AGAL    O3 8251   2.504   6.187  14.115
    9AGAL   HO3 8252   2.562   6.228  14.049
    9AGAL    C4 8253   2.363   5.984  14.106
    9AGAL    H4 8254   2.348   5.987  14.216
    9AGAL    O4 8255   2.248   6.047  14.046
    9AGAL   HO4 8256   2.177   6.025  14.106
    9AGAL    C6 8257   2.264   5.744  14.120
    9AGAL   H61 8258   2.290   5.639  14.096
    9AGAL   H62 8259   2.264   5.750  14.232
    9AGAL    O6 8260   2.131   5.772  14.073
    9AGAL   HO6 8261   2.116   5.704  14.006
   10AGAL    C1 8262   2.713   6.196  13.912
   10AGAL    H1 8263   2.654   6.289  13.917
   10AGAL    C5 8264   2.859   6.054  14.042
   10AGAL    H5 8265   2.797   5.971  14.001
   10AGAL    O5 8266   2.770   6.168  14.042
   10AGAL    C2 8267   2.826   6.220  13.812
   10AGAL    H2 8268   2.887   6.306  13.849
   10AGAL    O2 8269   2.781   6.264  13.684
   10AGAL   HO2 8270   2.836   6.342  13.664
   10AGAL    C3 8271   2.914   6.096  13.808
   10AGAL    H3 8272   2.850   6.009  13.782
   10AGAL    O3 8273   3.014   6.103  13.707
   10AGAL   HO3 8274   2.996   6.038  13.639
   10AGAL    C4 8275   2.974   6.072  13.945
   10AGAL    H4 8276   3.034   5.978  13.944
   10AGAL    O4 8277   3.061   6.177  13.987
   10AGAL   HO4 8278   3.004   6.252  13.998
   10AGAL    C6 8279   2.904   6.002  14.180
   10AGAL   H61 8280   2.816   5.995  14.246
   10AGAL   H62 8281   2.942   5.899  14.164
   10AGAL    O6 8282   3.006   6.075  14.250
   10AGAL   HO6 8283   2.966   6.116  14.326
   11BGLC    C1 8284   2.735   5.588  14.184
   11BGLC    H1 8285   2.818   5.517  14.194
   11BGLC    C5 8286   2.556   5.438  14.249
   11BGLC    H5 8287   2.629   5.359  14.272
   11BGLC    O5 8288   2.609   5.528  14.149
   11BGLC    C2 8289   2.715   5.663  14.315
   11BGLC    H2 8290   2.639   5.743  14.301
   11BGLC    O2 8291   2.837   5.725  14.353
   11BGLC   HO2 8292   2.821   5.818  14.370
   11BGLC    C3 8293   2.664   5.574  14.427
   11BGLC    H3 8294   2.739   5.497  14.454
   11BGLC    O3 8295   2.632   5.656  14.541
   11BGLC    C4 8296   2.534   5.514  14.380
   11BGLC    H4 8297   2.462   5.594  14.357
   11BGLC    O4 8298   2.475   5.432  14.480
   11BGLC   HO4 8299   2.444   5.490  14.551
   11BGLC    C6 8300   2.427   5.381  14.193
   11BGLC   H61 8301   2.371   5.311  14.261
   11BGLC   H62 8302   2.362   5.457  14.151
   11BGLC    O6 8303   2.437   5.329  14.065
   11BGLC   HO6 8304   2.414   5.235  14.068
   12BGLCN   C1 8305   2.686   5.624  14.668
   12BGLCN   H1 8306   2.789   5.666  14.674
   12BGLCN   C5 8307   2.746   5.456  14.824
   12BGLCN   H5 8308   2.845   5.501  14.827
   12BGLCN   O5 8309   2.689   5.484  14.695
   12BGLCN   C2 8310   2.596   5.689  14.772
   12BGLCN   H2 8311   2.499   5.634  14.767
   12BGLCN    N 8312   2.581   5.829  14.743
   12BGLCN   HN 8313   2.667   5.878  14.731
   12BGLCN    C 8314   2.461   5.885  14.727
   12BGLCN    O 8315   2.357   5.824  14.744
   12BGLCN   CT 8316   2.458   6.031  14.691
   12BGLCN  HT1 8317   2.421   6.091  14.776
   12BGLCN  HT2 8318   2.386   6.048  14.608
   12BGLCN  HT3 8319   2.559   6.064  14.660
   12BGLCN   C3 8320   2.650   5.670  14.912
   12BGLCN   H3 8321   2.750   5.717  14.917
   12BGLCN   O3 8322   2.568   5.736  15.013
   12BGLCN   C4 8323   2.660   5.520  14.933
   12BGLCN   H4 8324   2.560   5.473  14.926
   12BGLCN   O4 8325   2.711   5.490  15.062
   12BGLCN  HO4 8326   2.804   5.514  15.065
   12BGLCN   C6 8327   2.763   5.305  14.831
   12BGLCN  H61 8328   2.804   5.272  14.929
   12BGLCN  H62 8329   2.662   5.259  14.819
   12BGLCN   O6 8330   2.848   5.256  14.728
   12BGLCN  HO6 8331   2.941   5.259  14.754
   13AGAL    C1 8332   2.637   5.800  15.120
   13AGAL    H1 8333   2.722   5.735  15.152
   13AGAL    C5 8334   2.573   6.025  15.064
   13AGAL    H5 8335   2.505   5.973  14.991
   13AGAL    O5 8336   2.682   5.932  15.084
   13AGAL    C2 8337   2.554   5.821  15.247
   13AGAL    H2 8338   2.620   5.878  15.316
   13AGAL    O2 8339   2.525   5.697  15.312
   13AGAL    C3 8340   2.435   5.912  15.227
   13AGAL    H3 8341   2.376   5.875  15.139
   13AGAL    O3 8342   2.344   5.919  15.336
   13AGAL   HO3 8343   2.253   5.912  15.305
   13AGAL    C4 8344   2.490   6.047  15.189
   13AGAL    H4 8345   2.406   6.113  15.168
   13AGAL    O4 8346   2.559   6.114  15.294
   13AGAL   HO4 8347   2.626   6.058  15.333
   13AGAL    C6 8348   2.608   6.153  14.990
   13AGAL   H61 8349   2.662   6.127  14.897
   13AGAL   H62 8350   2.513   6.206  14.966
   13AGAL    O6 8351   2.686   6.246  15.063
   13AGAL   HO6 8352   2.634   6.285  15.135
   14ARHM    C1 8353   2.586   5.676  15.438
   14ARHM    H1 8354   2.682   5.728  15.442
   14ARHM    C5 8355   2.498   5.468  15.453
   14ARHM    H5 8356   2.445   5.479  15.354
   14ARHM    O5 8357   2.619   5.541  15.453
   14ARHM    C2 8358   2.495   5.723  15.550
   14ARHM    H2 8359   2.471   5.829  15.530
   14ARHM    O2 8360   2.542   5.707  15.684
   14ARHM    C3 8361   2.369   5.642  15.546
   14ARHM    H3 8362   2.338   5.644  15.441
   14ARHM    O3 8363   2.265   5.694  15.627
   14ARHM   HO3 8364   2.288   5.674  15.718
   14ARHM    C4 8365   2.402   5.498  15.566
   14ARHM    H4 8366   2.462   5.485  15.656
   14ARHM    O4 8367   2.288   5.410  15.576
   14ARHM   HO4 8368   2.270   5.383  15.667
   14ARHM    C6 8369   2.542   5.331  15.463
   14ARHM   H61 8370   2.621   5.293  15.393
   14ARHM   H62 8371   2.556   5.296  15.567
   14ARHM   H63 8372   2.445   5.291  15.429
   15ARHM    C1 8373   2.670   5.757  15.711
   15ARHM    H1 8374   2.693   5.840  15.641
   15ARHM    C5 8375   2.766   5.552  15.800
   15ARHM    H5 8376   2.678   5.488  15.778
   15ARHM    O5 8377   2.775   5.659  15.704
   15ARHM    C2 8378   2.665   5.816  15.850
   15ARHM    H2 8379   2.578   5.886  15.857
   15ARHM    O2 8380   2.787   5.891  15.865
   15ARHM    C3 8381   2.644   5.705  15.950
   15ARHM    H3 8382   2.553   5.649  15.921
   15ARHM    O3 8383   2.619   5.765  16.077
   15ARHM    C4 8384   2.762   5.610  15.940
   15ARHM    H4 8385   2.856   5.670  15.953
   15ARHM    O4 8386   2.764   5.505  16.037
   15ARHM   HO4 8387   2.854   5.468  16.033
   15ARHM    C6 8388   2.888   5.460  15.783
   15ARHM   H61 8389   2.879   5.366  15.841
   15ARHM   H62 8390   2.900   5.436  15.675
   15ARHM   H63 8391   2.981   5.509  15.818
   16BMANN   C1 8392   2.813   5.958  15.987
   16BMANN   H1 8393   2.831   5.883  16.067
   16BMANN   C5 8394   2.736   6.106  16.157
   16BMANN   H5 8395   2.756   6.026  16.232
   16BMANN   O5 8396   2.707   6.046  16.029
   16BMANN   C2 8397   2.942   6.038  15.967
   16BMANN   H2 8398   3.021   5.965  15.939
   16BMANN    N 8399   2.935   6.139  15.861
   16BMANN   HN 8400   2.909   6.230  15.892
   16BMANN    C 8401   2.972   6.123  15.733
   16BMANN    O 8402   3.015   6.018  15.688
   16BMANN   CT 8403   2.954   6.242  15.643
   16BMANN  HT1 8404   3.051   6.290  15.621
   16BMANN  HT2 8405   2.887   6.316  15.690
   16BMANN  HT3 8406   2.909   6.208  15.547
   16BMANN   C3 8407   2.977   6.102  16.101
   16BMANN   H3 8408   2.989   6.020  16.176
   16BMANN   O3 8409   3.102   6.169  16.094
   16BMANN  HO3 8410   3.160   6.140  16.166
   16BMANN   C4 8411   2.862   6.190  16.148
   16BMANN   H4 8412   2.840   6.269  16.074
   16BMANN   O4 8413   2.890   6.256  16.272
   16BMANN  HO4 8414   2.831   6.332  16.283
   16BMANN   C6 8415   2.620   6.186  16.213
   16BMANN  H61 8416   2.627   6.185  16.324
   16BMANN  H62 8417   2.627   6.289  16.174
   16BMANN   O6 8418   2.489   6.143  16.177
   16BMANN  HO6 8419   2.449   6.209  16.119
   17BGLCN   C1 8420   2.517   5.703  16.151
   17BGLCN   H1 8421   2.525   5.593  16.134
   17BGLCN   C5 8422   2.281   5.685  16.192
   17BGLCN   H5 8423   2.281   5.575  16.172
   17BGLCN   O5 8424   2.386   5.746  16.114
   17BGLCN   C2 8425   2.549   5.740  16.294
   17BGLCN   H2 8426   2.536   5.850  16.310
   17BGLCN    N 8427   2.688   5.710  16.324
   17BGLCN   HN 8428   2.726   5.634  16.272
   17BGLCN    C 8429   2.763   5.767  16.418
   17BGLCN    O 8430   2.731   5.866  16.483
   17BGLCN   CT 8431   2.895   5.699  16.440
   17BGLCN  HT1 8432   2.979   5.750  16.389
   17BGLCN  HT2 8433   2.888   5.594  16.404
   17BGLCN  HT3 8434   2.918   5.695  16.549
   17BGLCN   C3 8435   2.448   5.666  16.379
   17BGLCN   H3 8436   2.455   5.560  16.345
   17BGLCN   O3 8437   2.487   5.671  16.518
   17BGLCN   C4 8438   2.308   5.716  16.341
   17BGLCN   H4 8439   2.306   5.827  16.352
   17BGLCN   O4 8440   2.208   5.658  16.425
   17BGLCN  HO4 8441   2.121   5.698  16.410
   17BGLCN   C6 8442   2.144   5.739  16.148
   17BGLCN  H61 8443   2.069   5.658  16.152
   17BGLCN  H62 8444   2.111   5.820  16.216
   17BGLCN   O6 8445   2.142   5.792  16.015
   17BGLCN  HO6 8446   2.174   5.724  15.955
   18AGAL    C1 8447   2.460   5.557  16.598
   18AGAL    H1 8448   2.350   5.553  16.617
   18AGAL    C5 8449   2.642   5.427  16.522
   18AGAL    H5 8450   2.678   5.522  16.478
   18AGAL    O5 8451   2.500   5.436  16.534
   18AGAL    C2 8452   2.530   5.558  16.733
   18AGAL    H2 8453   2.500   5.459  16.776
   18AGAL    O2 8454   2.479   5.657  16.823
   18AGAL    C3 8455   2.683   5.553  16.721
   18AGAL    H3 8456   2.714   5.636  16.653
   18AGAL    O3 8457   2.753   5.574  16.843
   18AGAL   HO3 8458   2.824   5.639  16.833
   18AGAL    C4 8459   2.719   5.422  16.653
   18AGAL    H4 8460   2.828   5.418  16.630
   18AGAL    O4 8461   2.688   5.308  16.732
   18AGAL   HO4 8462   2.748   5.305  16.807
   18AGAL    C6 8463   2.678   5.334  16.411
   18AGAL   H61 8464   2.633   5.375  16.318
   18AGAL   H62 8465   2.788   5.325  16.399
   18AGAL    O6 8466   2.620   5.208  16.419
   18AGAL   HO6 8467   2.567   5.200  16.501
   19ARHM    C1 8468   2.468   5.603  16.953
   19ARHM    H1 8469   2.542   5.522  16.971
   19ARHM    C5 8470   2.235   5.630  16.962
   19ARHM    H5 8471   2.240   5.672  16.858
   19ARHM    O5 8472   2.343   5.540  16.979
   19ARHM    C2 8473   2.485   5.718  17.047
   19ARHM    H2 8474   2.579   5.774  17.023
   19ARHM    O2 8475   2.496   5.672  17.181
   19ARHM    C3 8476   2.371   5.817  17.032
   19ARHM    H3 8477   2.367   5.851  16.926
   19ARHM    O3 8478   2.392   5.931  17.114
   19ARHM   HO3 8479   2.405   5.895  17.204
   19ARHM    C4 8480   2.241   5.746  17.061
   19ARHM    H4 8481   2.243   5.708  17.165
   19ARHM    O4 8482   2.128   5.834  17.048
   19ARHM   HO4 8483   2.120   5.862  16.956
   19ARHM    C6 8484   2.110   5.546  16.964
   19ARHM   H61 8485   2.110   5.472  16.883
   19ARHM   H62 8486   2.078   5.501  17.059
   19ARHM   H63 8487   2.039   5.620  16.936
   20ARHM    C1 8488   2.621   5.614  17.206
   20ARHM    H1 8489   2.692   5.627  17.122
   20ARHM    C5 8490   2.536   5.450  17.333
   20ARHM    H5 8491   2.430   5.485  17.319
   20ARHM    O5 8492   2.612   5.478  17.219
   20ARHM    C2 8493   2.677   5.671  17.332
   20ARHM    H2 8494   2.671   5.782  17.322
   20ARHM    O2 8495   2.811   5.625  17.353
   20ARHM    C3 8496   2.595   5.636  17.451
   20ARHM    H3 8497   2.489   5.669  17.434
   20ARHM    O3 8498   2.650   5.699  17.565
   20ARHM    C4 8499   2.593   5.491  17.464
   20ARHM    H4 8500   2.694   5.442  17.470
   20ARHM    O4 8501   2.518   5.443  17.576
   20ARHM   HO4 8502   2.481   5.359  17.548
   20ARHM    C6 8503   2.525   5.317  17.323
   20ARHM   H61 8504   2.617   5.254  17.337
   20ARHM   H62 8505   2.445   5.294  17.399
   20ARHM   H63 8506   2.478   5.294  17.225
   21BMANN   C1 8507   2.898   5.704  17.278
   21BMANN   H1 8508   2.839   5.769  17.209
   21BMANN   C5 8509   3.052   5.716  17.102
   21BMANN   H5 8510   2.982   5.784  17.047
   21BMANN   O5 8511   2.978   5.627  17.188
   21BMANN   C2 8512   2.982   5.790  17.372
   21BMANN   H2 8513   2.906   5.851  17.429
   21BMANN    N 8514   3.066   5.715  17.465
   21BMANN   HN 8515   3.108   5.633  17.427
   21BMANN    C 8516   3.086   5.749  17.595
   21BMANN    O 8517   3.055   5.859  17.638
   21BMANN   CT 8518   3.155   5.647  17.683
   21BMANN  HT1 8519   3.264   5.646  17.665
   21BMANN  HT2 8520   3.110   5.546  17.667
   21BMANN  HT3 8521   3.139   5.671  17.791
   21BMANN   C3 8522   3.059   5.883  17.283
   21BMANN   H3 8523   2.983   5.944  17.229
   21BMANN   O3 8524   3.140   5.974  17.355
   21BMANN  HO3 8525   3.191   5.922  17.418
   21BMANN   C4 8526   3.143   5.805  17.184
   21BMANN   H4 8527   3.215   5.740  17.240
   21BMANN   O4 8528   3.217   5.888  17.095
   21BMANN  HO4 8529   3.310   5.882  17.115
   21BMANN   C6 8530   3.128   5.640  16.998
   21BMANN  H61 8531   3.162   5.708  16.917
   21BMANN  H62 8532   3.218   5.598  17.047
   21BMANN   O6 8533   3.052   5.533  16.942
   21BMANN  HO6 8534   3.032   5.471  17.015
   22BGLCN   C1 8535   2.557   5.740  17.661
   22BGLCN   H1 8536   2.464   5.679  17.660
   22BGLCN   C5 8537   2.435   5.924  17.746
   22BGLCN   H5 8538   2.346   5.858  17.743
   22BGLCN   O5 8539   2.524   5.878  17.644
   22BGLCN   C2 8540   2.628   5.722  17.791
   22BGLCN   H2 8541   2.721   5.786  17.786
   22BGLCN    N 8542   2.665   5.584  17.808
   22BGLCN   HN 8543   2.600   5.517  17.775
   22BGLCN    C 8544   2.775   5.542  17.871
   22BGLCN    O 8545   2.856   5.618  17.922
   22BGLCN   CT 8546   2.793   5.393  17.875
   22BGLCN  HT1 8547   2.858   5.367  17.790
   22BGLCN  HT2 8548   2.695   5.344  17.864
   22BGLCN  HT3 8549   2.839   5.363  17.971
   22BGLCN   C3 8550   2.540   5.769  17.904
   22BGLCN   H3 8551   2.446   5.710  17.901
   22BGLCN   O3 8552   2.610   5.740  18.026
   22BGLCN   C4 8553   2.504   5.913  17.882
   22BGLCN   H4 8554   2.598   5.972  17.877
   22BGLCN   O4 8555   2.423   5.966  17.988
   22BGLCN  HO4 8556   2.449   6.056  18.012
   22BGLCN   C6 8557   2.395   6.066  17.713
   22BGLCN  H61 8558   2.353   6.112  17.805
   22BGLCN  H62 8559   2.483   6.125  17.681
   22BGLCN   O6 8560   2.290   6.074  17.617
   22BGLCN  HO6 8561   2.312   6.025  17.536
   23AGAL    C1 8562   2.539   5.730  18.146
   23AGAL    H1 8563   2.514   5.832  18.182
   23AGAL    C5 8564   2.440   5.516  18.109
   23AGAL    H5 8565   2.504   5.507  18.018
   23AGAL    O5 8566   2.417   5.656  18.136
   23AGAL    C2 8567   2.626   5.670  18.255
   23AGAL    H2 8568   2.563   5.670  18.347
   23AGAL    O2 8569   2.747   5.746  18.277
   23AGAL    C3 8570   2.652   5.523  18.224
   23AGAL    H3 8571   2.696   5.515  18.122
   23AGAL    O3 8572   2.749   5.466  18.311
   23AGAL   HO3 8573   2.730   5.494  18.400
   23AGAL    C4 8574   2.520   5.448  18.222
   23AGAL    H4 8575   2.535   5.341  18.198
   23AGAL    O4 8576   2.451   5.453  18.347
   23AGAL   HO4 8577   2.356   5.451  18.324
   23AGAL    C6 8578   2.308   5.453  18.070
   23AGAL   H61 8579   2.258   5.517  17.994
   23AGAL   H62 8580   2.329   5.356  18.019
   23AGAL    O6 8581   2.221   5.435  18.181
   23AGAL   HO6 8582   2.134   5.402  18.156
   24ARHM    C1 8583   2.741   5.857  18.363
   24ARHM    H1 8584   2.636   5.881  18.372
   24ARHM    C5 8585   2.944   5.958  18.299
   24ARHM    H5 8586   2.957   5.871  18.231
   24ARHM    O5 8587   2.803   5.978  18.316
   24ARHM    C2 8588   2.794   5.817  18.497
   24ARHM    H2 8589   2.746   5.722  18.530
   24ARHM    O2 8590   2.776   5.921  18.594
   24ARHM    C3 8591   2.941   5.790  18.479
   24ARHM    H3 8592   2.952   5.711  18.400
   24ARHM    O3 8593   2.992   5.737  18.600
   24ARHM   HO3 8594   3.034   5.805  18.654
   24ARHM    C4 8595   3.008   5.918  18.431
   24ARHM    H4 8596   2.988   5.999  18.505
   24ARHM    O4 8597   3.149   5.907  18.414
   24ARHM   HO4 8598   3.192   5.990  18.439
   24ARHM    C6 8599   3.010   6.080  18.232
   24ARHM   H61 8600   3.102   6.045  18.179
   24ARHM   H62 8601   2.942   6.124  18.157
   24ARHM   H63 8602   3.038   6.159  18.305
   25ARHM    C1 8603   2.649   5.929  18.651
   25ARHM    H1 8604   2.577   5.876  18.584
   25ARHM    C5 8605   2.675   6.142  18.756
   25ARHM    H5 8606   2.781   6.146  18.722
   25ARHM    O5 8607   2.599   6.063  18.662
   25ARHM    C2 8608   2.648   5.858  18.783
   25ARHM    H2 8609   2.698   5.758  18.772
   25ARHM    O2 8610   2.513   5.839  18.825
   25ARHM    C3 8611   2.728   5.937  18.882
   25ARHM    H3 8612   2.833   5.947  18.845
   25ARHM    O3 8613   2.721   5.868  19.007
   25ARHM    C4 8614   2.672   6.076  18.894
   25ARHM    H4 8615   2.565   6.073  18.927
   25ARHM    O4 8616   2.749   6.150  18.988
   25ARHM   HO4 8617   2.691   6.204  19.041
   25ARHM    C6 8618   2.623   6.287  18.758
   25ARHM   H61 8619   2.618   6.326  18.654
   25ARHM   H62 8620   2.522   6.293  18.803
   25ARHM   H63 8621   2.694   6.351  18.816
   26BMANN   C1 8622   2.446   5.732  18.763
   26BMANN   H1 8623   2.517   5.659  18.721
   26BMANN   C5 8624   2.294   5.658  18.596
   26BMANN   H5 8625   2.374   5.592  18.554
   26BMANN   O5 8626   2.357   5.772  18.658
   26BMANN   C2 8627   2.365   5.666  18.870
   26BMANN   H2 8628   2.440   5.636  18.946
   26BMANN    N 8629   2.267   5.757  18.928
   26BMANN   HN 8630   2.206   5.800  18.863
   26BMANN    C 8631   2.254   5.780  19.059
   26BMANN    O 8632   2.334   5.738  19.141
   26BMANN   CT 8633   2.131   5.857  19.102
   26BMANN  HT1 8634   2.097   5.923  19.020
   26BMANN  HT2 8635   2.144   5.915  19.196
   26BMANN  HT3 8636   2.055   5.781  19.123
   26BMANN   C3 8637   2.303   5.541  18.812
   26BMANN   H3 8638   2.378   5.475  18.766
   26BMANN   O3 8639   2.242   5.465  18.915
   26BMANN  HO3 8640   2.311   5.415  18.960
   26BMANN   C4 8641   2.212   5.580  18.698
   26BMANN   H4 8642   2.129   5.645  18.733
   26BMANN   O4 8643   2.154   5.465  18.638
   26BMANN  HO4 8644   2.081   5.436  18.693
   26BMANN   C6 8645   2.215   5.710  18.477
   26BMANN  H61 8646   2.272   5.793  18.429
   26BMANN  H62 8647   2.201   5.631  18.400
   26BMANN   O6 8648   2.087   5.761  18.513
   26BMANN  HO6 8649   2.032   5.690  18.547
   27BGLCN   C1 8650   2.839   5.865  19.083
   27BGLCN   H1 8651   2.896   5.960  19.079
   27BGLCN   C5 8652   3.038   5.748  19.127
   27BGLCN   H5 8653   3.089   5.848  19.129
   27BGLCN   O5 8654   2.923   5.757  19.043
   27BGLCN   C2 8655   2.787   5.838  19.223
   27BGLCN   H2 8656   2.737   5.738  19.220
   27BGLCN    N 8657   2.690   5.938  19.266
   27BGLCN   HN 8658   2.712   6.032  19.242
   27BGLCN    C 8659   2.578   5.901  19.331
   27BGLCN    O 8660   2.566   5.791  19.383
   27BGLCN   CT 8661   2.464   6.001  19.338
   27BGLCN  HT1 8662   2.486   6.089  19.273
   27BGLCN  HT2 8663   2.448   6.033  19.442
   27BGLCN  HT3 8664   2.372   5.950  19.304
   27BGLCN   C3 8665   2.903   5.827  19.318
   27BGLCN   H3 8666   2.959   5.923  19.313
   27BGLCN   O3 8667   2.843   5.809  19.449
   27BGLCN   C4 8668   2.994   5.716  19.270
   27BGLCN   H4 8669   2.940   5.618  19.270
   27BGLCN   O4 8670   3.109   5.704  19.353
   27BGLCN  HO4 8671   3.156   5.786  19.343
   27BGLCN   C6 8672   3.136   5.652  19.066
   27BGLCN  H61 8673   3.228   5.670  19.121
   27BGLCN  H62 8674   3.105   5.546  19.079
   27BGLCN   O6 8675   3.164   5.679  18.928
   27BGLCN  HO6 8676   3.220   5.613  18.889
   28AGAL    C1 8677   2.923   5.836  19.561
   28AGAL    H1 8678   2.996   5.752  19.569
   28AGAL    C5 8679   2.908   6.075  19.549
   28AGAL    H5 8680   2.821   6.060  19.479
   28AGAL    O5 8681   2.995   5.960  19.541
   28AGAL    C2 8682   2.851   5.841  19.697
   28AGAL    H2 8683   2.937   5.860  19.766
   28AGAL    O2 8684   2.786   5.723  19.746
   28AGAL    C3 8685   2.760   5.961  19.705
   28AGAL    H3 8686   2.687   5.954  19.621
   28AGAL    O3 8687   2.681   5.973  19.822
   28AGAL   HO3 8688   2.587   5.970  19.797
   28AGAL    C4 8689   2.844   6.085  19.685
   28AGAL    H4 8690   2.775   6.172  19.686
   28AGAL    O4 8691   2.943   6.106  19.785
   28AGAL   HO4 8692   2.906   6.169  19.847
   28AGAL    C6 8693   2.979   6.202  19.502
   28AGAL   H61 8694   3.000   6.189  19.393
   28AGAL   H62 8695   2.913   6.291  19.512
   28AGAL    O6 8696   3.102   6.231  19.570
   28AGAL   HO6 8697   3.169   6.175  19.531
   29ARHM    C1 8698   2.812   5.707  19.885
   29ARHM    H1 8699   2.833   5.805  19.933
   29ARHM    C5 8700   2.905   5.493  19.852
   29ARHM    H5 8701   2.882   5.504  19.743
   29ARHM    O5 8702   2.926   5.623  19.907
   29ARHM    C2 8703   2.693   5.649  19.953
   29ARHM    H2 8704   2.605   5.713  19.928
   29ARHM    O2 8705   2.714   5.644  20.096
   29ARHM    C3 8706   2.668   5.512  19.897
   29ARHM    H3 8707   2.649   5.519  19.787
   29ARHM    O3 8708   2.551   5.459  19.956
   29ARHM   HO3 8709   2.560   5.363  19.956
   29ARHM    C4 8710   2.788   5.421  19.918
   29ARHM    H4 8711   2.809   5.411  20.027
   29ARHM    O4 8712   2.767   5.288  19.868
   29ARHM   HO4 8713   2.732   5.283  19.778
   29ARHM    C6 8714   3.043   5.430  19.863
   29ARHM   H61 8715   3.118   5.497  19.813
   29ARHM   H62 8716   3.073   5.410  19.968
   29ARHM   H63 8717   3.036   5.333  19.815
   30ARHM    C1 8718   2.660   5.749  20.173
   30ARHM    H1 8719   2.551   5.759  20.153
   30ARHM    C5 8720   2.864   5.873  20.186
   30ARHM    H5 8721   2.910   5.790  20.128
   30ARHM    O5 8722   2.725   5.877  20.152
   30ARHM    C2 8723   2.679   5.714  20.318
   30ARHM    H2 8724   2.634   5.615  20.339
   30ARHM    O2 8725   2.618   5.816  20.396
   30ARHM    C3 8726   2.825   5.709  20.358
   30ARHM    H3 8727   2.874   5.636  20.289
   30ARHM    O3 8728   2.839   5.655  20.491
   30ARHM    C4 8729   2.886   5.844  20.333
   30ARHM    H4 8730   2.835   5.923  20.392
   30ARHM    O4 8731   3.024   5.854  20.367
   30ARHM   HO4 8732   3.079   5.804  20.307
   30ARHM    C6 8733   2.932   6.004  20.141
   30ARHM   H61 8734   3.041   5.996  20.160
   30ARHM   H62 8735   2.916   6.019  20.033
   30ARHM   H63 8736   2.891   6.091  20.198
   31BMANN   C1 8737   2.483   5.796  20.424
   31BMANN   H1 8738   2.465   5.689  20.451
   31BMANN   C5 8739   2.259   5.832  20.354
   31BMANN   H5 8740   2.249   5.728  20.383
   31BMANN   O5 8741   2.397   5.845  20.320
   31BMANN   C2 8742   2.461   5.882  20.544
   31BMANN   H2 8743   2.523   5.840  20.627
   31BMANN    N 8744   2.506   6.018  20.517
   31BMANN   HN 8745   2.513   6.046  20.422
   31BMANN    C 8746   2.546   6.100  20.613
   31BMANN    O 8747   2.551   6.065  20.730
   31BMANN   CT 8748   2.586   6.238  20.568
   31BMANN  HT1 8749   2.513   6.273  20.492
   31BMANN  HT2 8750   2.689   6.235  20.526
   31BMANN  HT3 8751   2.585   6.307  20.654
   31BMANN   C3 8752   2.316   5.867  20.586
   31BMANN   H3 8753   2.295   5.758  20.602
   31BMANN   O3 8754   2.295   5.924  20.713
   31BMANN  HO3 8755   2.382   5.947  20.749
   31BMANN   C4 8756   2.225   5.915  20.477
   31BMANN   H4 8757   2.243   6.022  20.450
   31BMANN   O4 8758   2.087   5.900  20.511
   31BMANN  HO4 8759   2.071   5.817  20.557
   31BMANN   C6 8760   2.162   5.854  20.239
   31BMANN  H61 8761   2.062   5.817  20.267
   31BMANN  H62 8762   2.152   5.963  20.222
   31BMANN   O6 8763   2.201   5.792  20.116
   31BMANN  HO6 8764   2.193   5.696  20.121
   32BGLCN   C1 8765   2.826   5.744  20.598
   32BGLCN   H1 8766   2.743   5.814  20.578
   32BGLCN   C5 8767   2.920   5.918  20.729
   32BGLCN   H5 8768   2.835   5.982  20.695
   32BGLCN   O5 8769   2.943   5.821  20.627
   32BGLCN   C2 8770   2.787   5.665  20.722
   32BGLCN   H2 8771   2.879   5.607  20.750
   32BGLCN    N 8772   2.679   5.574  20.694
   32BGLCN   HN 8773   2.619   5.606  20.622
   32BGLCN    C 8774   2.662   5.451  20.745
   32BGLCN    O 8775   2.735   5.399  20.828
   32BGLCN   CT 8776   2.542   5.378  20.691
   32BGLCN  HT1 8777   2.512   5.430  20.598
   32BGLCN  HT2 8778   2.456   5.378  20.761
   32BGLCN  HT3 8779   2.568   5.274  20.667
   32BGLCN   C3 8780   2.754   5.766  20.829
   32BGLCN   H3 8781   2.679   5.836  20.784
   32BGLCN   O3 8782   2.694   5.709  20.947
   32BGLCN   C4 8783   2.879   5.847  20.856
   32BGLCN   H4 8784   2.960   5.776  20.887
   32BGLCN   O4 8785   2.860   5.942  20.959
   32BGLCN  HO4 8786   2.879   5.901  21.044
   32BGLCN   C6 8787   3.040   6.010  20.742
   32BGLCN  H61 8788   3.019   6.096  20.810
   32BGLCN  H62 8789   3.126   5.954  20.786
   32BGLCN   O6 8790   3.078   6.067  20.616
   32BGLCN  HO6 8791   3.000   6.077  20.561
   33AGAL    C1 8792   2.592   5.789  21.004
   33AGAL    H1 8793   2.620   5.896  20.997
   33AGAL    C5 8794   2.414   5.636  20.956
   33AGAL    H5 8795   2.497   5.572  20.920
   33AGAL    O5 8796   2.463   5.770  20.941
   33AGAL    C2 8797   2.577   5.753  21.151
   33AGAL    H2 8798   2.492   5.813  21.190
   33AGAL    O2 8799   2.694   5.797  21.223
   33AGAL    C3 8800   2.532   5.607  21.166
   33AGAL    H3 8801   2.601   5.540  21.108
   33AGAL    O3 8802   2.542   5.556  21.299
   33AGAL   HO3 8803   2.490   5.609  21.360
   33AGAL    C4 8804   2.393   5.593  21.101
   33AGAL    H4 8805   2.362   5.486  21.103
   33AGAL    O4 8806   2.286   5.667  21.162
   33AGAL   HO4 8807   2.315   5.734  21.225
   33AGAL    C6 8808   2.298   5.607  20.862
   33AGAL   H61 8809   2.338   5.619  20.760
   33AGAL   H62 8810   2.264   5.501  20.873
   33AGAL    O6 8811   2.180   5.688  20.873
   33AGAL   HO6 8812   2.188   5.771  20.823
   34ARHM    C1 8813   2.665   5.869  21.342
   34ARHM    H1 8814   2.592   5.811  21.401
   34ARHM    C5 8815   2.689   6.091  21.243
   34ARHM    H5 8816   2.705   6.046  21.143
   34ARHM    O5 8817   2.607   6.001  21.320
   34ARHM    C2 8818   2.796   5.882  21.417
   34ARHM    H2 8819   2.845   5.781  21.422
   34ARHM    O2 8820   2.782   5.929  21.554
   34ARHM    C3 8821   2.889   5.973  21.337
   34ARHM    H3 8822   2.904   5.929  21.236
   34ARHM    O3 8823   3.018   5.986  21.400
   34ARHM   HO3 8824   3.087   5.996  21.333
   34ARHM    C4 8825   2.823   6.107  21.317
   34ARHM    H4 8826   2.798   6.153  21.415
   34ARHM    O4 8827   2.910   6.196  21.247
   34ARHM   HO4 8828   2.979   6.228  21.306
   34ARHM    C6 8829   2.622   6.230  21.220
   34ARHM   H61 8830   2.596   6.282  21.314
   34ARHM   H62 8831   2.694   6.297  21.169
   34ARHM   H63 8832   2.532   6.224  21.155
   35ARHM    C1 8833   2.696   5.858  21.643
   35ARHM    H1 8834   2.706   5.749  21.624
   35ARHM    C5 8835   2.540   6.041  21.657
   35ARHM    H5 8836   2.600   6.101  21.586
   35ARHM    O5 8837   2.559   5.900  21.632
   35ARHM    C2 8838   2.739   5.884  21.786
   35ARHM    H2 8839   2.845   5.854  21.802
   35ARHM    O2 8840   2.656   5.811  21.879
   35ARHM    C3 8841   2.728   6.031  21.818
   35ARHM    H3 8842   2.791   6.089  21.747
   35ARHM    O3 8843   2.784   6.059  21.946
   35ARHM   HO3 8844   2.757   5.994  22.010
   35ARHM    C4 8845   2.584   6.074  21.800
   35ARHM    H4 8846   2.519   6.017  21.870
   35ARHM    O4 8847   2.569   6.214  21.826
   35ARHM   HO4 8848   2.644   6.264  21.795
   35ARHM    C6 8849   2.393   6.077  21.622
   35ARHM   H61 8850   2.372   6.064  21.514
   35ARHM   H62 8851   2.325   6.010  21.679
   35ARHM   H63 8852   2.374   6.184  21.647
   36BMANN   C1 8853   2.681   5.673  21.883
   36BMANN   H1 8854   2.785   5.652  21.849
   36BMANN   C5 8855   2.627   5.458  21.808
   36BMANN   H5 8856   2.734   5.444  21.779
   36BMANN   O5 8857   2.594   5.597  21.801
   36BMANN   C2 8858   2.660   5.627  22.026
   36BMANN   H2 8859   2.731   5.684  22.083
   36BMANN    N 8860   2.531   5.657  22.086
   36BMANN   HN 8861   2.453   5.654  22.023
   36BMANN    C 8862   2.516   5.684  22.218
   36BMANN    O 8863   2.610   5.702  22.295
   36BMANN   CT 8864   2.375   5.691  22.270
   36BMANN  HT1 8865   2.314   5.611  22.223
   36BMANN  HT2 8866   2.329   5.789  22.249
   36BMANN  HT3 8867   2.375   5.676  22.380
   36BMANN   C3 8868   2.701   5.482  22.038
   36BMANN   H3 8869   2.806   5.470  22.001
   36BMANN   O3 8870   2.696   5.434  22.172
   36BMANN  HO3 8871   2.782   5.413  22.208
   36BMANN   C4 8872   2.610   5.404  21.949
   36BMANN   H4 8873   2.505   5.414  21.981
   36BMANN   O4 8874   2.640   5.266  21.963
   36BMANN  HO4 8875   2.638   5.249  22.058
   36BMANN   C6 8876   2.544   5.389  21.706
   36BMANN  H61 8877   2.558   5.426  21.603
   36BMANN  H62 8878   2.592   5.295  21.691
   36BMANN   O6 8879   2.406   5.371  21.745
   36BMANN  HO6 8880   2.396   5.291  21.798
    1ECLIP HB6S 8881   2.215   2.875  11.779
    1ECLIP  OB6 8882   2.320   2.754  11.908
    1ECLIP  CB6 8883   2.321   2.856  11.806
    1ECLIP HB6R 8884   2.363   2.951  11.846
    1ECLIP  CB5 8885   2.399   2.822  11.680
    1ECLIP  OB5 8886   2.344   2.698  11.632
    1ECLIP  HB5 8887   2.505   2.809  11.711
    1ECLIP  CB1 8888   2.411   2.650  11.515
    1ECLIP  HB1 8889   2.520   2.638  11.533
    1ECLIP  OA6 8890   2.362   2.525  11.470
    1ECLIP  CA6 8891   2.222   2.502  11.493
    1ECLIP HA6R 8892   2.166   2.596  11.512
    1ECLIP HA6S 8893   2.213   2.435  11.581
    1ECLIP  CB4 8894   2.390   2.929  11.570
    1ECLIP  HB4 8895   2.284   2.950  11.541
    1ECLIP  OB4 8896   2.460   3.045  11.619
    1ECLIP   PB 8897   2.374   3.179  11.666
    1ECLIP OPB4 8898   2.445   3.241  11.785
    1ECLIP OPB3 8899   2.237   3.125  11.703
    1ECLIP OPB2 8900   2.376   3.270  11.544
    1ECLIP  CB3 8901   2.461   2.876  11.448
    1ECLIP  OB3 8902   2.450   2.961  11.337
    1ECLIP  HB3 8903   2.567   2.853  11.472
    1ECLIP  C71 8904   2.533   3.059  11.327
    1ECLIP  O71 8905   2.651   3.056  11.363
    1ECLIP  C72 8906   2.494   3.115  11.191
    1ECLIP H72R 8907   2.485   3.032  11.119
    1ECLIP H72S 8908   2.581   3.175  11.179
    1ECLIP  CB2 8909   2.396   2.748  11.403
    1ECLIP  HB2 8910   2.286   2.768  11.387
    1ECLIP  NB2 8911   2.459   2.697  11.282
    1ECLIP HNB2 8912   2.537   2.636  11.294
    1ECLIP  CA4 8913   2.251   2.326  11.316
    1ECLIP  HA4 8914   2.347   2.374  11.289
    1ECLIP  OA4 8915   2.275   2.230  11.418
    1ECLIP HOA4 8916   2.298   2.275  11.499
    1ECLIP  CA5 8917   2.162   2.435  11.371
    1ECLIP  HA5 8918   2.059   2.399  11.393
    1ECLIP  OA5 8919   2.155   2.535  11.271
    1ECLIP  CA1 8920   2.097   2.489  11.147
    1ECLIP  HA1 8921   2.117   2.575  11.079
    1ECLIP  OA1 8922   1.958   2.466  11.149
    1ECLIP OPA2 8923   1.808   2.524  11.337
    1ECLIP OPA3 8924   1.934   2.711  11.222
    1ECLIP OPA4 8925   1.747   2.593  11.098
    1ECLIP   PA 8926   1.855   2.582  11.204
    1ECLIP  CA3 8927   2.194   2.265  11.190
    1ECLIP  HA3 8928   2.097   2.215  11.211
    1ECLIP  OA3 8929   2.289   2.164  11.152
    1ECLIP  C31 8930   2.394   2.209  11.085
    1ECLIP  O31 8931   2.399   2.207  10.963
    1ECLIP  C32 8932   2.516   2.178  11.166
    1ECLIP H32R 8933   2.556   2.098  11.104
    1ECLIP H32S 8934   2.500   2.136  11.267
    1ECLIP  CA2 8935   2.181   2.378  11.088
    1ECLIP  HA2 8936   2.281   2.424  11.071
    1ECLIP  NA2 8937   2.128   2.332  10.959
    1ECLIP HNA2 8938   2.122   2.233  10.949
    1ECLIP  C73 8939   2.368   3.198  11.173
    1ECLIP H73R 8940   2.363   3.262  11.265
    1ECLIP  O73 8941   2.271   3.095  11.165
    1ECLIP  C81 8942   2.161   3.111  11.232
    1ECLIP  O81 8943   2.130   3.213  11.292
    1ECLIP  C82 8944   2.059   3.014  11.171
    1ECLIP H82R 8945   1.962   3.027  11.223
    1ECLIP H82S 8946   2.093   2.910  11.192
    1ECLIP  C83 8947   2.040   3.029  11.017
    1ECLIP H83R 8948   2.123   2.975  10.965
    1ECLIP H83S 8949   2.047   3.137  10.990
    1ECLIP  C84 8950   1.909   2.967  10.965
    1ECLIP H84R 8951   1.821   3.027  10.997
    1ECLIP H84S 8952   1.902   2.866  11.013
    1ECLIP  C85 8953   1.910   2.945  10.813
    1ECLIP H85R 8954   2.012   2.905  10.791
    1ECLIP H85S 8955   1.902   3.042  10.760
    1ECLIP  C86 8956   1.810   2.838  10.765
    1ECLIP H86R 8957   1.713   2.884  10.735
    1ECLIP H86S 8958   1.788   2.769  10.849
    1ECLIP  C87 8959   1.867   2.750  10.652
    1ECLIP H87R 8960   1.788   2.680  10.616
    1ECLIP H87S 8961   1.948   2.686  10.694
    1ECLIP  C88 8962   1.928   2.832  10.538
    1ECLIP H88R 8963   2.027   2.871  10.571
    1ECLIP H88S 8964   1.865   2.922  10.524
    1ECLIP  C89 8965   1.946   2.752  10.408
    1ECLIP H89R 8966   1.947   2.642  10.426
    1ECLIP H89S 8967   2.045   2.776  10.362
    1ECLIP C810 8968   1.839   2.791  10.306
    1ECLIPH810R 8969   1.810   2.896  10.329
    1ECLIPH810S 8970   1.750   2.726  10.323
    1ECLIP C811 8971   1.885   2.781  10.160
    1ECLIPH811R 8972   1.798   2.774  10.090
    1ECLIPH811S 8973   1.946   2.688  10.152
    1ECLIP C812 8974   1.975   2.896  10.110
    1ECLIPH812R 8975   2.009   2.867  10.008
    1ECLIPH812S 8976   2.062   2.906  10.177
    1ECLIP C813 8977   1.909   3.034  10.100
    1ECLIPH813R 8978   1.824   3.026  10.029
    1ECLIPH813S 8979   1.869   3.066  10.199
    1ECLIP C814 8980   2.006   3.141  10.050
    1ECLIPH814R 8981   2.061   3.107   9.959
    1ECLIPH814S 8982   2.080   3.164  10.129
    1ECLIPH814T 8983   1.950   3.233  10.025
    1ECLIP  C74 8984   2.347   3.289  11.046
    1ECLIP H74R 8985   2.407   3.379  11.028
    1ECLIP H74S 8986   2.249   3.336  11.069
    1ECLIP  C75 8987   2.328   3.215  10.910
    1ECLIP H75R 8988   2.249   3.269  10.855
    1ECLIP H75S 8989   2.300   3.110  10.933
    1ECLIP  C76 8990   2.441   3.211  10.809
    1ECLIP H76R 8991   2.502   3.130  10.848
    1ECLIP H76S 8992   2.497   3.308  10.796
    1ECLIP  C77 8993   2.414   3.181  10.667
    1ECLIP H77R 8994   2.363   3.268  10.627
    1ECLIP H77S 8995   2.366   3.083  10.658
    1ECLIP  C78 8996   2.537   3.175  10.587
    1ECLIP H78R 8997   2.621   3.244  10.613
    1ECLIP H78S 8998   2.556   3.070  10.616
    1ECLIP  C79 8999   2.535   3.130  10.447
    1ECLIP H79R 9000   2.536   3.017  10.438
    1ECLIP H79S 9001   2.624   3.182  10.403
    1ECLIP C710 9002   2.443   3.191  10.366
    1ECLIPH710R 9003   2.351   3.158  10.417
    1ECLIPH710S 9004   2.473   3.298  10.378
    1ECLIP C711 9005   2.462   3.136  10.229
    1ECLIPH711R 9006   2.551   3.181  10.181
    1ECLIPH711S 9007   2.461   3.023  10.226
    1ECLIP C712 9008   2.355   3.204  10.157
    1ECLIPH712R 9009   2.383   3.312  10.161
    1ECLIPH712S 9010   2.265   3.185  10.218
    1ECLIP C713 9011   2.344   3.153  10.019
    1ECLIPH713R 9012   2.321   3.043  10.020
    1ECLIPH713S 9013   2.260   3.206   9.968
    1ECLIP C714 9014   2.468   3.182   9.938
    1ECLIPH714R 9015   2.496   3.288   9.925
    1ECLIPH714S 9016   2.556   3.116   9.957
    1ECLIPH714T 9017   2.422   3.165   9.844
    1ECLIP  C51 9018   2.417   2.734  11.160
    1ECLIP  O51 9019   2.310   2.789  11.143
    1ECLIP  C52 9020   2.509   2.709  11.042
    1ECLIP H52R 9021   2.578   2.796  11.029
    1ECLIP H52S 9022   2.569   2.619  11.061
    1ECLIP  C53 9023   2.426   2.691  10.914
    1ECLIP H53R 9024   2.330   2.638  10.935
    1ECLIP  O53 9025   2.510   2.619  10.822
    1ECLIP  C61 9026   2.475   2.497  10.789
    1ECLIP  O61 9027   2.375   2.437  10.823
    1ECLIP  C62 9028   2.580   2.439  10.696
    1ECLIP H62R 9029   2.662   2.394  10.757
    1ECLIP H62S 9030   2.624   2.523  10.639
    1ECLIP  C63 9031   2.516   2.338  10.599
    1ECLIP H63R 9032   2.418   2.368  10.561
    1ECLIP H63S 9033   2.491   2.250  10.661
    1ECLIP  C64 9034   2.601   2.310  10.473
    1ECLIP H64R 9035   2.554   2.226  10.414
    1ECLIP H64S 9036   2.706   2.284  10.509
    1ECLIP  C65 9037   2.627   2.418  10.382
    1ECLIP H65R 9038   2.681   2.484  10.452
    1ECLIP H65S 9039   2.526   2.449  10.350
    1ECLIP  C66 9040   2.722   2.389  10.268
    1ECLIP H66R 9041   2.816   2.335  10.297
    1ECLIP H66S 9042   2.735   2.484  10.217
    1ECLIP  C67 9043   2.665   2.315  10.156
    1ECLIP H67R 9044   2.633   2.230  10.210
    1ECLIP H67S 9045   2.746   2.285  10.084
    1ECLIP  C68 9046   2.529   2.352  10.105
    1ECLIP H68R 9047   2.531   2.449  10.053
    1ECLIP H68S 9048   2.449   2.337  10.181
    1ECLIP  C69 9049   2.483   2.259  10.002
    1ECLIP H69R 9050   2.513   2.182   9.936
    1ECLIP H69S 9051   2.568   2.299   9.939
    1ECLIP C610 9052   2.342   2.225   9.970
    1ECLIPH610R 9053   2.299   2.324   9.990
    1ECLIPH610S 9054   2.286   2.161  10.044
    1ECLIP C611 9055   2.333   2.153   9.823
    1ECLIPH611R 9056   2.360   2.052   9.839
    1ECLIPH611S 9057   2.221   2.159   9.836
    1ECLIP C612 9058   2.406   2.173   9.664
    1ECLIPH612R 9059   2.320   2.248   9.619
    1ECLIPH612S 9060   2.511   2.225   9.655
    1ECLIPH612T 9061   2.355   2.209   9.576
    1ECLIP  C54 9062   2.395   2.830  10.854
    1ECLIP H54R 9063   2.493   2.872  10.826
    1ECLIP H54S 9064   2.353   2.894  10.935
    1ECLIP  C55 9065   2.301   2.836  10.733
    1ECLIP H55R 9066   2.264   2.940  10.720
    1ECLIP H55S 9067   2.210   2.776  10.756
    1ECLIP  C56 9068   2.375   2.793  10.605
    1ECLIP H56R 9069   2.416   2.692  10.622
    1ECLIP H56S 9070   2.461   2.862  10.587
    1ECLIP  C57 9071   2.294   2.781  10.477
    1ECLIP H57R 9072   2.238   2.874  10.454
    1ECLIP H57S 9073   2.218   2.700  10.491
    1ECLIP  C58 9074   2.387   2.741  10.360
    1ECLIP H58R 9075   2.478   2.805  10.358
    1ECLIP H58S 9076   2.423   2.638  10.382
    1ECLIP  C59 9077   2.317   2.750  10.223
    1ECLIP H59R 9078   2.277   2.853  10.208
    1ECLIP H59S 9079   2.230   2.681  10.232
    1ECLIP C510 9080   2.408   2.723  10.101
    1ECLIPH510R 9081   2.471   2.634  10.119
    1ECLIPH510S 9082   2.477   2.810  10.088
    1ECLIP C511 9083   2.334   2.705   9.968
    1ECLIPH511R 9084   2.295   2.601   9.963
    1ECLIPH511S 9085   2.248   2.774   9.959
    1ECLIP C512 9086   2.422   2.733   9.847
    1ECLIPH512R 9087   2.361   2.734   9.752
    1ECLIPH512S 9088   2.486   2.821   9.851
    1ECLIP C513 9089   2.532   2.635   9.836
    1ECLIPH513R 9090   2.471   2.574   9.800
    1ECLIPH513S 9091   2.589   2.574   9.904
    1ECLIP C514 9092   2.577   2.625   9.706
    1ECLIPH514R 9093   2.637   2.709   9.701
    1ECLIPH514S 9094   2.626   2.522   9.693
    1ECLIPH514T 9095   2.496   2.634   9.630
    1ECLIP  C33 9096   2.625   2.280  11.180
    1ECLIP H33R 9097   2.709   2.239  11.229
    1ECLIP  O33 9098   2.581   2.370  11.277
    1ECLIP HO33 9099   2.605   2.327  11.361
    1ECLIP  C34 9100   2.673   2.351  11.054
    1ECLIP H34R 9101   2.585   2.401  11.011
    1ECLIP H34S 9102   2.710   2.273  10.981
    1ECLIP  C35 9103   2.790   2.448  11.080
    1ECLIP H35R 9104   2.883   2.397  11.112
    1ECLIP H35S 9105   2.762   2.514  11.163
    1ECLIP  C36 9106   2.827   2.527  10.957
    1ECLIP H36R 9107   2.731   2.537  10.903
    1ECLIP H36S 9108   2.900   2.476  10.890
    1ECLIP  C37 9109   2.876   2.667  10.991
    1ECLIP H37R 9110   2.986   2.667  11.006
    1ECLIP H37S 9111   2.829   2.704  11.085
    1ECLIP  C38 9112   2.844   2.759  10.877
    1ECLIP H38R 9113   2.734   2.776  10.872
    1ECLIP H38S 9114   2.905   2.851  10.900
    1ECLIP  C39 9115   2.880   2.699  10.744
    1ECLIP H39R 9116   2.824   2.607  10.724
    1ECLIP H39S 9117   2.989   2.697  10.746
    1ECLIP C310 9118   2.845   2.766  10.618
    1ECLIPH310R 9119   2.917   2.850  10.623
    1ECLIPH310S 9120   2.735   2.791  10.614
    1ECLIP C311 9121   2.854   2.693  10.489
    1ECLIPH311R 9122   2.942   2.632  10.491
    1ECLIPH311S 9123   2.747   2.658  10.471
    1ECLIP C312 9124   2.871   2.772  10.365
    1ECLIPH312R 9125   2.815   2.834  10.431
    1ECLIPH312S 9126   2.956   2.833  10.330
    1ECLIP C313 9127   2.803   2.719  10.244
    1ECLIPH313R 9128   2.884   2.651  10.213
    1ECLIPH313S 9129   2.696   2.695  10.262
    1ECLIP C314 9130   2.795   2.795  10.120
    1ECLIPH314R 9131   2.897   2.824  10.082
    1ECLIPH314S 9132   2.750   2.769  10.027
    1ECLIPH314T 9133   2.717   2.868  10.152
    1ECLIP  C11 9134   2.070   2.407  10.862
    1ECLIP  O11 9135   2.085   2.527  10.848
    1ECLIP  C12 9136   1.982   2.331  10.769
    1ECLIP H12R 9137   1.877   2.354  10.792
    1ECLIP H12S 9138   2.001   2.223  10.786
    1ECLIP  C13 9139   2.013   2.366  10.623
    1ECLIP H13R 9140   2.032   2.472  10.604
    1ECLIP  O13 9141   1.893   2.343  10.551
    1ECLIP HO13 9142   1.889   2.364  10.458
    1ECLIP  C14 9143   2.133   2.278  10.579
    1ECLIP H14R 9144   2.136   2.180  10.632
    1ECLIP H14S 9145   2.222   2.337  10.613
    1ECLIP  C15 9146   2.152   2.253  10.431
    1ECLIP H15R 9147   2.062   2.200  10.393
    1ECLIP H15S 9148   2.239   2.183  10.419
    1ECLIP  C16 9149   2.177   2.383  10.354
    1ECLIP H16R 9150   2.283   2.414  10.364
    1ECLIP H16S 9151   2.118   2.465  10.401
    1ECLIP  C17 9152   2.142   2.368  10.207
    1ECLIP H17R 9153   2.183   2.269  10.177
    1ECLIP H17S 9154   2.187   2.446  10.143
    1ECLIP  C18 9155   1.992   2.367  10.185
    1ECLIP H18R 9156   1.949   2.285  10.246
    1ECLIP H18S 9157   1.947   2.464  10.216
    1ECLIP  C19 9158   1.956   2.343  10.040
    1ECLIP H19R 9159   1.846   2.332  10.031
    1ECLIP H19S 9160   2.009   2.253  10.000
    1ECLIP C110 9161   1.993   2.456   9.952
    1ECLIPH110R 9162   1.952   2.554   9.984
    1ECLIPH110S 9163   2.104   2.462   9.949
    1ECLIP C111 9164   1.941   2.426   9.816
    1ECLIPH111R 9165   1.969   2.325   9.778
    1ECLIPH111S 9166   1.830   2.432   9.815
    1ECLIP C112 9167   1.996   2.535   9.733
    1ECLIPH112R 9168   1.953   2.633   9.760
    1ECLIPH112S 9169   2.107   2.548   9.732
    1ECLIP C113 9170   1.979   2.501   9.597
    1ECLIPH113R 9171   2.040   2.408   9.588
    1ECLIPH113S 9172   1.885   2.455   9.557
    1ECLIP C114 9173   2.033   2.625   9.525
    1ECLIPH114R 9174   1.978   2.719   9.535
    1ECLIPH114S 9175   2.122   2.636   9.464
    1ECLIPH114T 9176   1.990   2.591   9.436
    2AKDO    C1 9177   2.542   2.793  11.977
    2AKDO   O11 9178   2.597   2.906  11.972
    2AKDO   O12 9179   2.592   2.682  11.944
    2AKDO    C2 9180   2.395   2.789  12.024
    2AKDO    C6 9181   2.219   2.919  12.122
    2AKDO    H6 9182   2.160   2.891  12.031
    2AKDO    O6 9183   2.356   2.916  12.082
    2AKDO    C3 9184   2.368   2.681  12.129
    2AKDO   H31 9185   2.438   2.693  12.215
    2AKDO   H32 9186   2.389   2.582  12.082
    2AKDO    C4 9187   2.226   2.682  12.174
    2AKDO    H4 9188   2.159   2.670  12.085
    2AKDO    O4 9189   2.201   2.582  12.274
    2AKDO    C5 9190   2.189   2.816  12.233
    2AKDO    H5 9191   2.078   2.816  12.245
    2AKDO    O5 9192   2.257   2.828  12.362
    2AKDO    C7 9193   2.176   3.061  12.153
    2AKDO    H7 9194   2.229   3.096  12.244
    2AKDO    O7 9195   2.033   3.066  12.173
    2AKDO   HO7 9196   1.998   3.078  12.085
    2AKDO    C8 9197   2.214   3.154  12.039
    2AKDO   H81 9198   2.324   3.145  12.022
    2AKDO   H82 9199   2.162   3.121  11.945
    2AKDO    O8 9200   2.181   3.290  12.070
    2AKDO   HO8 9201   2.247   3.345  12.025
    3AKDO    C1 9202   2.081   2.439  12.118
    3AKDO   O11 9203   2.133   2.424  12.003
    3AKDO   O12 9204   1.961   2.465  12.147
    3AKDO    C2 9205   2.179   2.447  12.238
    3AKDO    C6 9206   2.400   2.385  12.315
    3AKDO    H6 9207   2.425   2.493  12.334
    3AKDO    O6 9208   2.302   2.376  12.209
    3AKDO    C3 9209   2.123   2.388  12.369
    3AKDO   H31 9210   2.097   2.281  12.351
    3AKDO   H32 9211   2.027   2.437  12.396
    3AKDO    C4 9212   2.225   2.402  12.479
    3AKDO    H4 9213   2.255   2.509  12.484
    3AKDO    O4 9214   2.178   2.365  12.608
    3AKDO   HO4 9215   2.187   2.439  12.670
    3AKDO    C5 9216   2.345   2.323  12.442
    3AKDO    H5 9217   2.419   2.332  12.525
    3AKDO    O5 9218   2.316   2.184  12.423
    3AKDO   HO5 9219   2.249   2.180  12.353
    3AKDO    C7 9220   2.526   2.316  12.269
    3AKDO    H7 9221   2.504   2.209  12.248
    3AKDO    O7 9222   2.621   2.323  12.374
    3AKDO   HO7 9223   2.696   2.268  12.349
    3AKDO    C8 9224   2.579   2.384  12.145
    3AKDO   H81 9225   2.500   2.389  12.068
    3AKDO   H82 9226   2.604   2.487  12.167
    3AKDO    O8 9227   2.691   2.315  12.090
    3AKDO   HO8 9228   2.647   2.233  12.061
    4AHEP    C1 9229   2.190   2.904  12.462
    4AHEP    H1 9230   2.204   3.008  12.427
    4AHEP    C5 9231   2.009   2.762  12.536
    4AHEP    H5 9232   2.064   2.679  12.487
    4AHEP    O5 9233   2.048   2.884  12.468
    4AHEP    C2 9234   2.242   2.906  12.607
    4AHEP    H2 9235   2.353   2.914  12.604
    4AHEP    O2 9236   2.196   3.024  12.673
    4AHEP   HO2 9237   2.265   3.057  12.729
    4AHEP    C3 9238   2.207   2.781  12.686
    4AHEP    H3 9239   2.258   2.690  12.645
    4AHEP    O3 9240   2.245   2.799  12.824
    4AHEP    C4 9241   2.056   2.766  12.681
    4AHEP    H4 9242   2.004   2.850  12.733
    4AHEP    O4 9243   2.028   2.639  12.741
    4AHEP    P4 9244   1.942   2.630  12.883
    4AHEP  OP42 9245   1.998   2.506  12.950
    4AHEP  OP43 9246   1.794   2.619  12.844
    4AHEP  OP44 9247   1.971   2.756  12.964
    4AHEP    C6 9248   1.856   2.742  12.515
    4AHEP    H6 9249   1.836   2.636  12.545
    4AHEP    O6 9250   1.771   2.826  12.597
    4AHEP   HO6 9251   1.727   2.768  12.661
    4AHEP    C7 9252   1.808   2.760  12.370
    4AHEP   H71 9253   1.706   2.717  12.356
    4AHEP   H72 9254   1.878   2.708  12.301
    4AHEP    O7 9255   1.796   2.895  12.323
    4AHEP   HO7 9256   1.726   2.933  12.378
    5AHEP    C1 9257   2.333   2.706  12.882
    5AHEP    H1 9258   2.325   2.606  12.834
    5AHEP    C5 9259   2.484   2.881  12.935
    5AHEP    H5 9260   2.409   2.953  12.896
    5AHEP    O5 9261   2.466   2.755  12.865
    5AHEP    C2 9262   2.308   2.690  13.033
    5AHEP    H2 9263   2.202   2.660  13.045
    5AHEP    O2 9264   2.390   2.583  13.084
    5AHEP   HO2 9265   2.336   2.506  13.101
    5AHEP    C3 9266   2.327   2.820  13.109
    5AHEP    H3 9267   2.257   2.897  13.068
    5AHEP    O3 9268   2.309   2.809  13.252
    5AHEP    C4 9269   2.467   2.867  13.084
    5AHEP    H4 9270   2.542   2.792  13.122
    5AHEP    O4 9271   2.479   2.996  13.145
    5AHEP    P4 9272   2.587   3.017  13.269
    5AHEP  OP42 9273   2.549   3.156  13.322
    5AHEP  OP43 9274   2.717   3.008  13.194
    5AHEP  OP44 9275   2.559   2.905  13.369
    5AHEP    C6 9276   2.618   2.930  12.901
    5AHEP    H6 9277   2.633   3.033  12.947
    5AHEP    O6 9278   2.712   2.834  12.946
    5AHEP   HO6 9279   2.751   2.780  12.880
    5AHEP    C7 9280   2.633   2.944  12.756
    5AHEP   H71 9281   2.711   3.021  12.769
    5AHEP   H72 9282   2.542   2.983  12.704
    5AHEP    O7 9283   2.707   2.851  12.680
    6AHEP    C1 9284   2.625   2.760  12.617
    6AHEP    H1 9285   2.519   2.780  12.639
    6AHEP    C5 9286   2.774   2.741  12.434
    6AHEP    H5 9287   2.839   2.817  12.486
    6AHEP    O5 9288   2.639   2.770  12.477
    6AHEP    C2 9289   2.667   2.624  12.661
    6AHEP    H2 9290   2.656   2.622  12.772
    6AHEP    O2 9291   2.572   2.533  12.609
    6AHEP   HO2 9292   2.527   2.492  12.683
    6AHEP    C3 9293   2.813   2.598  12.623
    6AHEP    H3 9294   2.877   2.674  12.675
    6AHEP    O3 9295   2.862   2.468  12.657
    6AHEP   HO3 9296   2.906   2.460  12.741
    6AHEP    C4 9297   2.824   2.611  12.473
    6AHEP    H4 9298   2.764   2.535  12.418
    6AHEP    O4 9299   2.959   2.606  12.428
    6AHEP   HO4 9300   3.008   2.686  12.449
    6AHEP    C6 9301   2.780   2.752  12.279
    6AHEP    H6 9302   2.885   2.742  12.246
    6AHEP    O6 9303   2.721   2.664  12.195
    6AHEP   HO6 9304   2.682   2.727  12.129
    6AHEP    C7 9305   2.703   2.868  12.235
    6AHEP   H71 9306   2.742   2.924  12.145
    6AHEP   H72 9307   2.742   2.909  12.325
    6AHEP    O7 9308   2.572   2.907  12.271
    6AHEP   HO7 9309   2.588   2.986  12.323
    7AGLC    C1 9310   2.182   2.840  13.302
    7AGLC    H1 9311   2.141   2.931  13.252
    7AGLC    C5 9312   2.135   2.611  13.346
    7AGLC    H5 9313   2.241   2.586  13.319
    7AGLC    O5 9314   2.094   2.731  13.278
    7AGLC    C2 9315   2.176   2.868  13.453
    7AGLC    H2 9316   2.068   2.874  13.480
    7AGLC    O2 9317   2.233   2.995  13.489
    7AGLC   HO2 9318   2.329   2.979  13.494
    7AGLC    C3 9319   2.226   2.750  13.534
    7AGLC    H3 9320   2.328   2.726  13.497
    7AGLC    O3 9321   2.233   2.779  13.676
    7AGLC    C4 9322   2.132   2.634  13.497
    7AGLC    H4 9323   2.028   2.658  13.529
    7AGLC    O4 9324   2.176   2.516  13.562
    7AGLC   HO4 9325   2.104   2.465  13.601
    7AGLC    C6 9326   2.051   2.498  13.288
    7AGLC   H61 9327   2.068   2.497  13.178
    7AGLC   H62 9328   2.081   2.398  13.326
    7AGLC    O6 9329   1.912   2.519  13.313
    7AGLC   HO6 9330   1.886   2.465  13.387
    8AGLC    C1 9331   2.365   2.768  13.728
    8AGLC    H1 9332   2.413   2.676  13.687
    8AGLC    C5 9333   2.412   3.006  13.758
    8AGLC    H5 9334   2.309   3.027  13.725
    8AGLC    O5 9335   2.449   2.881  13.695
    8AGLC    C2 9336   2.368   2.750  13.879
    8AGLC    H2 9337   2.474   2.733  13.906
    8AGLC    O2 9338   2.294   2.639  13.932
    8AGLC    C3 9339   2.320   2.874  13.949
    8AGLC    H3 9340   2.217   2.895  13.908
    8AGLC    O3 9341   2.308   2.847  14.091
    8AGLC    C4 9342   2.413   2.987  13.910
    8AGLC    H4 9343   2.517   2.958  13.940
    8AGLC    O4 9344   2.379   3.107  13.978
    8AGLC   HO4 9345   2.284   3.117  13.976
    8AGLC    C6 9346   2.494   3.129  13.711
    8AGLC   H61 9347   2.506   3.129  13.600
    8AGLC   H62 9348   2.442   3.223  13.738
    8AGLC    O6 9349   2.623   3.143  13.770
    8AGLC   HO6 9350   2.616   3.175  13.860
    9AGAL    C1 9351   2.324   2.512  13.881
    9AGAL    H1 9352   2.326   2.513  13.770
    9AGAL    C5 9353   2.455   2.439  14.064
    9AGAL    H5 9354   2.421   2.533  14.112
    9AGAL    O5 9355   2.451   2.461  13.922
    9AGAL    C2 9356   2.212   2.419  13.923
    9AGAL    H2 9357   2.238   2.323  13.878
    9AGAL    O2 9358   2.091   2.464  13.858
    9AGAL    C3 9359   2.212   2.393  14.072
    9AGAL    H3 9360   2.196   2.488  14.127
    9AGAL    O3 9361   2.106   2.306  14.110
    9AGAL   HO3 9362   2.032   2.334  14.056
    9AGAL    C4 9363   2.350   2.336  14.106
    9AGAL    H4 9364   2.359   2.320  14.216
    9AGAL    O4 9365   2.374   2.210  14.044
    9AGAL   HO4 9366   2.435   2.162  14.102
    9AGAL    C6 9367   2.597   2.418  14.114
    9AGAL   H61 9368   2.660   2.506  14.095
    9AGAL   H62 9369   2.596   2.403  14.221
    9AGAL    O6 9370   2.661   2.301  14.067
    9AGAL   HO6 9371   2.726   2.327  14.003
   10AGAL    C1 9372   1.959   2.463  13.911
   10AGAL    H1 9373   1.925   2.357  13.919
   10AGAL    C5 9374   1.975   2.666  14.041
   10AGAL    H5 9375   2.079   2.673  14.001
   10AGAL    O5 9376   1.944   2.524  14.042
   10AGAL    C2 9377   1.868   2.534  13.811
   10AGAL    H2 9378   1.765   2.524  13.849
   10AGAL    O2 9379   1.862   2.471  13.684
   10AGAL   HO2 9380   1.769   2.458  13.664
   10AGAL    C3 9381   1.904   2.683  13.806
   10AGAL    H3 9382   2.013   2.689  13.780
   10AGAL    O3 9383   1.832   2.760  13.708
   10AGAL   HO3 9384   1.894   2.775  13.637
   10AGAL    C4 9385   1.885   2.742  13.944
   10AGAL    H4 9386   1.917   2.849  13.945
   10AGAL    O4 9387   1.749   2.734  13.985
   10AGAL   HO4 9388   1.729   2.641  13.998
   10AGAL    C6 9389   1.986   2.733  14.179
   10AGAL   H61 9390   2.047   2.671  14.246
   10AGAL   H62 9391   2.039   2.831  14.163
   10AGAL    O6 9392   1.863   2.762  14.246
   10AGAL   HO6 9393   1.857   2.716  14.329
   11BGLC    C1 9394   2.413   2.874  14.183
   11BGLC    H1 9395   2.419   2.985  14.198
   11BGLC    C5 9396   2.647   2.828  14.247
   11BGLC    H5 9397   2.639   2.931  14.281
   11BGLC    O5 9398   2.541   2.811  14.148
   11BGLC    C2 9399   2.366   2.813  14.316
   11BGLC    H2 9400   2.355   2.703  14.302
   11BGLC    O2 9401   2.238   2.863  14.356
   11BGLC   HO2 9402   2.180   2.787  14.365
   11BGLC    C3 9403   2.468   2.831  14.427
   11BGLC    H3 9404   2.477   2.938  14.454
   11BGLC    O3 9405   2.426   2.752  14.541
   11BGLC    C4 9406   2.598   2.769  14.378
   11BGLC    H4 9407   2.582   2.666  14.351
   11BGLC    O4 9408   2.698   2.772  14.479
   11BGLC   HO4 9409   2.674   2.714  14.552
   11BGLC    C6 9410   2.792   2.767  14.201
   11BGLC   H61 9411   2.859   2.755  14.288
   11BGLC   H62 9412   2.763   2.681  14.139
   11BGLC    O6 9413   2.894   2.812  14.109
   11BGLC   HO6 9414   2.918   2.907  14.120
   12BGLCN   C1 9415   2.413   2.813  14.668
   12BGLCN   H1 9416   2.315   2.864  14.674
   12BGLCN   C5 9417   2.499   2.971  14.824
   12BGLCN   H5 9418   2.400   3.022  14.832
   12BGLCN   O5 9419   2.515   2.909  14.695
   12BGLCN   C2 9420   2.423   2.702  14.772
   12BGLCN   H2 9421   2.528   2.665  14.767
   12BGLCN    N 9422   2.326   2.600  14.742
   12BGLCN   HN 9423   2.233   2.630  14.731
   12BGLCN    C 9424   2.360   2.471  14.728
   12BGLCN    O 9425   2.474   2.433  14.745
   12BGLCN   CT 9426   2.251   2.374  14.690
   12BGLCN  HT1 9427   2.229   2.308  14.776
   12BGLCN  HT2 9428   2.285   2.308  14.608
   12BGLCN  HT3 9429   2.160   2.430  14.660
   12BGLCN   C3 9430   2.403   2.756  14.912
   12BGLCN   H3 9431   2.302   2.802  14.916
   12BGLCN   O3 9432   2.405   2.651  15.013
   12BGLCN   C4 9433   2.510   2.862  14.932
   12BGLCN   H4 9434   2.612   2.817  14.925
   12BGLCN   O4 9435   2.500   2.919  15.061
   12BGLCN  HO4 9436   2.424   2.976  15.069
   12BGLCN   C6 9437   2.606   3.078  14.831
   12BGLCN  H61 9438   2.604   3.133  14.928
   12BGLCN  H62 9439   2.706   3.030  14.820
   12BGLCN   O6 9440   2.594   3.173  14.726
   12BGLCN  HO6 9441   2.534   3.244  14.750
   13AGAL    C1 9442   2.312   2.663  15.120
   13AGAL    H1 9443   2.307   2.770  15.152
   13AGAL    C5 9444   2.182   2.469  15.063
   13AGAL    H5 9445   2.265   2.450  14.990
   13AGAL    O5 9446   2.181   2.613  15.084
   13AGAL    C2 9447   2.350   2.585  15.247
   13AGAL    H2 9448   2.263   2.597  15.316
   13AGAL    O2 9449   2.463   2.641  15.313
   13AGAL    C3 9450   2.359   2.435  15.225
   13AGAL    H3 9451   2.424   2.415  15.138
   13AGAL    O3 9452   2.418   2.367  15.336
   13AGAL   HO3 9453   2.471   2.293  15.306
   13AGAL    C4 9454   2.220   2.388  15.188
   13AGAL    H4 9455   2.226   2.280  15.159
   13AGAL    O4 9456   2.126   2.397  15.294
   13AGAL   HO4 9457   2.125   2.482  15.340
   13AGAL    C6 9458   2.062   2.411  14.991
   13AGAL   H61 9459   2.047   2.467  14.896
   13AGAL   H62 9460   2.085   2.304  14.967
   13AGAL    O6 9461   1.940   2.412  15.064
   13AGAL   HO6 9462   1.948   2.347  15.137
   14ARHM    C1 9463   2.436   2.700  15.438
   14ARHM    H1 9464   2.335   2.744  15.440
   14ARHM    C5 9465   2.648   2.764  15.458
   14ARHM    H5 9466   2.677   2.723  15.356
   14ARHM    O5 9467   2.516   2.810  15.455
   14ARHM    C2 9468   2.462   2.601  15.549
   14ARHM    H2 9469   2.396   2.515  15.532
   14ARHM    O2 9470   2.446   2.652  15.682
   14ARHM    C3 9471   2.606   2.555  15.545
   14ARHM    H3 9472   2.632   2.525  15.441
   14ARHM    O3 9473   2.634   2.444  15.628
   14ARHM   HO3 9474   2.631   2.473  15.719
   14ARHM    C4 9475   2.693   2.671  15.571
   14ARHM    H4 9476   2.669   2.728  15.665
   14ARHM    O4 9477   2.834   2.641  15.577
   14ARHM   HO4 9478   2.871   2.655  15.666
   14ARHM    C6 9479   2.707   2.885  15.479
   14ARHM   H61 9480   2.683   2.969  15.410
   14ARHM   H62 9481   2.727   2.922  15.581
   14ARHM   H63 9482   2.801   2.831  15.449
   15ARHM    C1 9483   2.324   2.714  15.711
   15ARHM    H1 9484   2.246   2.678  15.640
   15ARHM    C5 9485   2.419   2.921  15.800
   15ARHM    H5 9486   2.525   2.893  15.782
   15ARHM    O5 9487   2.332   2.859  15.703
   15ARHM    C2 9488   2.279   2.673  15.850
   15ARHM    H2 9489   2.283   2.562  15.857
   15ARHM    O2 9490   2.144   2.719  15.865
   15ARHM    C3 9491   2.373   2.730  15.951
   15ARHM    H3 9492   2.469   2.693  15.917
   15ARHM    O3 9493   2.347   2.671  16.079
   15ARHM    C4 9494   2.373   2.881  15.940
   15ARHM    H4 9495   2.268   2.914  15.952
   15ARHM    O4 9496   2.449   2.952  16.037
   15ARHM   HO4 9497   2.423   3.044  16.034
   15ARHM    C6 9498   2.409   3.075  15.783
   15ARHM   H61 9499   2.487   3.129  15.841
   15ARHM   H62 9500   2.419   3.098  15.675
   15ARHM   H63 9501   2.311   3.112  15.817
   16BMANN   C1 9502   2.077   2.695  15.987
   16BMANN   H1 9503   2.123   2.757  16.067
   16BMANN   C5 9504   2.013   2.540  16.155
   16BMANN   H5 9505   2.061   2.607  16.231
   16BMANN   O5 9506   2.078   2.558  16.028
   16BMANN   C2 9507   1.932   2.740  15.967
   16BMANN   H2 9508   1.936   2.848  15.940
   16BMANN    N 9509   1.859   2.671  15.862
   16BMANN   HN 9510   1.807   2.591  15.890
   16BMANN    C 9511   1.850   2.708  15.734
   16BMANN    O 9512   1.904   2.809  15.691
   16BMANN   CT 9513   1.770   2.617  15.644
   16BMANN  HT1 9514   1.671   2.661  15.622
   16BMANN  HT2 9515   1.756   2.517  15.690
   16BMANN  HT3 9516   1.825   2.605  15.548
   16BMANN   C3 9517   1.861   2.724  16.101
   16BMANN   H3 9518   1.916   2.786  16.176
   16BMANN   O3 9519   1.727   2.773  16.095
   16BMANN  HO3 9520   1.716   2.839  16.165
   16BMANN   C4 9521   1.866   2.579  16.148
   16BMANN   H4 9522   1.815   2.514  16.073
   16BMANN   O4 9523   1.800   2.554  16.273
   16BMANN  HO4 9524   1.774   2.462  16.278
   16BMANN   C6 9525   2.027   2.399  16.208
   16BMANN  H61 9526   2.026   2.409  16.316
   16BMANN  H62 9527   1.941   2.335  16.178
   16BMANN   O6 9528   2.146   2.331  16.174
   16BMANN  HO6 9529   2.123   2.254  16.121
   17BGLCN   C1 9530   2.461   2.635  16.151
   17BGLCN   H1 9531   2.540   2.712  16.136
   17BGLCN   C5 9532   2.629   2.471  16.192
   17BGLCN   H5 9533   2.713   2.541  16.172
   17BGLCN   O5 9534   2.513   2.507  16.115
   17BGLCN   C2 9535   2.414   2.634  16.295
   17BGLCN   H2 9536   2.339   2.553  16.311
   17BGLCN    N 9537   2.349   2.760  16.325
   17BGLCN   HN 9538   2.382   2.837  16.274
   17BGLCN    C 9539   2.255   2.780  16.418
   17BGLCN    O 9540   2.201   2.691  16.482
   17BGLCN   CT 9541   2.222   2.926  16.440
   17BGLCN  HT1 9542   2.128   2.956  16.389
   17BGLCN  HT2 9543   2.307   2.987  16.404
   17BGLCN  HT3 9544   2.210   2.945  16.548
   17BGLCN   C3 9545   2.536   2.606  16.379
   17BGLCN   H3 9546   2.613   2.680  16.346
   17BGLCN   O3 9547   2.507   2.630  16.519
   17BGLCN   C4 9548   2.589   2.469  16.341
   17BGLCN   H4 9549   2.505   2.394  16.349
   17BGLCN   O4 9550   2.694   2.427  16.427
   17BGLCN  HO4 9551   2.725   2.337  16.409
   17BGLCN   C6 9552   2.676   2.337  16.146
   17BGLCN  H61 9553   2.787   2.337  16.149
   17BGLCN  H62 9554   2.637   2.264  16.221
   17BGLCN   O6 9555   2.638   2.295  16.015
   17BGLCN  HO6 9556   2.668   2.360  15.951
   18AGAL    C1 9557   2.612   2.684  16.599
   18AGAL    H1 9558   2.686   2.604  16.617
   18AGAL    C5 9559   2.592   2.907  16.522
   18AGAL    H5 9560   2.497   2.872  16.480
   18AGAL    O5 9561   2.678   2.793  16.534
   18AGAL    C2 9562   2.566   2.738  16.733
   18AGAL    H2 9563   2.661   2.779  16.776
   18AGAL    O2 9564   2.526   2.634  16.823
   18AGAL    C3 9565   2.471   2.857  16.721
   18AGAL    H3 9566   2.387   2.828  16.653
   18AGAL    O3 9567   2.412   2.895  16.845
   18AGAL   HO3 9568   2.317   2.911  16.835
   18AGAL    C4 9569   2.546   2.970  16.654
   18AGAL    H4 9570   2.479   3.055  16.630
   18AGAL    O4 9571   2.654   3.021  16.732
   18AGAL   HO4 9572   2.619   3.069  16.808
   18AGAL    C6 9573   2.629   2.993  16.407
   18AGAL   H61 9574   2.631   2.931  16.315
   18AGAL   H62 9575   2.568   3.084  16.398
   18AGAL    O6 9576   2.758   3.033  16.403
   18AGAL   HO6 9577   2.805   3.009  16.486
   19ARHM    C1 9578   2.573   2.660  16.953
   19ARHM    H1 9579   2.586   2.769  16.972
   19ARHM    C5 9580   2.702   2.462  16.962
   19ARHM    H5 9581   2.666   2.441  16.859
   19ARHM    O5 9582   2.702   2.604  16.979
   19ARHM    C2 9583   2.473   2.599  17.047
   19ARHM    H2 9584   2.370   2.635  17.022
   19ARHM    O2 9585   2.495   2.634  17.183
   19ARHM    C3 9586   2.472   2.449  17.033
   19ARHM    H3 9587   2.448   2.424  16.927
   19ARHM    O3 9588   2.374   2.390  17.117
   19ARHM   HO3 9589   2.390   2.426  17.204
   19ARHM    C4 9590   2.610   2.396  17.061
   19ARHM    H4 9591   2.640   2.424  17.165
   19ARHM    O4 9592   2.619   2.255  17.051
   19ARHM   HO4 9593   2.597   2.226  16.962
   19ARHM    C6 9594   2.845   2.410  16.968
   19ARHM   H61 9595   2.899   2.460  16.887
   19ARHM   H62 9596   2.897   2.428  17.063
   19ARHM   H63 9597   2.850   2.303  16.948
   20ARHM    C1 9598   2.457   2.765  17.206
   20ARHM    H1 9599   2.407   2.816  17.121
   20ARHM    C5 9600   2.632   2.794  17.330
   20ARHM    H5 9601   2.672   2.689  17.319
   20ARHM    O5 9602   2.568   2.837  17.214
   20ARHM    C2 9603   2.381   2.778  17.331
   20ARHM    H2 9604   2.301   2.701  17.322
   20ARHM    O2 9605   2.332   2.909  17.352
   20ARHM    C3 9606   2.459   2.737  17.451
   20ARHM    H3 9607   2.504   2.635  17.434
   20ARHM    O3 9608   2.380   2.739  17.567
   20ARHM    C4 9609   2.572   2.821  17.467
   20ARHM    H4 9610   2.549   2.933  17.469
   20ARHM    O4 9611   2.659   2.799  17.579
   20ARHM   HO4 9612   2.746   2.830  17.550
   20ARHM    C6 9613   2.735   2.842  17.316
   20ARHM   H61 9614   2.705   2.954  17.323
   20ARHM   H62 9615   2.800   2.812  17.404
   20ARHM   H63 9616   2.800   2.818  17.227
   21BMANN   C1 9617   2.216   2.923  17.277
   21BMANN   H1 9618   2.204   2.836  17.208
   21BMANN   C5 9619   2.106   3.031  17.100
   21BMANN   H5 9620   2.100   2.934  17.044
   21BMANN   O5 9621   2.221   3.033  17.187
   21BMANN   C2 9622   2.097   2.931  17.371
   21BMANN   H2 9623   2.099   2.835  17.429
   21BMANN    N 9624   2.100   3.043  17.465
   21BMANN   HN 9625   2.132   3.128  17.426
   21BMANN    C 9626   2.060   3.039  17.595
   21BMANN    O 9627   1.995   2.947  17.640
   21BMANN   CT 9628   2.092   3.157  17.684
   21BMANN  HT1 9629   2.022   3.240  17.665
   21BMANN  HT2 9630   2.196   3.189  17.670
   21BMANN  HT3 9631   2.084   3.128  17.791
   21BMANN   C3 9632   1.975   2.928  17.282
   21BMANN   H3 9633   1.978   2.831  17.228
   21BMANN   O3 9634   1.856   2.933  17.358
   21BMANN  HO3 9635   1.858   3.010  17.415
   21BMANN   C4 9636   1.980   3.042  17.181
   21BMANN   H4 9637   1.984   3.135  17.237
   21BMANN   O4 9638   1.868   3.050  17.094
   21BMANN  HO4 9639   1.816   3.128  17.116
   21BMANN   C6 9640   2.115   3.141  16.998
   21BMANN  H61 9641   2.042   3.121  16.916
   21BMANN  H62 9642   2.086   3.238  17.044
   21BMANN   O6 9643   2.247   3.150  16.944
   21BMANN  HO6 9644   2.309   3.175  17.015
   22BGLCN   C1 9645   2.410   2.640  17.661
   22BGLCN   H1 9646   2.517   2.610  17.661
   22BGLCN   C5 9647   2.350   2.428  17.747
   22BGLCN   H5 9648   2.459   2.402  17.748
   22BGLCN   O5 9649   2.328   2.525  17.643
   22BGLCN   C2 9650   2.376   2.706  17.791
   22BGLCN   H2 9651   2.268   2.736  17.786
   22BGLCN    N 9652   2.458   2.823  17.809
   22BGLCN   HN 9653   2.551   2.819  17.774
   22BGLCN    C 9654   2.417   2.935  17.870
   22BGLCN    O 9655   2.308   2.951  17.921
   22BGLCN   CT 9656   2.519   3.044  17.874
   22BGLCN  HT1 9657   2.498   3.112  17.790
   22BGLCN  HT2 9658   2.620   3.000  17.861
   22BGLCN  HT3 9659   2.511   3.098  17.970
   22BGLCN   C3 9660   2.398   2.609  17.905
   22BGLCN   H3 9661   2.504   2.575  17.901
   22BGLCN   O3 9662   2.376   2.682  18.026
   22BGLCN   C4 9663   2.312   2.487  17.883
   22BGLCN   H4 9664   2.206   2.520  17.877
   22BGLCN   O4 9665   2.323   2.392  17.989
   22BGLCN  HO4 9666   2.236   2.353  18.008
   22BGLCN   C6 9667   2.269   2.306  17.713
   22BGLCN  H61 9668   2.259   2.245  17.805
   22BGLCN  H62 9669   2.166   2.334  17.680
   22BGLCN   O6 9670   2.335   2.223  17.617
   22BGLCN  HO6 9671   2.345   2.271  17.535
   23AGAL    C1 9672   2.429   2.633  18.146
   23AGAL    H1 9673   2.368   2.547  18.182
   23AGAL    C5 9674   2.657   2.697  18.109
   23AGAL    H5 9675   2.622   2.751  18.018
   23AGAL    O5 9676   2.565   2.589  18.136
   23AGAL    C2 9677   2.419   2.738  18.255
   23AGAL    H2 9678   2.459   2.690  18.347
   23AGAL    O2 9679   2.282   2.777  18.279
   23AGAL    C3 9680   2.513   2.854  18.224
   23AGAL    H3 9681   2.491   2.892  18.122
   23AGAL    O3 9682   2.494   2.965  18.311
   23AGAL   HO3 9683   2.486   2.932  18.401
   23AGAL    C4 9684   2.655   2.800  18.222
   23AGAL    H4 9685   2.727   2.881  18.199
   23AGAL    O4 9686   2.693   2.742  18.347
   23AGAL   HO4 9687   2.762   2.677  18.323
   23AGAL    C6 9688   2.791   2.637  18.070
   23AGAL   H61 9689   2.773   2.557  17.994
   23AGAL   H62 9690   2.854   2.713  18.019
   23AGAL    O6 9691   2.860   2.579  18.180
   23AGAL   HO6 9692   2.946   2.542  18.152
   24ARHM    C1 9693   2.202   2.697  18.364
   24ARHM    H1 9694   2.249   2.597  18.376
   24ARHM    C5 9695   1.993   2.796  18.300
   24ARHM    H5 9696   2.051   2.862  18.232
   24ARHM    O5 9697   2.068   2.674  18.315
   24ARHM    C2 9698   2.198   2.770  18.496
   24ARHM    H2 9699   2.302   2.795  18.529
   24ARHM    O2 9700   2.130   2.692  18.595
   24ARHM    C3 9701   2.123   2.900  18.479
   24ARHM    H3 9702   2.176   2.959  18.400
   24ARHM    O3 9703   2.128   2.979  18.597
   24ARHM   HO3 9704   2.053   2.954  18.652
   24ARHM    C4 9705   1.982   2.869  18.433
   24ARHM    H4 9706   1.934   2.800  18.505
   24ARHM    O4 9707   1.902   2.986  18.421
   24ARHM   HO4 9708   1.809   2.968  18.436
   24ARHM    C6 9709   1.857   2.768  18.233
   24ARHM   H61 9710   1.823   2.859  18.177
   24ARHM   H62 9711   1.870   2.686  18.159
   24ARHM   H63 9712   1.779   2.738  18.304
   25ARHM    C1 9713   2.207   2.589  18.651
   25ARHM    H1 9714   2.292   2.566  18.583
   25ARHM    C5 9715   2.027   2.473  18.757
   25ARHM    H5 9716   1.956   2.550  18.721
   25ARHM    O5 9717   2.137   2.464  18.665
   25ARHM    C2 9718   2.261   2.633  18.783
   25ARHM    H2 9719   2.304   2.736  18.773
   25ARHM    O2 9720   2.363   2.541  18.826
   25ARHM    C3 9721   2.148   2.643  18.882
   25ARHM    H3 9722   2.073   2.716  18.845
   25ARHM    O3 9723   2.205   2.683  19.007
   25ARHM    C4 9724   2.078   2.511  18.894
   25ARHM    H4 9725   2.150   2.431  18.927
   25ARHM    O4 9726   1.972   2.519  18.989
   25ARHM   HO4 9727   1.973   2.439  19.041
   25ARHM    C6 9728   1.952   2.341  18.758
   25ARHM   H61 9729   1.925   2.310  18.654
   25ARHM   H62 9730   2.012   2.259  18.803
   25ARHM   H63 9731   1.858   2.351  18.816
   26BMANN   C1 9732   2.488   2.558  18.764
   26BMANN   H1 9733   2.494   2.658  18.719
   26BMANN   C5 9734   2.643   2.493  18.595
   26BMANN   H5 9735   2.641   2.597  18.554
   26BMANN   O5 9736   2.516   2.465  18.659
   26BMANN   C2 9737   2.591   2.544  18.871
   26BMANN   H2 9738   2.567   2.622  18.949
   26BMANN    N 9739   2.587   2.410  18.929
   26BMANN   HN 9740   2.593   2.335  18.865
   26BMANN    C 9741   2.575   2.384  19.060
   26BMANN    O 9742   2.553   2.474  19.140
   26BMANN   CT 9743   2.598   2.241  19.103
   26BMANN  HT1 9744   2.567   2.173  19.021
   26BMANN  HT2 9745   2.545   2.213  19.197
   26BMANN  HT3 9746   2.706   2.229  19.122
   26BMANN   C3 9747   2.725   2.580  18.811
   26BMANN   H3 9748   2.723   2.683  18.769
   26BMANN   O3 9749   2.825   2.584  18.912
   26BMANN  HO3 9750   2.813   2.663  18.966
   26BMANN   C4 9751   2.756   2.483  18.698
   26BMANN   H4 9752   2.759   2.379  18.735
   26BMANN   O4 9753   2.881   2.508  18.636
   26BMANN  HO4 9754   2.950   2.477  18.697
   26BMANN   C6 9755   2.654   2.400  18.476
   26BMANN  H61 9756   2.554   2.390  18.427
   26BMANN  H62 9757   2.724   2.441  18.400
   26BMANN   O6 9758   2.697   2.270  18.512
   26BMANN  HO6 9759   2.787   2.275  18.547
   27BGLCN   C1 9760   2.132   2.774  19.083
   27BGLCN   H1 9761   2.024   2.754  19.077
   27BGLCN   C5 9762   2.092   3.003  19.128
   27BGLCN   H5 9763   1.984   2.979  19.130
   27BGLCN   O5 9764   2.159   2.908  19.044
   27BGLCN   C2 9765   2.184   2.751  19.224
   27BGLCN   H2 9766   2.292   2.773  19.221
   27BGLCN    N 9767   2.172   2.612  19.267
   27BGLCN   HN 9768   2.087   2.567  19.241
   27BGLCN    C 9769   2.273   2.550  19.332
   27BGLCN    O 9770   2.362   2.613  19.389
   27BGLCN   CT 9771   2.272   2.400  19.337
   27BGLCN  HT1 9772   2.191   2.360  19.272
   27BGLCN  HT2 9773   2.261   2.365  19.441
   27BGLCN  HT3 9774   2.371   2.363  19.302
   27BGLCN   C3 9775   2.119   2.847  19.318
   27BGLCN   H3 9776   2.009   2.829  19.314
   27BGLCN   O3 9777   2.172   2.813  19.449
   27BGLCN   C4 9778   2.144   2.989  19.271
   27BGLCN   H4 9779   2.253   3.013  19.271
   27BGLCN   O4 9780   2.077   3.083  19.354
   27BGLCN  HO4 9781   1.982   3.071  19.344
   27BGLCN   C6 9782   2.100   3.142  19.068
   27BGLCN  H61 9783   2.030   3.210  19.122
   27BGLCN  H62 9784   2.203   3.184  19.079
   27BGLCN   O6 9785   2.060   3.141  18.930
   27BGLCN  HO6 9786   2.085   3.224  18.887
   28AGAL    C1 9787   2.101   2.857  19.561
   28AGAL    H1 9788   2.117   2.967  19.569
   28AGAL    C5 9789   1.929   2.690  19.549
   28AGAL    H5 9790   1.995   2.634  19.479
   28AGAL    O5 9791   1.960   2.832  19.543
   28AGAL    C2 9792   2.142   2.798  19.697
   28AGAL    H2 9793   2.073   2.852  19.766
   28AGAL    O2 9794   2.275   2.826  19.747
   28AGAL    C3 9795   2.110   2.651  19.704
   28AGAL    H3 9796   2.162   2.600  19.620
   28AGAL    O3 9797   2.155   2.585  19.822
   28AGAL   HO3 9798   2.210   2.509  19.802
   28AGAL    C4 9799   1.962   2.635  19.685
   28AGAL    H4 9800   1.939   2.526  19.685
   28AGAL    O4 9801   1.888   2.698  19.789
   28AGAL   HO4 9802   1.852   2.629  19.846
   28AGAL    C6 9803   1.787   2.661  19.500
   28AGAL   H61 9804   1.781   2.685  19.392
   28AGAL   H62 9805   1.760   2.553  19.512
   28AGAL    O6 9806   1.687   2.733  19.570
   28AGAL   HO6 9807   1.678   2.823  19.535
   29ARHM    C1 9808   2.269   2.856  19.885
   29ARHM    H1 9809   2.181   2.808  19.933
   29ARHM    C5 9810   2.372   3.067  19.850
   29ARHM    H5 9811   2.379   3.041  19.742
   29ARHM    O5 9812   2.260   2.997  19.907
   29ARHM    C2 9813   2.391   2.803  19.953
   29ARHM    H2 9814   2.399   2.695  19.929
   29ARHM    O2 9815   2.381   2.823  20.097
   29ARHM    C3 9816   2.512   2.872  19.897
   29ARHM    H3 9817   2.519   2.854  19.787
   29ARHM    O3 9818   2.627   2.816  19.957
   29ARHM   HO3 9819   2.693   2.886  19.959
   29ARHM    C4 9820   2.501   3.023  19.918
   29ARHM    H4 9821   2.495   3.046  20.027
   29ARHM    O4 9822   2.615   3.095  19.871
   29ARHM   HO4 9823   2.641   3.072  19.781
   29ARHM    C6 9824   2.333   3.215  19.859
   29ARHM   H61 9825   2.231   3.225  19.814
   29ARHM   H62 9826   2.329   3.249  19.964
   29ARHM   H63 9827   2.404   3.277  19.800
   30ARHM    C1 9828   2.336   2.713  20.173
   30ARHM    H1 9829   2.400   2.624  20.152
   30ARHM    C5 9830   2.109   2.788  20.186
   30ARHM    H5 9831   2.143   2.876  20.128
   30ARHM    O5 9832   2.198   2.680  20.152
   30ARHM    C2 9833   2.351   2.750  20.318
   30ARHM    H2 9834   2.457   2.779  20.340
   30ARHM    O2 9835   2.308   2.640  20.396
   30ARHM    C3 9836   2.261   2.864  20.358
   30ARHM    H3 9837   2.284   2.948  20.288
   30ARHM    O3 9838   2.291   2.913  20.490
   30ARHM    C4 9839   2.118   2.824  20.333
   30ARHM    H4 9840   2.089   2.734  20.392
   30ARHM    O4 9841   2.026   2.926  20.368
   30ARHM   HO4 9842   2.016   2.990  20.297
   30ARHM    C6 9843   1.966   2.755  20.143
   30ARHM   H61 9844   1.903   2.844  20.160
   30ARHM   H62 9845   1.964   2.733  20.034
   30ARHM   H63 9846   1.925   2.668  20.199
   31BMANN   C1 9847   2.405   2.547  20.425
   31BMANN   H1 9848   2.493   2.599  20.457
   31BMANN   C5 9849   2.533   2.367  20.350
   31BMANN   H5 9850   2.622   2.432  20.376
   31BMANN   O5 9851   2.429   2.457  20.317
   31BMANN   C2 9852   2.359   2.476  20.546
   31BMANN   H2 9853   2.352   2.551  20.629
   31BMANN    N 9854   2.230   2.418  20.519
   31BMANN   HN 9855   2.209   2.410  20.422
   31BMANN    C 9856   2.141   2.397  20.614
   31BMANN    O 9857   2.166   2.427  20.730
   31BMANN   CT 9858   2.012   2.337  20.569
   31BMANN  HT1 9859   2.031   2.260  20.493
   31BMANN  HT2 9860   1.950   2.418  20.525
   31BMANN  HT3 9861   1.957   2.295  20.656
   31BMANN   C3 9862   2.468   2.382  20.586
   31BMANN   H3 9863   2.563   2.436  20.605
   31BMANN   O3 9864   2.438   2.318  20.708
   31BMANN  HO3 9865   2.366   2.371  20.748
   31BMANN   C4 9866   2.492   2.292  20.470
   31BMANN   H4 9867   2.408   2.220  20.450
   31BMANN   O4 9868   2.618   2.237  20.482
   31BMANN  HO4 9869   2.653   2.238  20.570
   31BMANN   C6 9870   2.579   2.271  20.238
   31BMANN  H61 9871   2.673   2.215  20.263
   31BMANN  H62 9872   2.502   2.192  20.222
   31BMANN   O6 9873   2.601   2.339  20.116
   31BMANN  HO6 9874   2.681   2.392  20.115
   32BGLCN   C1 9875   2.232   2.843  20.598
   32BGLCN   H1 9876   2.233   2.735  20.577
   32BGLCN   C5 9877   2.039   2.801  20.729
   32BGLCN   H5 9878   2.045   2.695  20.695
   32BGLCN   O5 9879   2.098   2.883  20.627
   32BGLCN   C2 9880   2.315   2.864  20.722
   32BGLCN   H2 9881   2.301   2.972  20.751
   32BGLCN    N 9882   2.452   2.841  20.695
   32BGLCN   HN 9883   2.471   2.774  20.625
   32BGLCN    C 9884   2.554   2.906  20.750
   32BGLCN    O 9885   2.548   3.001  20.828
   32BGLCN   CT 9886   2.683   2.861  20.698
   32BGLCN  HT1 9887   2.666   2.807  20.607
   32BGLCN  HT2 9888   2.750   2.801  20.763
   32BGLCN  HT3 9889   2.728   2.950  20.655
   32BGLCN   C3 9890   2.261   2.773  20.829
   32BGLCN   H3 9891   2.258   2.671  20.784
   32BGLCN   O3 9892   2.346   2.765  20.946
   32BGLCN   C4 9893   2.119   2.816  20.857
   32BGLCN   H4 9894   2.121   2.923  20.888
   32BGLCN   O4 9895   2.061   2.739  20.961
   32BGLCN  HO4 9896   2.078   2.785  21.044
   32BGLCN   C6 9897   1.891   2.834  20.741
   32BGLCN  H61 9898   1.840   2.763  20.810
   32BGLCN  H62 9899   1.879   2.935  20.786
   32BGLCN   O6 9900   1.824   2.825  20.615
   32BGLCN  HO6 9901   1.865   2.761  20.557
   33AGAL    C1 9902   2.349   2.636  21.005
   33AGAL    H1 9903   2.249   2.587  20.997
   33AGAL    C5 9904   2.580   2.599  20.958
   33AGAL    H5 9905   2.577   2.703  20.920
   33AGAL    O5 9906   2.446   2.549  20.944
   33AGAL    C2 9907   2.387   2.649  21.151
   33AGAL    H2 9908   2.396   2.544  21.190
   33AGAL    O2 9909   2.277   2.708  21.223
   33AGAL    C3 9910   2.527   2.709  21.167
   33AGAL    H3 9911   2.533   2.804  21.109
   33AGAL    O3 9912   2.558   2.747  21.300
   33AGAL   HO3 9913   2.551   2.673  21.360
   33AGAL    C4 9914   2.627   2.612  21.102
   33AGAL    H4 9915   2.729   2.658  21.102
   33AGAL    O4 9916   2.641   2.485  21.165
   33AGAL   HO4 9917   2.572   2.464  21.227
   33AGAL    C6 9918   2.674   2.526  20.862
   33AGAL   H61 9919   2.642   2.551  20.759
   33AGAL   H62 9920   2.775   2.565  20.874
   33AGAL    O6 9921   2.687   2.385  20.878
   33AGAL   HO6 9922   2.621   2.340  20.824
   34ARHM    C1 9923   2.241   2.638  21.341
   34ARHM    H1 9924   2.333   2.620  21.401
   34ARHM    C5 9925   2.057   2.514  21.242
   34ARHM    H5 9926   2.081   2.556  21.142
   34ARHM    O5 9927   2.178   2.509  21.319
   34ARHM    C2 9928   2.147   2.730  21.417
   34ARHM    H2 9929   2.192   2.833  21.420
   34ARHM    O2 9930   2.121   2.690  21.555
   34ARHM    C3 9931   2.018   2.741  21.337
   34ARHM    H3 9932   2.041   2.782  21.236
   34ARHM    O3 9933   1.929   2.832  21.402
   34ARHM   HO3 9934   1.876   2.878  21.336
   34ARHM    C4 9935   1.957   2.604  21.316
   34ARHM    H4 9936   1.939   2.555  21.415
   34ARHM    O4 9937   1.832   2.611  21.249
   34ARHM   HO4 9938   1.765   2.650  21.308
   34ARHM    C6 9939   1.997   2.373  21.214
   34ARHM   H61 9940   1.979   2.319  21.305
   34ARHM   H62 9941   1.897   2.384  21.167
   34ARHM   H63 9942   2.060   2.309  21.150
   35ARHM    C1 9943   2.230   2.668  21.642
   35ARHM    H1 9944   2.309   2.744  21.621
   35ARHM    C5 9945   2.191   2.433  21.658
   35ARHM    H5 9946   2.106   2.440  21.587
   35ARHM    O5 9947   2.286   2.537  21.631
   35ARHM    C2 9948   2.186   2.680  21.786
   35ARHM    H2 9949   2.151   2.781  21.804
   35ARHM    O2 9950   2.293   2.666  21.879
   35ARHM    C3 9951   2.078   2.580  21.819
   35ARHM    H3 9952   1.992   2.592  21.748
   35ARHM    O3 9953   2.023   2.601  21.948
   35ARHM   HO3 9954   2.088   2.635  22.010
   35ARHM    C4 9955   2.138   2.443  21.800
   35ARHM    H4 9956   2.225   2.432  21.870
   35ARHM    O4 9957   2.044   2.340  21.828
   35ARHM   HO4 9958   1.956   2.363  21.797
   35ARHM    C6 9959   2.259   2.300  21.625
   35ARHM   H61 9960   2.279   2.293  21.517
   35ARHM   H62 9961   2.354   2.287  21.680
   35ARHM   H63 9962   2.189   2.218  21.647
   36BMANN   C1 9963   2.380   2.775  21.888
   36BMANN   H1 9964   2.331   2.869  21.862
   36BMANN   C5 9965   2.576   2.874  21.809
   36BMANN   H5 9966   2.519   2.966  21.780
   36BMANN   O5 9967   2.492   2.759  21.803
   36BMANN   C2 9968   2.422   2.789  22.031
   36BMANN   H2 9969   2.328   2.813  22.086
   36BMANN    N 9970   2.485   2.671  22.086
   36BMANN   HN 9971   2.546   2.621  22.026
   36BMANN    C 9972   2.476   2.644  22.217
   36BMANN    O 9973   2.406   2.708  22.293
   36BMANN   CT 9974   2.561   2.532  22.270
   36BMANN  HT1 9975   2.658   2.540  22.223
   36BMANN  HT2 9976   2.518   2.433  22.249
   36BMANN  HT3 9977   2.575   2.544  22.380
   36BMANN   C3 9978   2.510   2.910  22.040
   36BMANN   H3 9979   2.452   2.993  21.995
   36BMANN   O3 9980   2.548   2.942  22.173
   36BMANN  HO3 9981   2.513   3.029  22.198
   36BMANN   C4 9982   2.627   2.895  21.951
   36BMANN   H4 9983   2.694   2.812  21.982
   36BMANN   O4 9984   2.700   3.014  21.963
   36BMANN  HO4 9985   2.726   3.016  22.057
   36BMANN   C6 9986   2.678   2.846  21.705
   36BMANN  H61 9987   2.643   2.834  21.601
   36BMANN  H62 9988   2.719   2.937  21.675
   36BMANN   O6 9989   2.780   2.755  21.749
   36BMANN  HO6 9990   2.851   2.801  21.798
    1ECLIP HB6S 9991   6.457   3.790  11.778
    1ECLIP  OB6 9992   6.614   3.816  11.909
    1ECLIP  CB6 9993   6.529   3.871  11.806
    1ECLIP HB6R 9994   6.470   3.957  11.846
    1ECLIP  CB5 9995   6.600   3.920  11.680
    1ECLIP  OB5 9996   6.678   3.808  11.633
    1ECLIP  HB5 9997   6.666   4.003  11.710
    1ECLIP  CB1 9998   6.752   3.838  11.514
    1ECLIP  HB1 9999   6.819   3.926  11.532
    1ECLIP  OA610000   6.834   3.732  11.471
    1ECLIP  CA610001   6.778   3.601  11.491
    1ECLIP HA6R10002   6.668   3.602  11.510
    1ECLIP HA6S10003   6.830   3.556  11.579
    1ECLIP  CB410004   6.502   3.968  11.570
    1ECLIP  HB410005   6.428   3.889  11.542
    1ECLIP  OB410006   6.440   4.089  11.619
    1ECLIP   PB10007   6.280   4.093  11.667
    1ECLIP OPB410008   6.265   4.189  11.787
    1ECLIP OPB310009   6.256   3.947  11.706
    1ECLIP OPB210010   6.198   4.141  11.546
    1ECLIP  CB310011   6.583   4.001  11.445
    1ECLIP  OB310012   6.504   4.037  11.330
    1ECLIP  HB310013   6.660   4.078  11.470
    1ECLIP  C7110014   6.471   4.164  11.313
    1ECLIP  O7110015   6.533   4.256  11.364
    1ECLIP  C7210016   6.403   4.176  11.174
    1ECLIP H72R10017   6.468   4.132  11.096
    1ECLIP H72S10018   6.385   4.283  11.153
    1ECLIP  CB210019   6.659   3.877  11.403
    1ECLIP  HB210020   6.585   3.793  11.388
    1ECLIP  NB210021   6.736   3.902  11.281
    1ECLIP HNB210022   6.828   3.936  11.294
    1ECLIP  CA410023   6.944   3.532  11.315
    1ECLIP  HA410024   6.952   3.640  11.287
    1ECLIP  OA410025   7.039   3.505  11.417
    1ECLIP HOA410026   7.004   3.545  11.496
    1ECLIP  CA510027   6.804   3.514  11.369
    1ECLIP  HA510028   6.779   3.408  11.393
    1ECLIP  OA510029   6.715   3.562  11.268
    1ECLIP  CA110030   6.723   3.487  11.146
    1ECLIP  HA110031   6.661   3.549  11.078
    1ECLIP  OA110032   6.671   3.356  11.153
    1ECLIP OPA210033   6.528   3.256  11.341
    1ECLIP OPA310034   6.442   3.465  11.230
    1ECLIP OPA410035   6.438   3.256  11.109
    1ECLIP   PA10036   6.516   3.334  11.211
    1ECLIP  CA310037   6.966   3.452  11.189
    1ECLIP  HA310038   6.955   3.343  11.211
    1ECLIP  OA310039   7.103   3.477  11.152
    1ECLIP  C3110040   7.128   3.591  11.086
    1ECLIP  O3110041   7.128   3.597  10.965
    1ECLIP  C3210042   7.228   3.672  11.167
    1ECLIP H32R10043   7.322   3.658  11.111
    1ECLIP H32S10044   7.249   3.628  11.266
    1ECLIP  CA210045   6.862   3.499  11.087
    1ECLIP  HA210046   6.876   3.609  11.070
    1ECLIP  NA210047   6.874   3.429  10.959
    1ECLIP HNA210048   6.956   3.374  10.948
    1ECLIP  C7310049   6.269   4.099  11.171
    1ECLIP H73R10050   6.213   4.125  11.264
    1ECLIP  O7310051   6.303   3.960  11.163
    1ECLIP  C8110052   6.228   3.873  11.230
    1ECLIP  O8110053   6.125   3.903  11.289
    1ECLIP  C8210054   6.257   3.732  11.171
    1ECLIP H82R10055   6.195   3.657  11.223
    1ECLIP H82S10056   6.363   3.707  11.192
    1ECLIP  C8310057   6.234   3.723  11.018
    1ECLIP H83R10058   6.324   3.765  10.966
    1ECLIP H83S10059   6.147   3.785  10.990
    1ECLIP  C8410060   6.218   3.580  10.966
    1ECLIP H84R10061   6.120   3.536  10.995
    1ECLIP H84S10062   6.301   3.519  11.012
    1ECLIP  C8510063   6.239   3.571  10.814
    1ECLIP H85R10064   6.326   3.636  10.791
    1ECLIP H85S10065   6.151   3.613  10.760
    1ECLIP  C8610066   6.277   3.431  10.765
    1ECLIP H86R10067   6.181   3.384  10.734
    1ECLIP H86S10068   6.321   3.371  10.849
    1ECLIP  C8710069   6.381   3.429  10.652
    1ECLIP H87R10070   6.397   3.325  10.616
    1ECLIP H87S10071   6.478   3.464  10.694
    1ECLIP  C8810072   6.343   3.524  10.538
    1ECLIP H88R10073   6.362   3.628  10.571
    1ECLIP H88S10074   6.233   3.518  10.524
    1ECLIP  C8910075   6.421   3.497  10.408
    1ECLIP H89R10076   6.515   3.440  10.426
    1ECLIP H89S10077   6.452   3.593  10.362
    1ECLIP C81010078   6.331   3.426  10.306
    1ECLIPH810R10079   6.227   3.457  10.329
    1ECLIPH810S10080   6.339   3.316  10.323
    1ECLIP C81110081   6.364   3.460  10.160
    1ECLIPH811R10082   6.323   3.383  10.091
    1ECLIPH811S10083   6.474   3.463  10.152
    1ECLIP C81210084   6.314   3.597  10.111
    1ECLIPH812R10085   6.355   3.612  10.009
    1ECLIPH812S10086   6.352   3.677  10.178
    1ECLIP C81310087   6.162   3.615  10.105
    1ECLIPH813R10088   6.122   3.533  10.044
    1ECLIPH813S10089   6.113   3.599  10.203
    1ECLIP C81410090   6.122   3.753  10.051
    1ECLIPH814R10091   6.179   3.782   9.959
    1ECLIPH814S10092   6.141   3.830  10.129
    1ECLIPH814T10093   6.014   3.754  10.026
    1ECLIP  C7410094   6.179   4.128  11.049
    1ECLIP H74R10095   6.146   4.234  11.040
    1ECLIP H74S10096   6.086   4.069  11.068
    1ECLIP  C7510097   6.235   4.078  10.914
    1ECLIP H75R10098   6.149   4.039  10.855
    1ECLIP H75S10099   6.303   3.992  10.933
    1ECLIP  C7610100   6.312   4.182  10.833
    1ECLIP H76R10101   6.414   4.195  10.876
    1ECLIP H76S10102   6.262   4.282  10.836
    1ECLIP  C7710103   6.331   4.147  10.685
    1ECLIP H77R10104   6.230   4.147  10.637
    1ECLIP H77S10105   6.369   4.045  10.669
    1ECLIP  C7810106   6.437   4.244  10.629
    1ECLIP H78R10107   6.403   4.347  10.654
    1ECLIP H78S10108   6.531   4.226  10.683
    1ECLIP  C7910109   6.477   4.229  10.482
    1ECLIP H79R10110   6.561   4.161  10.461
    1ECLIP H79S10111   6.494   4.327  10.428
    1ECLIP C71010112   6.361   4.181  10.407
    1ECLIPH710R10113   6.316   4.085  10.439
    1ECLIPH710S10114   6.297   4.266  10.447
    1ECLIP C71110115   6.401   4.159  10.258
    1ECLIPH711R10116   6.440   4.246  10.200
    1ECLIPH711S10117   6.467   4.073  10.239
    1ECLIP C71210118   6.274   4.130  10.184
    1ECLIPH712R10119   6.244   4.233  10.225
    1ECLIPH712S10120   6.230   4.043  10.237
    1ECLIP C71310121   6.294   4.072  10.039
    1ECLIPH713R10122   6.365   3.985  10.038
    1ECLIPH713S10123   6.205   4.022   9.994
    1ECLIP C71410124   6.336   4.168   9.929
    1ECLIPH714R10125   6.257   4.244   9.915
    1ECLIPH714S10126   6.432   4.214   9.959
    1ECLIPH714T10127   6.350   4.118   9.830
    1ECLIP  C5110128   6.683   3.886  11.160
    1ECLIP  O5110129   6.579   3.825  11.143
    1ECLIP  C5210130   6.752   3.951  11.042
    1ECLIP H52R10131   6.715   4.055  11.032
    1ECLIP H52S10132   6.861   3.956  11.062
    1ECLIP  C5310133   6.725   3.872  10.913
    1ECLIP H53R10134   6.719   3.763  10.935
    1ECLIP  O5310135   6.832   3.905  10.822
    1ECLIP  C6110136   6.918   3.809  10.788
    1ECLIP  O6110137   6.914   3.694  10.823
    1ECLIP  C6210138   7.026   3.867  10.695
    1ECLIP H62R10139   7.103   3.917  10.757
    1ECLIP H62S10140   6.976   3.947  10.637
    1ECLIP  C6310141   7.091   3.757  10.606
    1ECLIP H63R10142   7.010   3.695  10.564
    1ECLIP H63S10143   7.156   3.691  10.669
    1ECLIP  C6410144   7.175   3.807  10.487
    1ECLIP H64R10145   7.222   3.721  10.435
    1ECLIP H64S10146   7.254   3.872  10.528
    1ECLIP  C6510147   7.086   3.885  10.389
    1ECLIP H65R10148   7.051   3.971  10.451
    1ECLIP H65S10149   6.999   3.824  10.358
    1ECLIP  C6610150   7.149   3.944  10.262
    1ECLIP H66R10151   7.231   4.012  10.287
    1ECLIP H66S10152   7.070   4.007  10.215
    1ECLIP  C6710153   7.196   3.847  10.154
    1ECLIP H67R10154   7.267   3.770  10.193
    1ECLIP H67S10155   7.247   3.903  10.071
    1ECLIP  C6810156   7.087   3.768  10.088
    1ECLIP H68R10157   7.004   3.830  10.048
    1ECLIP H68S10158   7.048   3.699  10.165
    1ECLIP  C6910159   7.144   3.697   9.970
    1ECLIP H69R10160   7.251   3.666   9.977
    1ECLIP H69S10161   7.143   3.772   9.889
    1ECLIP C61010162   7.058   3.578   9.943
    1ECLIPH610R10163   6.949   3.597   9.946
    1ECLIPH610S10164   7.084   3.492  10.010
    1ECLIP C61110165   7.095   3.540   9.807
    1ECLIPH611R10166   7.202   3.518   9.829
    1ECLIPH611S10167   7.043   3.442   9.791
    1ECLIP C61210168   7.094   3.642   9.689
    1ECLIPH612R10169   6.998   3.668   9.656
    1ECLIPH612S10170   7.108   3.746   9.711
    1ECLIPH612T10171   7.126   3.612   9.588
    1ECLIP  C5410172   6.591   3.922  10.853
    1ECLIP H54R10173   6.604   4.028  10.824
    1ECLIP H54S10174   6.514   3.918  10.934
    1ECLIP  C5510175   6.535   3.843  10.733
    1ECLIP H55R10176   6.428   3.868  10.719
    1ECLIP H55S10177   6.539   3.735  10.757
    1ECLIP  C5610178   6.611   3.883  10.606
    1ECLIP H56R10179   6.719   3.865  10.622
    1ECLIP H56S10180   6.598   3.992  10.587
    1ECLIP  C5710181   6.579   3.807  10.477
    1ECLIP H57R10182   6.470   3.809  10.454
    1ECLIP H57S10183   6.607   3.700  10.491
    1ECLIP  C5810184   6.662   3.866  10.363
    1ECLIP H58R10185   6.656   3.977  10.359
    1ECLIP H58S10186   6.769   3.843  10.383
    1ECLIP  C5910187   6.617   3.811  10.228
    1ECLIP H59R10188   6.509   3.832  10.209
    1ECLIP H59S10189   6.630   3.701  10.234
    1ECLIP C51010190   6.691   3.870  10.110
    1ECLIPH510R10191   6.800   3.881  10.122
    1ECLIPH510S10192   6.651   3.974  10.088
    1ECLIP C51110193   6.674   3.774   9.991
    1ECLIPH511R10194   6.737   3.687   9.987
    1ECLIPH511S10195   6.563   3.755   9.971
    1ECLIP C51210196   6.729   3.828   9.862
    1ECLIPH512R10197   6.636   3.817   9.802
    1ECLIPH512S10198   6.682   3.902   9.910
    1ECLIP C51310199   6.878   3.896   9.826
    1ECLIPH513R10200   6.922   3.798   9.805
    1ECLIPH513S10201   6.918   3.947   9.913
    1ECLIP C51410202   6.944   3.991   9.707
    1ECLIPH514R10203   6.895   4.088   9.691
    1ECLIPH514S10204   7.050   3.999   9.693
    1ECLIPH514T10205   6.941   3.953   9.603
    1ECLIP  C3310206   7.192   3.821  11.183
    1ECLIP H33R10207   7.280   3.875  11.225
    1ECLIP  O3310208   7.096   3.837  11.284
    1ECLIP HO3310209   7.135   3.828  11.371
    1ECLIP  C3410210   7.140   3.894  11.056
    1ECLIP H34R10211   7.046   3.850  11.020
    1ECLIP H34S10212   7.205   3.882  10.966
    1ECLIP  C3510213   7.123   4.044  11.079
    1ECLIP H35R10214   7.218   4.089  11.109
    1ECLIP H35S10215   7.053   4.063  11.163
    1ECLIP  C3610216   7.073   4.109  10.952
    1ECLIP H36R10217   7.018   4.034  10.896
    1ECLIP H36S10218   7.152   4.154  10.887
    1ECLIP  C3710219   6.960   4.202  10.984
    1ECLIP H37R10220   7.007   4.299  10.975
    1ECLIP H37S10221   6.915   4.194  11.084
    1ECLIP  C3810222   6.854   4.219  10.886
    1ECLIP H38R10223   6.770   4.155  10.875
    1ECLIP H38S10224   6.794   4.299  10.932
    1ECLIP  C3910225   6.920   4.233  10.754
    1ECLIP H39R10226   7.000   4.163  10.727
    1ECLIP H39S10227   6.980   4.329  10.770
    1ECLIP C31010228   6.823   4.200  10.633
    1ECLIPH310R10229   6.790   4.297  10.625
    1ECLIPH310S10230   6.717   4.181  10.644
    1ECLIP C31110231   6.876   4.184  10.489
    1ECLIPH311R10232   6.985   4.207  10.502
    1ECLIPH311S10233   6.887   4.083  10.455
    1ECLIP C31210234   6.793   4.242  10.367
    1ECLIPH312R10235   6.694   4.287  10.384
    1ECLIPH312S10236   6.801   4.343  10.331
    1ECLIP C31310237   6.851   4.193  10.238
    1ECLIPH313R10238   6.955   4.235  10.221
    1ECLIPH313S10239   6.856   4.088  10.251
    1ECLIP C31410240   6.761   4.221  10.122
    1ECLIPH314R10241   6.815   4.312  10.120
    1ECLIPH314S10242   6.789   4.199  10.018
    1ECLIPH314T10243   6.656   4.252  10.142
    1ECLIP  C1110244   6.780   3.419  10.862
    1ECLIP  O1110245   6.685   3.495  10.846
    1ECLIP  C1210246   6.799   3.302  10.769
    1ECLIP H12R10247   6.723   3.224  10.792
    1ECLIP H12S10248   6.900   3.260  10.787
    1ECLIP  C1310249   6.791   3.341  10.622
    1ECLIP H13R10250   6.706   3.411  10.601
    1ECLIP  O1310251   6.767   3.221  10.548
    1ECLIP HO1310252   6.722   3.234  10.464
    1ECLIP  C1410253   6.923   3.407  10.580
    1ECLIP H14R10254   7.009   3.358  10.632
    1ECLIP H14S10255   6.917   3.513  10.614
    1ECLIP  C1510256   6.954   3.409  10.431
    1ECLIP H15R10257   6.951   3.305  10.393
    1ECLIP H15S10258   7.058   3.446  10.419
    1ECLIP  C1610259   6.856   3.499  10.354
    1ECLIP H16R10260   6.885   3.605  10.364
    1ECLIP H16S10261   6.755   3.491  10.401
    1ECLIP  C1710262   6.851   3.460  10.206
    1ECLIP H17R10263   6.957   3.445  10.175
    1ECLIP H17S10264   6.808   3.540  10.143
    1ECLIP  C1810265   6.772   3.331  10.184
    1ECLIP H18R10266   6.819   3.252  10.247
    1ECLIP H18S10267   6.666   3.345  10.215
    1ECLIP  C1910268   6.776   3.284  10.041
    1ECLIP H19R10269   6.731   3.182  10.031
    1ECLIP H19S10270   6.880   3.280  10.002
    1ECLIP C11010271   6.697   3.374   9.950
    1ECLIPH110R10272   6.593   3.393   9.985
    1ECLIPH110S10273   6.748   3.473   9.951
    1ECLIP C11110274   6.699   3.303   9.814
    1ECLIPH111R10275   6.800   3.281   9.779
    1ECLIPH111S10276   6.640   3.211   9.823
    1ECLIP C11210277   6.630   3.379   9.707
    1ECLIPH112R10278   6.577   3.420   9.782
    1ECLIPH112S10279   6.611   3.490   9.694
    1ECLIP C11310280   6.644   3.324   9.575
    1ECLIPH113R10281   6.752   3.332   9.549
    1ECLIPH113S10282   6.641   3.220   9.561
    1ECLIP C11410283   6.557   3.385   9.478
    1ECLIPH114R10284   6.450   3.412   9.487
    1ECLIPH114S10285   6.576   3.475   9.466
    1ECLIPH114T10286   6.589   3.358   9.376
    2AKDO    C110287   6.700   4.027  11.978
    2AKDO   O1110288   6.633   4.133  11.978
    2AKDO   O1210289   6.821   4.012  11.944
    2AKDO    C210290   6.625   3.899  12.024
    2AKDO    C610291   6.422   3.819  12.123
    2AKDO    H610292   6.417   3.760  12.029
    2AKDO    O610293   6.497   3.933  12.084
    2AKDO    C310294   6.703   3.818  12.129
    2AKDO   H3110295   6.729   3.884  12.215
    2AKDO   H3210296   6.798   3.784  12.082
    2AKDO    C410297   6.628   3.698  12.174
    2AKDO    H410298   6.603   3.635  12.084
    2AKDO    O410299   6.698   3.624  12.274
    2AKDO    C510300   6.495   3.739  12.233
    2AKDO    H510301   6.437   3.645  12.249
    2AKDO    O510302   6.521   3.803  12.362
    2AKDO    C710303   6.278   3.856  12.153
    2AKDO    H710304   6.280   3.918  12.245
    2AKDO    O710305   6.197   3.739  12.176
    2AKDO   HO710306   6.169   3.711  12.087
    2AKDO    C810307   6.218   3.937  12.040
    2AKDO   H8110308   6.285   4.024  12.022
    2AKDO   H8210309   6.219   3.876  11.946
    2AKDO    O810310   6.085   3.986  12.073
    2AKDO   HO810311   6.078   4.062  12.016
    3AKDO    C110312   6.757   3.449  12.116
    3AKDO   O1110313   6.811   3.477  12.004
    3AKDO   O1210314   6.678   3.355  12.145
    3AKDO    C210315   6.802   3.535  12.237
    3AKDO    C610316   6.971   3.689  12.315
    3AKDO    H610317   6.893   3.767  12.334
    3AKDO    O610318   6.927   3.602  12.207
    3AKDO    C310319   6.823   3.457  12.369
    3AKDO   H3110320   6.902   3.381  12.352
    3AKDO   H3210321   6.730   3.402  12.396
    3AKDO    C410322   6.864   3.550  12.479
    3AKDO    H410323   6.789   3.632  12.485
    3AKDO    O410324   6.869   3.488  12.606
    3AKDO   HO410325   6.812   3.535  12.669
    3AKDO    C510326   6.995   3.610  12.441
    3AKDO    H510327   7.026   3.677  12.524
    3AKDO    O510328   7.096   3.511  12.423
    3AKDO   HO510329   7.060   3.450  12.358
    3AKDO    C710330   7.095   3.762  12.272
    3AKDO    H710331   7.175   3.686  12.251
    3AKDO    O710332   7.137   3.848  12.377
    3AKDO   HO710333   7.224   3.881  12.350
    3AKDO    C810334   7.064   3.842  12.147
    3AKDO   H8110335   7.019   3.777  12.070
    3AKDO   H8210336   6.991   3.923  12.169
    3AKDO    O810337   7.184   3.897  12.093
    3AKDO   HO810338   7.230   3.823  12.056
    4AHEP    C110339   6.422   3.784  12.461
    4AHEP    H110340   6.339   3.851  12.427
    4AHEP    C510341   6.445   3.556  12.537
    4AHEP    H510342   6.546   3.559  12.489
    4AHEP    O510343   6.364   3.654  12.466
    4AHEP    C210344   6.446   3.830  12.607
    4AHEP    H210345   6.497   3.928  12.605
    4AHEP    O210346   6.321   3.851  12.671
    4AHEP   HO210347   6.327   3.928  12.727
    4AHEP    C310348   6.534   3.734  12.686
    4AHEP    H310349   6.637   3.729  12.646
    4AHEP    O310350   6.540   3.775  12.824
    4AHEP    C410351   6.467   3.597  12.683
    4AHEP    H410352   6.367   3.598  12.734
    4AHEP    O410353   6.557   3.504  12.742
    4AHEP    P410354   6.522   3.424  12.886
    4AHEP  OP4210355   6.660   3.406  12.950
    4AHEP  OP4310356   6.452   3.292  12.847
    4AHEP  OP4410357   6.432   3.518  12.964
    4AHEP    C610358   6.382   3.417  12.513
    4AHEP    H610359   6.461   3.343  12.541
    4AHEP    O610360   6.265   3.386  12.594
    4AHEP   HO610361   6.293   3.323  12.663
    4AHEP    C710362   6.343   3.404  12.362
    4AHEP   H7110363   6.335   3.308  12.316
    4AHEP   H7210364   6.427   3.435  12.299
    4AHEP    O710365   6.216   3.460  12.324
    4AHEP   HO710366   6.156   3.403  12.373
    5AHEP    C110367   6.664   3.804  12.883
    5AHEP    H110368   6.744   3.743  12.835
    5AHEP    C510369   6.596   4.028  12.932
    5AHEP    H510370   6.496   3.998  12.895
    5AHEP    O510371   6.694   3.944  12.866
    5AHEP    C210372   6.664   3.773  13.033
    5AHEP    H210373   6.633   3.666  13.045
    5AHEP    O210374   6.798   3.786  13.085
    5AHEP   HO210375   6.832   3.698  13.100
    5AHEP    C310376   6.562   3.859  13.109
    5AHEP    H310377   6.461   3.837  13.068
    5AHEP    O310378   6.561   3.838  13.252
    5AHEP    C410379   6.597   4.004  13.083
    5AHEP    H410380   6.700   4.025  13.121
    5AHEP    O410381   6.496   4.088  13.141
    5AHEP    P410382   6.539   4.191  13.264
    5AHEP  OP4210383   6.401   4.236  13.316
    5AHEP  OP4310384   6.621   4.300  13.196
    5AHEP  OP4410385   6.624   4.108  13.361
    5AHEP    C610386   6.620   4.175  12.894
    5AHEP    H610387   6.540   4.237  12.942
    5AHEP    O610388   6.750   4.218  12.941
    5AHEP   HO610389   6.815   4.193  12.876
    5AHEP    C710390   6.602   4.195  12.745
    5AHEP   H7110391   6.554   4.294  12.729
    5AHEP   H7210392   6.533   4.121  12.699
    5AHEP    O710393   6.729   4.203  12.681
    6AHEP    C110394   6.762   4.083  12.619
    6AHEP    H110395   6.694   4.000  12.643
    6AHEP    C510396   6.838   4.194  12.430
    6AHEP    H510397   6.816   4.287  12.489
    6AHEP    O510398   6.748   4.097  12.480
    6AHEP    C210399   6.901   4.041  12.663
    6AHEP    H210400   6.901   4.030  12.773
    6AHEP    O210401   6.934   3.912  12.612
    6AHEP   HO210402   6.937   3.851  12.686
    6AHEP    C310403   7.003   4.144  12.625
    6AHEP    H310404   6.976   4.243  12.672
    6AHEP    O310405   7.139   4.114  12.666
    6AHEP   HO310406   7.176   4.179  12.727
    6AHEP    C410407   6.973   4.146  12.475
    6AHEP    H410408   7.000   4.048  12.437
    6AHEP    O410409   7.062   4.167  12.383
    6AHEP   HO410410   7.050   4.257  12.420
    6AHEP    C610411   6.825   4.232  12.279
    6AHEP    H610412   6.894   4.310  12.242
    6AHEP    O610413   6.875   4.132  12.192
    6AHEP   HO610414   6.809   4.115  12.124
    6AHEP    C710415   6.685   4.287  12.250
    6AHEP   H7110416   6.682   4.331  12.148
    6AHEP   H7210417   6.661   4.368  12.323
    6AHEP    O710418   6.583   4.189  12.264
    6AHEP   HO710419   6.572   4.174  12.358
    7AGLC    C110420   6.469   3.745  13.302
    7AGLC    H110421   6.370   3.757  13.252
    7AGLC    C510422   6.639   3.583  13.346
    7AGLC    H510423   6.715   3.660  13.319
    7AGLC    O510424   6.516   3.612  13.279
    7AGLC    C210425   6.443   3.752  13.453
    7AGLC    H210426   6.381   3.664  13.479
    7AGLC    O210427   6.364   3.864  13.492
    7AGLC   HO210428   6.425   3.940  13.489
    7AGLC    C310429   6.570   3.733  13.534
    7AGLC    H310430   6.645   3.807  13.497
    7AGLC    O310431   6.550   3.754  13.677
    7AGLC    C410432   6.618   3.593  13.497
    7AGLC    H410433   6.541   3.517  13.529
    7AGLC    O410434   6.741   3.565  13.563
    7AGLC   HO410435   6.743   3.478  13.603
    7AGLC    C610436   6.691   3.451  13.287
    7AGLC   H6110437   6.701   3.467  13.177
    7AGLC   H6210438   6.792   3.425  13.325
    7AGLC    O610439   6.606   3.338  13.307
    7AGLC   HO610440   6.627   3.305  13.394
    8AGLC    C110441   6.629   3.861  13.729
    8AGLC    H110442   6.732   3.855  13.687
    8AGLC    C510443   6.449   4.027  13.758
    8AGLC    H510444   6.376   3.950  13.725
    8AGLC    O510445   6.575   3.992  13.696
    8AGLC    C210446   6.644   3.853  13.880
    8AGLC    H210447   6.715   3.935  13.906
    8AGLC    O210448   6.700   3.731  13.931
    8AGLC    C310449   6.513   3.879  13.949
    8AGLC    H310450   6.442   3.802  13.908
    8AGLC    O310451   6.530   3.855  14.091
    8AGLC    C410452   6.466   4.017  13.909
    8AGLC    H410453   6.545   4.090  13.940
    8AGLC    O410454   6.345   4.052  13.975
    8AGLC   HO410455   6.289   3.975  13.978
    8AGLC    C610456   6.390   4.162  13.711
    8AGLC   H6110457   6.394   4.172  13.599
    8AGLC   H6210458   6.282   4.167  13.738
    8AGLC    O610459   6.451   4.278  13.772
    8AGLC   HO610460   6.410   4.288  13.857
    9AGAL    C110461   6.825   3.691  13.880
    9AGAL    H110462   6.824   3.694  13.769
    9AGAL    C510463   6.955   3.765  14.065
    9AGAL    H510464   6.856   3.785  14.111
    9AGAL    O510465   6.935   3.774  13.923
    9AGAL    C210466   6.847   3.546  13.920
    9AGAL    H210467   6.943   3.515  13.873
    9AGAL    O210468   6.742   3.467  13.857
    9AGAL    C310469   6.867   3.536  14.069
    9AGAL    H310470   6.776   3.571  14.124
    9AGAL    O310471   6.884   3.402  14.110
    9AGAL   HO310472   6.824   3.350  14.055
    9AGAL    C410473   6.988   3.622  14.105
    9AGAL    H410474   7.004   3.618  14.215
    9AGAL    O410475   7.109   3.578  14.043
    9AGAL   HO410476   7.181   3.601  14.101
    9AGAL    C610477   7.047   3.874  14.121
    9AGAL   H6110478   7.005   3.974  14.097
    9AGAL   H6210479   7.049   3.866  14.232
    9AGAL    O610480   7.183   3.869  14.076
    9AGAL   HO610481   7.190   3.930  14.001
   10AGAL    C110482   6.674   3.355  13.912
   10AGAL    H110483   6.745   3.270  13.920
   10AGAL    C510484   6.508   3.477  14.041
   10AGAL    H510485   6.557   3.568  14.001
   10AGAL    O510486   6.612   3.375  14.042
   10AGAL    C210487   6.565   3.316  13.812
   10AGAL    H210488   6.518   3.222  13.849
   10AGAL    O210489   6.617   3.278  13.684
   10AGAL   HO210490   6.574   3.194  13.662
   10AGAL    C310491   6.458   3.426  13.806
   10AGAL    H310492   6.510   3.521  13.780
   10AGAL    O310493   6.357   3.405  13.708
   10AGAL   HO310494   6.367   3.466  13.635
   10AGAL    C410495   6.397   3.441  13.944
   10AGAL    H410496   6.323   3.524  13.944
   10AGAL    O410497   6.329   3.323  13.984
   10AGAL   HO410498   6.397   3.256  13.997
   10AGAL    C610499   6.457   3.521  14.179
   10AGAL   H6110500   6.543   3.541  14.246
   10AGAL   H6210501   6.402   3.617  14.165
   10AGAL    O610502   6.371   3.428  14.246
   10AGAL   HO610503   6.408   3.399  14.330
   11BGLC    C110504   6.558   3.957  14.184
   11BGLC    H110505   6.468   4.020  14.198
   11BGLC    C510506   6.708   4.133  14.252
   11BGLC    H510507   6.624   4.203  14.279
   11BGLC    O510508   6.673   4.036  14.149
   11BGLC    C210509   6.591   3.886  14.316
   11BGLC    H210510   6.679   3.818  14.300
   11BGLC    O210511   6.482   3.804  14.356
   11BGLC   HO210512   6.511   3.714  14.367
   11BGLC    C310513   6.629   3.980  14.428
   11BGLC    H310514   6.542   4.045  14.454
   11BGLC    O310515   6.674   3.904  14.543
   11BGLC    C410516   6.747   4.061  14.380
   11BGLC    H410517   6.831   3.992  14.355
   11BGLC    O410518   6.792   4.148  14.481
   11BGLC   HO410519   6.835   4.097  14.551
   11BGLC    C610520   6.811   4.217  14.186
   11BGLC   H6110521   6.869   4.280  14.259
   11BGLC   H6210522   6.888   4.164  14.126
   11BGLC    O610523   6.731   4.297  14.098
   11BGLC   HO610524   6.758   4.384  14.133
   12BGLCN   C110525   6.612   3.927  14.668
   12BGLCN   H110526   6.518   3.868  14.673
   12BGLCN   C510527   6.525   4.082  14.824
   12BGLCN   H510528   6.429   4.025  14.833
   12BGLCN   O510529   6.585   4.064  14.694
   12BGLCN   C210530   6.712   3.876  14.771
   12BGLCN   H210531   6.800   3.946  14.766
   12BGLCN    N10532   6.749   3.740  14.741
   12BGLCN   HN10533   6.673   3.676  14.733
   12BGLCN    C10534   6.876   3.702  14.728
   12BGLCN    O10535   6.969   3.779  14.745
   12BGLCN   CT10536   6.901   3.558  14.691
   12BGLCN  HT110537   6.947   3.504  14.776
   12BGLCN  HT210538   6.975   3.551  14.608
   12BGLCN  HT310539   6.806   3.510  14.660
   12BGLCN   C310540   6.657   3.887  14.912
   12BGLCN   H310541   6.564   3.824  14.917
   12BGLCN   O310542   6.749   3.835  15.013
   12BGLCN   C410543   6.623   4.034  14.931
   12BGLCN   H410544   6.714   4.096  14.923
   12BGLCN   O410545   6.572   4.056  15.061
   12BGLCN  HO410546   6.484   4.018  15.067
   12BGLCN   C610547   6.490   4.230  14.832
   12BGLCN  H6110548   6.445   4.256  14.929
   12BGLCN  H6210549   6.584   4.289  14.820
   12BGLCN   O610550   6.400   4.268  14.728
   12BGLCN  HO610551   6.309   4.251  14.752
   13AGAL    C110552   6.689   3.762  15.120
   13AGAL    H110553   6.595   3.813  15.151
   13AGAL    C510554   6.786   3.549  15.063
   13AGAL    H510555   6.846   3.609  14.991
   13AGAL    O510556   6.664   3.624  15.083
   13AGAL    C210557   6.775   3.753  15.247
   13AGAL    H210558   6.718   3.686  15.317
   13AGAL    O210559   6.785   3.882  15.311
   13AGAL    C310560   6.906   3.680  15.226
   13AGAL    H310561   6.959   3.725  15.139
   13AGAL    O310562   6.995   3.688  15.337
   13AGAL   HO310563   7.085   3.703  15.304
   13AGAL    C410564   6.873   3.538  15.188
   13AGAL    H410565   6.968   3.487  15.160
   13AGAL    O410566   6.815   3.461  15.295
   13AGAL   HO410567   6.746   3.512  15.337
   13AGAL    C610568   6.771   3.416  14.992
   13AGAL   H6110569   6.715   3.432  14.897
   13AGAL   H6210570   6.873   3.378  14.967
   13AGAL    O610571   6.704   3.318  15.069
   13AGAL   HO610572   6.766   3.275  15.132
   14ARHM    C110573   6.721   3.896  15.437
   14ARHM    H110574   6.635   3.826  15.442
   14ARHM    C510575   6.776   4.125  15.453
   14ARHM    H510576   6.830   4.114  15.357
   14ARHM    O510577   6.670   4.028  15.456
   14ARHM    C210578   6.819   3.862  15.547
   14ARHM    H210579   6.857   3.759  15.529
   14ARHM    O210580   6.768   3.870  15.681
   14ARHM    C310581   6.932   3.960  15.542
   14ARHM    H310582   6.973   3.963  15.438
   14ARHM    O310583   7.041   3.922  15.625
   14ARHM   HO310584   7.014   3.936  15.716
   14ARHM    C410585   6.875   4.099  15.568
   14ARHM    H410586   6.817   4.103  15.663
   14ARHM    O410587   6.976   4.200  15.573
   14ARHM   HO410588   6.992   4.230  15.663
   14ARHM    C610589   6.712   4.264  15.459
   14ARHM   H6110590   6.623   4.272  15.395
   14ARHM   H6210591   6.686   4.282  15.564
   14ARHM   H6310592   6.782   4.345  15.431
   15ARHM    C110593   6.651   3.798  15.711
   15ARHM    H110594   6.640   3.713  15.640
   15ARHM    C510595   6.526   3.987  15.801
   15ARHM    H510596   6.606   4.062  15.781
   15ARHM    O510597   6.532   3.880  15.705
   15ARHM    C210598   6.665   3.741  15.850
   15ARHM    H210599   6.761   3.684  15.857
   15ARHM    O210600   6.554   3.650  15.867
   15ARHM    C310601   6.669   3.853  15.950
   15ARHM    H310602   6.750   3.924  15.920
   15ARHM    O310603   6.701   3.799  16.077
   15ARHM    C410604   6.538   3.929  15.940
   15ARHM    H410605   6.455   3.856  15.952
   15ARHM    O410606   6.520   4.031  16.038
   15ARHM   HO410607   6.427   4.057  16.027
   15ARHM    C610608   6.391   4.059  15.784
   15ARHM   H6110609   6.383   4.153  15.841
   15ARHM   H6210610   6.375   4.078  15.676
   15ARHM   H6310611   6.308   3.998  15.821
   16BMANN   C110612   6.539   3.578  15.987
   16BMANN   H110613   6.510   3.649  16.068
   16BMANN   C510614   6.637   3.441  16.157
   16BMANN   H510615   6.605   3.518  16.232
   16BMANN   O510616   6.656   3.506  16.029
   16BMANN   C210617   6.424   3.479  15.968
   16BMANN   H210618   6.334   3.539  15.939
   16BMANN    N10619   6.445   3.380  15.863
   16BMANN   HN10620   6.486   3.294  15.890
   16BMANN    C10621   6.407   3.395  15.735
   16BMANN    O10622   6.348   3.494  15.693
   16BMANN   CT10623   6.445   3.280  15.645
   16BMANN  HT110624   6.355   3.222  15.622
   16BMANN  HT210625   6.520   3.213  15.690
   16BMANN  HT310626   6.482   3.318  15.548
   16BMANN   C310627   6.400   3.410  16.101
   16BMANN   H310628   6.375   3.489  16.176
   16BMANN   O310629   6.287   3.323  16.096
   16BMANN  HO310630   6.226   3.345  16.167
   16BMANN   C410631   6.526   3.338  16.148
   16BMANN   H410632   6.554   3.260  16.074
   16BMANN   O410633   6.511   3.269  16.273
   16BMANN  HO410634   6.578   3.201  16.281
   16BMANN   C610635   6.764   3.380  16.213
   16BMANN  H6110636   6.757   3.382  16.324
   16BMANN  H6210637   6.772   3.274  16.180
   16BMANN   O610638   6.883   3.446  16.176
   16BMANN  HO610639   6.938   3.388  16.122
   17BGLCN   C110640   6.793   3.874  16.151
   17BGLCN   H110641   6.769   3.982  16.135
   17BGLCN   C510642   7.023   3.926  16.192
   17BGLCN   H510643   7.007   4.035  16.172
   17BGLCN   O510644   6.929   3.851  16.114
   17BGLCN   C210645   6.768   3.832  16.294
   17BGLCN   H210646   6.797   3.726  16.311
   17BGLCN    N10647   6.626   3.843  16.324
   17BGLCN   HN10648   6.577   3.911  16.272
   17BGLCN    C10649   6.559   3.775  16.418
   17BGLCN    O10650   6.604   3.684  16.485
   17BGLCN   CT10651   6.418   3.823  16.439
   17BGLCN  HT110652   6.342   3.760  16.388
   17BGLCN  HT210653   6.411   3.928  16.404
   17BGLCN  HT310654   6.395   3.824  16.548
   17BGLCN   C310655   6.856   3.921  16.380
   17BGLCN   H310656   6.833   4.025  16.346
   17BGLCN   O310657   6.819   3.910  16.519
   17BGLCN   C410658   7.001   3.892  16.340
   17BGLCN   H410659   7.021   3.783  16.351
   17BGLCN   O410660   7.094   3.963  16.422
   17BGLCN  HO410661   7.185   3.934  16.408
   17BGLCN   C610662   7.165   3.891  16.147
   17BGLCN  H6110663   7.232   3.977  16.146
   17BGLCN  H6210664   7.210   3.817  16.217
   17BGLCN   O610665   7.175   3.842  16.014
   17BGLCN  HO610666   7.139   3.904  15.952
   18AGAL    C110667   6.829   4.027  16.598
   18AGAL    H110668   6.937   4.048  16.617
   18AGAL    C510669   6.628   4.130  16.521
   18AGAL    H510670   6.607   4.031  16.477
   18AGAL    O510671   6.771   4.142  16.534
   18AGAL    C210672   6.760   4.017  16.733
   18AGAL    H210673   6.774   4.119  16.776
   18AGAL    O210674   6.822   3.925  16.824
   18AGAL    C310675   6.608   3.998  16.721
   18AGAL    H310676   6.589   3.912  16.653
   18AGAL    O310677   6.544   3.967  16.845
   18AGAL   HO310678   6.481   3.895  16.833
   18AGAL    C410679   6.553   4.123  16.653
   18AGAL    H410680   6.445   4.110  16.631
   18AGAL    O410681   6.563   4.242  16.730
   18AGAL   HO410682   6.508   4.234  16.808
   18AGAL    C610683   6.581   4.223  16.414
   18AGAL   H6110684   6.632   4.190  16.320
   18AGAL   H6210685   6.471   4.210  16.400
   18AGAL    O610686   6.611   4.360  16.437
   18AGAL   HO610687   6.680   4.366  16.506
   19ARHM    C110688   6.829   3.982  16.953
   19ARHM    H110689   6.743   4.051  16.971
   19ARHM    C510690   7.067   3.987  16.962
   19ARHM    H510691   7.065   3.946  16.858
   19ARHM    O510692   6.946   4.061  16.978
   19ARHM    C210693   6.827   3.866  17.048
   19ARHM    H210694   6.743   3.797  17.023
   19ARHM    O210695   6.809   3.912  17.182
   19ARHM    C310696   6.954   3.786  17.033
   19ARHM    H310697   6.964   3.752  16.927
   19ARHM    O310698   6.945   3.670  17.114
   19ARHM   HO310699   6.932   3.700  17.205
   19ARHM    C410700   7.073   3.874  17.061
   19ARHM    H410701   7.065   3.913  17.165
   19ARHM    O410702   7.197   3.807  17.051
   19ARHM   HO410703   7.209   3.775  16.961
   19ARHM    C610704   7.186   4.083  16.966
   19ARHM   H6110705   7.165   4.156  16.887
   19ARHM   H6210706   7.198   4.137  17.062
   19ARHM   H6310707   7.281   4.030  16.944
   20ARHM    C110708   6.678   3.956  17.207
   20ARHM    H110709   6.609   3.927  17.124
   20ARHM    C510710   6.737   4.147  17.332
   20ARHM    H510711   6.844   4.120  17.318
   20ARHM    O510712   6.663   4.098  17.221
   20ARHM    C210713   6.633   3.885  17.331
   20ARHM    H210714   6.655   3.776  17.321
   20ARHM    O210715   6.493   3.906  17.351
   20ARHM    C310716   6.708   3.935  17.449
   20ARHM    H310717   6.817   3.916  17.433
   20ARHM    O310718   6.662   3.862  17.563
   20ARHM    C410719   6.687   4.083  17.461
   20ARHM    H410720   6.579   4.110  17.470
   20ARHM    O410721   6.756   4.135  17.572
   20ARHM   HO410722   6.773   4.225  17.544
   20ARHM    C610723   6.728   4.301  17.334
   20ARHM   H6110724   6.625   4.340  17.346
   20ARHM   H6210725   6.793   4.341  17.413
   20ARHM   H6310726   6.764   4.340  17.238
   21BMANN   C110727   6.418   3.815  17.277
   21BMANN   H110728   6.486   3.760  17.209
   21BMANN   C510729   6.267   3.781  17.101
   21BMANN   H510730   6.347   3.724  17.047
   21BMANN   O510731   6.328   3.879  17.187
   21BMANN   C210732   6.347   3.719  17.371
   21BMANN   H210733   6.430   3.670  17.430
   21BMANN    N10734   6.254   3.781  17.465
   21BMANN   HN10735   6.200   3.856  17.427
   21BMANN    C10736   6.238   3.745  17.594
   21BMANN    O10737   6.284   3.641  17.639
   21BMANN   CT10738   6.155   3.834  17.684
   21BMANN  HT110739   6.046   3.819  17.664
   21BMANN  HT210740   6.183   3.940  17.667
   21BMANN  HT310741   6.174   3.811  17.791
   21BMANN   C310742   6.284   3.614  17.283
   21BMANN   H310743   6.368   3.564  17.230
   21BMANN   O310744   6.213   3.517  17.358
   21BMANN  HO310745   6.154   3.563  17.418
   21BMANN   C410746   6.191   3.680  17.183
   21BMANN   H410747   6.111   3.730  17.240
   21BMANN   O410748   6.129   3.588  17.094
   21BMANN  HO410749   6.034   3.583  17.105
   21BMANN   C610750   6.182   3.845  16.994
   21BMANN  H6110751   6.156   3.772  16.915
   21BMANN  H6210752   6.085   3.871  17.034
   21BMANN   O610753   6.237   3.965  16.939
   21BMANN  HO610754   6.252   4.025  17.014
   22BGLCN   C110755   6.759   3.832  17.660
   22BGLCN   H110756   6.842   3.907  17.660
   22BGLCN   C510757   6.907   3.669  17.746
   22BGLCN   H510758   6.987   3.747  17.747
   22BGLCN   O510759   6.813   3.701  17.642
   22BGLCN   C210760   6.686   3.838  17.791
   22BGLCN   H210761   6.604   3.761  17.786
   22BGLCN    N10762   6.628   3.969  17.808
   22BGLCN   HN10763   6.682   4.045  17.774
   22BGLCN    C10764   6.513   3.994  17.870
   22BGLCN    O10765   6.443   3.907  17.921
   22BGLCN   CT10766   6.475   4.139  17.878
   22BGLCN  HT110767   6.406   4.158  17.794
   22BGLCN  HT210768   6.564   4.203  17.864
   22BGLCN  HT310769   6.425   4.164  17.974
   22BGLCN   C310770   6.780   3.806  17.905
   22BGLCN   H310771   6.865   3.877  17.902
   22BGLCN   O310772   6.704   3.827  18.025
   22BGLCN   C410773   6.836   3.668  17.881
   22BGLCN   H410774   6.753   3.595  17.877
   22BGLCN   O410775   6.926   3.626  17.983
   22BGLCN  HO410776   6.910   3.535  18.012
   22BGLCN   C610777   6.969   3.535  17.714
   22BGLCN  H6110778   7.016   3.494  17.805
   22BGLCN  H6210779   6.890   3.463  17.682
   22BGLCN   O610780   7.072   3.544  17.616
   22BGLCN  HO610781   7.040   3.584  17.534
   23AGAL    C110782   6.774   3.846  18.145
   23AGAL    H110783   6.812   3.748  18.177
   23AGAL    C510784   6.841   4.073  18.108
   23AGAL    H510785   6.777   4.071  18.017
   23AGAL    O510786   6.884   3.938  18.133
   23AGAL    C210787   6.680   3.891  18.254
   23AGAL    H210788   6.743   3.900  18.346
   23AGAL    O210789   6.575   3.796  18.280
   23AGAL    C310790   6.631   4.032  18.224
   23AGAL    H310791   6.588   4.033  18.122
   23AGAL    O310792   6.526   4.073  18.312
   23AGAL   HO310793   6.557   4.053  18.400
   23AGAL    C410794   6.752   4.125  18.221
   23AGAL    H410795   6.722   4.230  18.198
   23AGAL    O410796   6.821   4.128  18.345
   23AGAL   HO410797   6.914   4.150  18.324
   23AGAL    C610798   6.963   4.155  18.068
   23AGAL   H6110799   7.022   4.096  17.995
   23AGAL   H6210800   6.931   4.248  18.017
   23AGAL    O610801   7.046   4.190  18.179
   23AGAL   HO610802   7.130   4.228  18.153
   24ARHM    C110803   6.603   3.685  18.364
   24ARHM    H110804   6.713   3.673  18.374
   24ARHM    C510805   6.408   3.559  18.300
   24ARHM    H510806   6.384   3.643  18.231
   24ARHM    O510807   6.551   3.559  18.316
   24ARHM    C210808   6.538   3.720  18.496
   24ARHM    H210809   6.572   3.821  18.529
   24ARHM    O210810   6.567   3.623  18.599
   24ARHM    C310811   6.388   3.726  18.478
   24ARHM    H310812   6.366   3.802  18.399
   24ARHM    O310813   6.326   3.773  18.597
   24ARHM   HO310814   6.295   3.698  18.649
   24ARHM    C410815   6.338   3.590  18.431
   24ARHM    H410816   6.368   3.516  18.508
   24ARHM    O410817   6.197   3.583  18.414
   24ARHM   HO410818   6.167   3.496  18.444
   24ARHM    C610819   6.359   3.429  18.229
   24ARHM   H6110820   6.265   3.450  18.175
   24ARHM   H6210821   6.436   3.397  18.156
   24ARHM   H6310822   6.343   3.346  18.300
   25ARHM    C110823   6.696   3.632  18.651
   25ARHM    H110824   6.760   3.692  18.582
   25ARHM    C510825   6.702   3.418  18.756
   25ARHM    H510826   6.598   3.399  18.722
   25ARHM    O510827   6.765   3.506  18.662
   25ARHM    C210828   6.692   3.703  18.783
   25ARHM    H210829   6.625   3.793  18.773
   25ARHM    O210830   6.821   3.741  18.826
   25ARHM    C310831   6.628   3.613  18.883
   25ARHM    H310832   6.530   3.587  18.846
   25ARHM    O310833   6.616   3.681  19.008
   25ARHM    C410834   6.700   3.483  18.894
   25ARHM    H410835   6.805   3.500  18.928
   25ARHM    O410836   6.631   3.400  18.988
   25ARHM   HO410837   6.697   3.358  19.041
   25ARHM    C610838   6.774   3.282  18.758
   25ARHM   H6110839   6.785   3.244  18.654
   25ARHM   H6210840   6.875   3.291  18.803
   25ARHM   H6310841   6.715   3.208  18.816
   26BMANN   C110842   6.868   3.857  18.763
   26BMANN   H110843   6.786   3.919  18.721
   26BMANN   C510844   7.007   3.952  18.595
   26BMANN   H510845   6.918   4.005  18.554
   26BMANN   O510846   6.962   3.831  18.657
   26BMANN   C210847   6.936   3.935  18.870
   26BMANN   H210848   6.858   3.955  18.948
   26BMANN    N10849   7.046   3.859  18.929
   26BMANN   HN10850   7.113   3.823  18.865
   26BMANN    C10851   7.061   3.833  19.059
   26BMANN    O10852   6.980   3.867  19.143
   26BMANN   CT10853   7.193   3.772  19.098
   26BMANN  HT110854   7.240   3.715  19.017
   26BMANN  HT210855   7.194   3.717  19.194
   26BMANN  HT310856   7.257   3.857  19.114
   26BMANN   C310857   6.977   4.067  18.811
   26BMANN   H310858   6.887   4.119  18.769
   26BMANN   O310859   7.029   4.150  18.914
   26BMANN  HO310860   6.954   4.188  18.960
   26BMANN   C410861   7.074   4.042  18.698
   26BMANN   H410862   7.166   3.991  18.734
   26BMANN   O410863   7.116   4.163  18.638
   26BMANN  HO410864   7.187   4.201  18.691
   26BMANN   C610865   7.095   3.914  18.477
   26BMANN  H6110866   7.050   3.825  18.429
   26BMANN  H6210867   7.096   3.994  18.400
   26BMANN   O610868   7.229   3.882  18.514
   26BMANN  HO610869   7.268   3.964  18.549
   27BGLCN   C110870   6.499   3.666  19.083
   27BGLCN   H110871   6.457   3.563  19.079
   27BGLCN   C510872   6.283   3.752  19.127
   27BGLCN   H510873   6.248   3.646  19.130
   27BGLCN   O510874   6.399   3.759  19.042
   27BGLCN   C210875   6.546   3.700  19.223
   27BGLCN   H210876   6.581   3.806  19.221
   27BGLCN    N10877   6.657   3.616  19.266
   27BGLCN   HN10878   6.649   3.520  19.243
   27BGLCN    C10879   6.764   3.668  19.332
   27BGLCN    O10880   6.758   3.778  19.387
   27BGLCN   CT10881   6.891   3.587  19.338
   27BGLCN  HT110882   6.883   3.498  19.273
   27BGLCN  HT210883   6.915   3.556  19.442
   27BGLCN  HT310884   6.975   3.651  19.304
   27BGLCN   C310885   6.431   3.695  19.318
   27BGLCN   H310886   6.389   3.592  19.314
   27BGLCN   O310887   6.489   3.721  19.449
   27BGLCN   C410888   6.323   3.790  19.269
   27BGLCN   H410889   6.363   3.895  19.269
   27BGLCN   O410890   6.208   3.786  19.351
   27BGLCN  HO410891   6.168   3.698  19.343
   27BGLCN   C610892   6.169   3.833  19.068
   27BGLCN  H6110893   6.075   3.809  19.121
   27BGLCN  H6210894   6.188   3.942  19.080
   27BGLCN   O610895   6.151   3.800  18.929
   27BGLCN  HO610896   6.088   3.859  18.886
   28AGAL    C110897   6.413   3.684  19.560
   28AGAL    H110898   6.330   3.756  19.565
   28AGAL    C510899   6.462   3.451  19.548
   28AGAL    H510900   6.546   3.477  19.479
   28AGAL    O510901   6.359   3.552  19.540
   28AGAL    C210902   6.485   3.688  19.697
   28AGAL    H210903   6.404   3.656  19.766
   28AGAL    O210904   6.531   3.815  19.746
   28AGAL    C310905   6.593   3.582  19.705
   28AGAL    H310906   6.663   3.599  19.620
   28AGAL    O310907   6.675   3.581  19.822
   28AGAL   HO310908   6.765   3.605  19.798
   28AGAL    C410909   6.527   3.448  19.685
   28AGAL    H410910   6.607   3.371  19.684
   28AGAL    O410911   6.434   3.416  19.787
   28AGAL   HO410912   6.476   3.353  19.846
   28AGAL    C610913   6.409   3.319  19.500
   28AGAL   H6110914   6.387   3.324  19.392
   28AGAL   H6210915   6.487   3.245  19.508
   28AGAL    O610916   6.295   3.271  19.571
   28AGAL   HO610917   6.217   3.306  19.529
   29ARHM    C110918   6.501   3.827  19.885
   29ARHM    H110919   6.495   3.727  19.932
   29ARHM    C510920   6.376   4.026  19.851
   29ARHM    H510921   6.403   4.017  19.743
   29ARHM    O510922   6.377   3.895  19.907
   29ARHM    C210923   6.610   3.902  19.954
   29ARHM    H210924   6.707   3.851  19.929
   29ARHM    O210925   6.589   3.904  20.097
   29ARHM    C310926   6.615   4.042  19.897
   29ARHM    H310927   6.635   4.036  19.787
   29ARHM    O310928   6.722   4.113  19.956
   29ARHM   HO310929   6.696   4.205  19.960
   29ARHM    C410930   6.482   4.113  19.918
   29ARHM    H410931   6.460   4.119  20.027
   29ARHM    O410932   6.483   4.248  19.868
   29ARHM   HO410933   6.516   4.257  19.779
   29ARHM    C610934   6.230   4.070  19.859
   29ARHM   H6110935   6.168   3.990  19.814
   29ARHM   H6210936   6.198   4.085  19.964
   29ARHM   H6310937   6.214   4.163  19.801
   30ARHM    C110938   6.658   3.807  20.173
   30ARHM    H110939   6.768   3.814  20.152
   30ARHM    C510940   6.475   3.655  20.185
   30ARHM    H510941   6.418   3.731  20.127
   30ARHM    O510942   6.613   3.672  20.151
   30ARHM    C210943   6.635   3.840  20.319
   30ARHM    H210944   6.666   3.946  20.339
   30ARHM    O210945   6.711   3.747  20.397
   30ARHM    C310946   6.491   3.824  20.359
   30ARHM    H310947   6.432   3.887  20.288
   30ARHM    O310948   6.463   3.875  20.492
   30ARHM    C410949   6.450   3.681  20.332
   30ARHM    H410950   6.511   3.608  20.391
   30ARHM    O410951   6.316   3.655  20.369
   30ARHM   HO410952   6.252   3.679  20.301
   30ARHM    C610953   6.426   3.518  20.140
   30ARHM   H6110954   6.318   3.507  20.160
   30ARHM   H6210955   6.444   3.505  20.032
   30ARHM   H6310956   6.482   3.439  20.192
   31BMANN   C110957   6.840   3.788  20.427
   31BMANN   H110958   6.840   3.895  20.453
   31BMANN   C510959   7.069   3.791  20.359
   31BMANN   H510960   7.071   3.894  20.395
   31BMANN   O510961   6.933   3.757  20.324
   31BMANN   C210962   6.876   3.705  20.545
   31BMANN   H210963   6.808   3.737  20.628
   31BMANN    N10964   6.854   3.564  20.518
   31BMANN   HN10965   6.850   3.539  20.421
   31BMANN    C10966   6.823   3.477  20.615
   31BMANN    O10967   6.812   3.512  20.731
   31BMANN   CT10968   6.805   3.335  20.570
   31BMANN  HT110969   6.882   3.311  20.494
   31BMANN  HT210970   6.704   3.323  20.527
   31BMANN  HT310971   6.815   3.265  20.656
   31BMANN   C310972   7.017   3.743  20.587
   31BMANN   H310973   7.021   3.853  20.603
   31BMANN   O310974   7.047   3.689  20.713
   31BMANN  HO310975   6.964   3.652  20.748
   31BMANN   C410976   7.116   3.710  20.478
   31BMANN   H410977   7.113   3.602  20.450
   31BMANN   O410978   7.250   3.743  20.516
   31BMANN  HO410979   7.256   3.831  20.556
   31BMANN   C610980   7.165   3.788  20.243
   31BMANN  H6110981   7.263   3.835  20.269
   31BMANN  H6210982   7.181   3.683  20.227
   31BMANN   O610983   7.114   3.841  20.121
   31BMANN  HO610984   7.115   3.937  20.117
   32BGLCN   C110985   6.493   3.788  20.598
   32BGLCN   H110986   6.586   3.731  20.577
   32BGLCN   C510987   6.428   3.601  20.728
   32BGLCN   H510988   6.521   3.550  20.695
   32BGLCN   O510989   6.390   3.694  20.627
   32BGLCN   C210990   6.519   3.870  20.722
   32BGLCN   H210991   6.421   3.914  20.751
   32BGLCN    N10992   6.612   3.975  20.694
   32BGLCN   HN10993   6.678   3.953  20.624
   32BGLCN    C10994   6.612   4.097  20.747
   32BGLCN    O10995   6.529   4.138  20.826
   32BGLCN   CT10996   6.719   4.184  20.692
   32BGLCN  HT110997   6.757   4.143  20.597
   32BGLCN  HT210998   6.803   4.205  20.761
   32BGLCN  HT310999   6.663   4.276  20.669
   32BGLCN   C311000   6.568   3.775  20.829
   32BGLCN   H311001   6.653   3.719  20.784
   32BGLCN   O311002   6.618   3.842  20.947
   32BGLCN   C411003   6.456   3.678  20.856
   32BGLCN   H411004   6.366   3.736  20.887
   32BGLCN   O411005   6.486   3.586  20.960
   32BGLCN  HO411006   6.462   3.626  21.045
   32BGLCN   C611007   6.322   3.494  20.740
   32BGLCN  H6111008   6.358   3.412  20.804
   32BGLCN  H6211009   6.230   3.536  20.787
   32BGLCN   O611010   6.289   3.433  20.615
   32BGLCN  HO611011   6.368   3.431  20.558
   33AGAL    C111012   6.731   3.778  21.004
   33AGAL    H111013   6.720   3.668  20.997
   33AGAL    C511014   6.884   3.956  20.957
   33AGAL    H511015   6.793   4.008  20.921
   33AGAL    O511016   6.855   3.816  20.942
   33AGAL    C211017   6.740   3.817  21.151
   33AGAL    H211018   6.833   3.770  21.189
   33AGAL    O211019   6.631   3.755  21.223
   33AGAL    C311020   6.763   3.967  21.167
   33AGAL    H311021   6.686   4.023  21.109
   33AGAL    O311022   6.744   4.011  21.300
   33AGAL   HO311023   6.808   3.973  21.361
   33AGAL    C411024   6.899   4.002  21.103
   33AGAL    H411025   6.912   4.112  21.104
   33AGAL    O411026   7.015   3.945  21.166
   33AGAL   HO411027   6.994   3.874  21.227
   33AGAL    C611028   6.995   4.001  20.863
   33AGAL   H6111029   6.958   3.983  20.760
   33AGAL   H6211030   7.013   4.111  20.874
   33AGAL    O611031   7.120   3.935  20.879
   33AGAL   HO611032   7.127   3.856  20.823
   34ARHM    C111033   6.672   3.687  21.341
   34ARHM    H111034   6.735   3.756  21.401
   34ARHM    C511035   6.680   3.465  21.243
   34ARHM    H511036   6.659   3.507  21.143
   34ARHM    O511037   6.749   3.566  21.320
   34ARHM    C211038   6.544   3.656  21.417
   34ARHM    H211039   6.481   3.748  21.422
   34ARHM    O211040   6.568   3.610  21.553
   34ARHM    C311041   6.466   3.552  21.337
   34ARHM    H311042   6.445   3.593  21.236
   34ARHM    O311043   6.340   3.522  21.399
   34ARHM   HO311044   6.272   3.504  21.334
   34ARHM    C411045   6.551   3.428  21.316
   34ARHM    H411046   6.583   3.387  21.415
   34ARHM    O411047   6.477   3.328  21.246
   34ARHM   HO411048   6.416   3.285  21.308
   34ARHM    C611049   6.768   3.338  21.220
   34ARHM   H6111050   6.802   3.291  21.315
   34ARHM   H6211051   6.707   3.261  21.169
   34ARHM   H6311052   6.857   3.358  21.156
   35ARHM    C111053   6.638   3.694  21.642
   35ARHM    H111054   6.612   3.801  21.623
   35ARHM    C511055   6.821   3.538  21.656
   35ARHM    H511056   6.769   3.468  21.587
   35ARHM    O511057   6.781   3.675  21.630
   35ARHM    C211058   6.600   3.662  21.786
   35ARHM    H211059   6.490   3.676  21.802
   35ARHM    O211060   6.669   3.746  21.879
   35ARHM    C311061   6.634   3.518  21.819
   35ARHM    H311062   6.579   3.451  21.748
   35ARHM    O311063   6.589   3.481  21.949
   35ARHM   HO311064   6.600   3.554  22.012
   35ARHM    C411065   6.783   3.499  21.800
   35ARHM    H411066   6.841   3.565  21.869
   35ARHM    O411067   6.822   3.366  21.828
   35ARHM   HO411068   6.758   3.302  21.794
   35ARHM    C611069   6.970   3.523  21.623
   35ARHM   H6111070   6.989   3.536  21.514
   35ARHM   H6211071   7.028   3.600  21.677
   35ARHM   H6311072   7.006   3.421  21.647
   36BMANN   C111073   6.625   3.879  21.884
   36BMANN   H111074   6.519   3.885  21.849
   36BMANN   C511075   6.645   4.102  21.808
   36BMANN   H511076   6.538   4.097  21.779
   36BMANN   O511077   6.700   3.968  21.802
   36BMANN   C211078   6.636   3.924  22.028
   36BMANN   H211079   6.569   3.855  22.084
   36BMANN    N11080   6.772   3.914  22.083
   36BMANN   HN11081   6.848   3.937  22.024
   36BMANN    C11082   6.793   3.894  22.215
   36BMANN    O11083   6.702   3.866  22.291
   36BMANN   CT11084   6.933   3.908  22.267
   36BMANN  HT111085   6.981   3.997  22.222
   36BMANN  HT211086   6.992   3.817  22.250
   36BMANN  HT311087   6.928   3.926  22.376
   36BMANN   C311088   6.577   4.064  22.038
   36BMANN   H311089   6.471   4.062  22.002
   36BMANN   O311090   6.578   4.112  22.172
   36BMANN  HO311091   6.489   4.125  22.205
   36BMANN   C411092   6.653   4.158  21.950
   36BMANN   H411093   6.759   4.164  21.982
   36BMANN   O411094   6.601   4.290  21.960
   36BMANN  HO411095   6.609   4.307  22.055
   36BMANN   C611096   6.711   4.191  21.710
   36BMANN  H6111097   6.708   4.150  21.606
   36BMANN  H6211098   6.657   4.289  21.707
   36BMANN   O611099   6.845   4.209  21.755
   36BMANN  HO611100   6.849   4.296  21.798
    1ECLIP HB6S11101   5.903   2.479  11.778
    1ECLIP  OB611102   6.039   2.557  11.909
    1ECLIP  CB611103   5.941   2.579  11.806
    1ECLIP HB6R11104   5.855   2.637  11.847
    1ECLIP  CB511105   5.988   2.650  11.680
    1ECLIP  OB511106   6.101   2.573  11.632
    1ECLIP  HB511107   6.018   2.753  11.711
    1ECLIP  CB111108   6.159   2.633  11.515
    1ECLIP  HB111109   6.189   2.738  11.534
    1ECLIP  OA611110   6.275   2.565  11.470
    1ECLIP  CA611111   6.274   2.424  11.492
    1ECLIP HA6R11112   6.172   2.384  11.510
    1ECLIP HA6S11113   6.339   2.403  11.580
    1ECLIP  CB411114   5.879   2.660  11.570
    1ECLIP  HB411115   5.841   2.559  11.541
    1ECLIP  OB411116   5.775   2.747  11.621
    1ECLIP   PB11117   5.628   2.685  11.668
    1ECLIP OPB411118   5.581   2.775  11.785
    1ECLIP OPB311119   5.661   2.539  11.707
    1ECLIP OPB211120   5.539   2.698  11.545
    1ECLIP  CB311121   5.941   2.720  11.445
    1ECLIP  OB311122   5.856   2.725  11.330
    1ECLIP  HB311123   5.984   2.820  11.470
    1ECLIP  C7111124   5.775   2.829  11.315
    1ECLIP  O7111125   5.806   2.940  11.358
    1ECLIP  C7211126   5.709   2.814  11.175
    1ECLIP H72R11127   5.786   2.798  11.097
    1ECLIP H72S11128   5.652   2.907  11.153
    1ECLIP  CB211129   6.059   2.635  11.403
    1ECLIP  HB211130   6.022   2.530  11.387
    1ECLIP  NB211131   6.120   2.690  11.282
    1ECLIP HNB211132   6.196   2.753  11.293
    1ECLIP  CA411133   6.452   2.423  11.315
    1ECLIP  HA411134   6.421   2.526  11.288
    1ECLIP  OA411135   6.550   2.427  11.417
    1ECLIP HOA411136   6.512   2.461  11.498
    1ECLIP  CA511137   6.330   2.354  11.370
    1ECLIP  HA511138   6.348   2.246  11.392
    1ECLIP  OA511139   6.230   2.362  11.270
    1ECLIP  CA111140   6.265   2.297  11.147
    1ECLIP  HA111141   6.184   2.331  11.079
    1ECLIP  OA111142   6.263   2.155  11.149
    1ECLIP OPA211143   6.176   2.015  11.342
    1ECLIP OPA311144   6.010   2.164  11.230
    1ECLIP OPA411145   6.089   1.961  11.109
    1ECLIP   PA11146   6.129   2.072  11.207
    1ECLIP  CA311147   6.503   2.357  11.189
    1ECLIP  HA311148   6.534   2.252  11.210
    1ECLIP  OA311149   6.620   2.432  11.153
    1ECLIP  C3111150   6.599   2.547  11.088
    1ECLIP  O3111151   6.601   2.553  10.966
    1ECLIP  C3211152   6.657   2.662  11.171
    1ECLIP H32R11153   6.739   2.697  11.112
    1ECLIP H32S11154   6.699   2.627  11.267
    1ECLIP  CA211155   6.389   2.362  11.087
    1ECLIP  HA211156   6.361   2.468  11.070
    1ECLIP  NA211157   6.427   2.301  10.959
    1ECLIP HNA211158   6.523   2.281  10.948
    1ECLIP  C7311159   5.614   2.693  11.172
    1ECLIP H73R11160   5.552   2.696  11.265
    1ECLIP  O7311161   5.696   2.577  11.164
    1ECLIP  C8111162   5.665   2.469  11.234
    1ECLIP  O8111163   5.553   2.448  11.282
    1ECLIP  C8211164   5.743   2.350  11.171
    1ECLIP H82R11165   5.715   2.257  11.223
    1ECLIP H82S11166   5.850   2.365  11.192
    1ECLIP  C8311167   5.723   2.332  11.018
    1ECLIP H83R11168   5.791   2.404  10.965
    1ECLIP H83S11169   5.620   2.358  10.989
    1ECLIP  C8411170   5.763   2.192  10.966
    1ECLIP H84R11171   5.689   2.116  10.995
    1ECLIP H84S11172   5.862   2.168  11.012
    1ECLIP  C8511173   5.784   2.189  10.814
    1ECLIP H85R11174   5.841   2.282  10.791
    1ECLIP H85S11175   5.688   2.197  10.759
    1ECLIP  C8611176   5.873   2.072  10.765
    1ECLIP H86R11177   5.812   1.985  10.735
    1ECLIP H86S11178   5.939   2.039  10.849
    1ECLIP  C8711179   5.970   2.114  10.652
    1ECLIP H87R11180   6.025   2.025  10.616
    1ECLIP H87S11181   6.047   2.183  10.694
    1ECLIP  C8811182   5.900   2.188  10.538
    1ECLIP H88R11183   5.877   2.292  10.571
    1ECLIP H88S11184   5.800   2.141  10.524
    1ECLIP  C8911185   5.981   2.193  10.408
    1ECLIP H89R11186   6.090   2.175  10.426
    1ECLIP H89S11187   5.974   2.294  10.362
    1ECLIP C81011188   5.925   2.093  10.306
    1ECLIPH810R11189   5.817   2.082  10.330
    1ECLIPH810S11190   5.974   1.995  10.323
    1ECLIP C81111191   5.941   2.137  10.160
    1ECLIPH811R11192   5.935   2.050  10.090
    1ECLIPH811S11193   6.042   2.182  10.156
    1ECLIP C81211194   5.844   2.244  10.110
    1ECLIPH812R11195   5.879   2.273  10.008
    1ECLIPH812S11196   5.849   2.332  10.177
    1ECLIP C81311197   5.697   2.202  10.101
    1ECLIPH813R11198   5.691   2.118  10.029
    1ECLIPH813S11199   5.659   2.168  10.200
    1ECLIP C81411200   5.608   2.316  10.054
    1ECLIPH814R11201   5.653   2.367   9.966
    1ECLIPH814S11202   5.597   2.394  10.132
    1ECLIPH814T11203   5.508   2.277  10.026
    1ECLIP  C7411204   5.519   2.686  11.049
    1ECLIP H74R11205   5.449   2.772  11.040
    1ECLIP H74S11206   5.456   2.596  11.068
    1ECLIP  C7511207   5.591   2.661  10.914
    1ECLIP H75R11208   5.526   2.593  10.855
    1ECLIP H75S11209   5.686   2.607  10.933
    1ECLIP  C7611210   5.622   2.786  10.831
    1ECLIP H76R11211   5.712   2.836  10.874
    1ECLIP H76S11212   5.538   2.859  10.835
    1ECLIP  C7711213   5.650   2.759  10.682
    1ECLIP H77R11214   5.557   2.720  10.635
    1ECLIP H77S11215   5.726   2.680  10.668
    1ECLIP  C7811216   5.704   2.887  10.616
    1ECLIP H78R11217   5.635   2.970  10.643
    1ECLIP H78S11218   5.801   2.909  10.668
    1ECLIP  C7911219   5.738   2.884  10.465
    1ECLIP H79R11220   5.846   2.860  10.453
    1ECLIP H79S11221   5.722   2.984  10.420
    1ECLIP C71011222   5.654   2.788  10.381
    1ECLIPH710R11223   5.660   2.685  10.423
    1ECLIPH710S11224   5.549   2.822  10.385
    1ECLIP C71111225   5.698   2.781  10.234
    1ECLIPH711R11226   5.691   2.883  10.189
    1ECLIPH711S11227   5.804   2.745  10.228
    1ECLIP C71211228   5.609   2.682  10.159
    1ECLIPH712R11229   5.505   2.720  10.162
    1ECLIPH712S11230   5.611   2.588  10.218
    1ECLIP C71311231   5.654   2.655  10.016
    1ECLIPH713R11232   5.757   2.610  10.020
    1ECLIPH713S11233   5.587   2.580   9.968
    1ECLIP C71411234   5.654   2.777   9.924
    1ECLIPH714R11235   5.551   2.819   9.916
    1ECLIPH714S11236   5.724   2.856   9.959
    1ECLIPH714T11237   5.685   2.744   9.823
    1ECLIP  C5111238   6.078   2.654  11.160
    1ECLIP  O5111239   6.006   2.556  11.144
    1ECLIP  C5211240   6.117   2.740  11.042
    1ECLIP H52R11241   6.044   2.822  11.029
    1ECLIP H52S11242   6.216   2.784  11.061
    1ECLIP  C5311243   6.122   2.656  10.913
    1ECLIP H53R11244   6.157   2.552  10.935
    1ECLIP  O5311245   6.208   2.726  10.821
    1ECLIP  C6111246   6.325   2.671  10.789
    1ECLIP  O6111247   6.364   2.562  10.823
    1ECLIP  C6211248   6.402   2.765  10.696
    1ECLIP H62R11249   6.454   2.840  10.758
    1ECLIP H62S11250   6.326   2.819  10.637
    1ECLIP  C6311251   6.504   2.687  10.607
    1ECLIP H63R11252   6.452   2.598  10.564
    1ECLIP H63S11253   6.589   2.650  10.669
    1ECLIP  C6411254   6.563   2.764  10.487
    1ECLIP H64R11255   6.639   2.702  10.435
    1ECLIP H64S11256   6.612   2.855  10.529
    1ECLIP  C6511257   6.452   2.804  10.389
    1ECLIP H65R11258   6.385   2.869  10.450
    1ECLIP H65S11259   6.394   2.715  10.358
    1ECLIP  C6611260   6.490   2.884  10.263
    1ECLIP H66R11261   6.542   2.977  10.292
    1ECLIP H66S11262   6.392   2.911  10.216
    1ECLIP  C6711263   6.571   2.813  10.154
    1ECLIP H67R11264   6.664   2.766  10.194
    1ECLIP H67S11265   6.601   2.885  10.074
    1ECLIP  C6811266   6.497   2.699  10.088
    1ECLIP H68R11267   6.396   2.724  10.047
    1ECLIP H68S11268   6.486   2.619  10.165
    1ECLIP  C6911269   6.573   2.650   9.969
    1ECLIP H69R11270   6.684   2.662   9.979
    1ECLIP H69S11271   6.546   2.715   9.884
    1ECLIP C61011272   6.533   2.504   9.946
    1ECLIPH610R11273   6.426   2.484   9.953
    1ECLIPH610S11274   6.594   2.438  10.015
    1ECLIP C61111275   6.575   2.468   9.809
    1ECLIPH611R11276   6.670   2.506   9.841
    1ECLIPH611S11277   6.592   2.362   9.789
    1ECLIP C61211278   6.527   2.547   9.686
    1ECLIPH612R11279   6.422   2.531   9.666
    1ECLIPH612S11280   6.522   2.653   9.703
    1ECLIPH612T11281   6.578   2.521   9.590
    1ECLIP  C5411282   5.979   2.650  10.853
    1ECLIP H54R11283   5.951   2.754  10.824
    1ECLIP H54S11284   5.909   2.618  10.934
    1ECLIP  C5511285   5.957   2.557  10.733
    1ECLIP H55R11286   5.848   2.539  10.719
    1ECLIP H55S11287   6.001   2.457  10.756
    1ECLIP  C5611288   6.012   2.622  10.605
    1ECLIP H56R11289   6.119   2.646  10.622
    1ECLIP H56S11290   5.959   2.718  10.587
    1ECLIP  C5711291   6.011   2.540  10.477
    1ECLIP H57R11292   5.909   2.500  10.454
    1ECLIP H57S11293   6.078   2.452  10.491
    1ECLIP  C5811294   6.065   2.625  10.360
    1ECLIP H58R11295   6.018   2.726  10.358
    1ECLIP H58S11296   6.173   2.644  10.382
    1ECLIP  C5911297   6.045   2.558  10.223
    1ECLIP H59R11298   5.937   2.536  10.208
    1ECLIP H59S11299   6.098   2.461  10.232
    1ECLIP C51011300   6.087   2.643  10.101
    1ECLIPH510R11301   6.186   2.690  10.119
    1ECLIPH510S11302   6.013   2.725  10.088
    1ECLIP C51111303   6.094   2.567   9.967
    1ECLIPH511R11304   6.190   2.510   9.964
    1ECLIPH511S11305   6.011   2.495   9.958
    1ECLIP C51211306   6.090   2.656   9.843
    1ECLIPH512R11307   6.067   2.596   9.751
    1ECLIPH512S11308   6.013   2.736   9.850
    1ECLIP C51311309   6.221   2.718   9.807
    1ECLIPH513R11310   6.304   2.645   9.790
    1ECLIPH513S11311   6.260   2.790   9.882
    1ECLIP C51411312   6.190   2.790   9.679
    1ECLIPH514R11313   6.118   2.872   9.675
    1ECLIPH514S11314   6.269   2.859   9.687
    1ECLIPH514T11315   6.201   2.729   9.586
    1ECLIP  C3311316   6.576   2.792  11.185
    1ECLIP H33R11317   6.644   2.873  11.223
    1ECLIP  O3311318   6.479   2.767  11.284
    1ECLIP HO3311319   6.519   2.765  11.371
    1ECLIP  C3411320   6.508   2.844  11.056
    1ECLIP H34R11321   6.440   2.767  11.017
    1ECLIP H34S11322   6.584   2.866  10.978
    1ECLIP  C3511323   6.426   2.972  11.079
    1ECLIP H35R11324   6.498   3.049  11.111
    1ECLIP H35S11325   6.354   2.957  11.163
    1ECLIP  C3611326   6.347   3.021  10.956
    1ECLIP H36R11327   6.323   2.929  10.902
    1ECLIP H36S11328   6.410   3.087  10.891
    1ECLIP  C3711329   6.213   3.092  10.988
    1ECLIP H37R11330   6.236   3.201  11.002
    1ECLIP H37S11331   6.176   3.054  11.085
    1ECLIP  C3811332   6.104   3.076  10.880
    1ECLIP H38R11333   6.060   2.974  10.880
    1ECLIP H38S11334   6.022   3.147  10.903
    1ECLIP  C3911335   6.159   3.097  10.738
    1ECLIP H39R11336   6.248   3.034  10.719
    1ECLIP H39S11337   6.195   3.200  10.734
    1ECLIP C31011338   6.060   3.082  10.623
    1ECLIPH310R11339   5.987   3.166  10.633
    1ECLIPH310S11340   6.006   2.986  10.631
    1ECLIP C31111341   6.134   3.078  10.488
    1ECLIPH311R11342   6.221   3.147  10.489
    1ECLIPH311S11343   6.173   2.975  10.473
    1ECLIP C31211344   6.045   3.107  10.366
    1ECLIPH312R11345   5.942   3.067  10.385
    1ECLIPH312S11346   6.038   3.217  10.354
    1ECLIP C31311347   6.100   3.045  10.237
    1ECLIPH313R11348   6.190   3.106  10.211
    1ECLIPH313S11349   6.134   2.940  10.254
    1ECLIP C31411350   6.004   3.048  10.118
    1ECLIPH314R11351   5.975   3.153  10.096
    1ECLIPH314S11352   6.050   3.005  10.027
    1ECLIPH314T11353   5.912   2.990  10.141
    1ECLIP  C1111354   6.344   2.256  10.862
    1ECLIP  O1111355   6.227   2.291  10.846
    1ECLIP  C1211356   6.406   2.155  10.769
    1ECLIP H12R11357   6.365   2.054  10.792
    1ECLIP H12S11358   6.515   2.154  10.788
    1ECLIP  C1311359   6.383   2.188  10.622
    1ECLIP H13R11360   6.278   2.221  10.601
    1ECLIP  O1311361   6.407   2.068  10.549
    1ECLIP HO1311362   6.359   2.062  10.465
    1ECLIP  C1411363   6.481   2.300  10.580
    1ECLIP H14R11364   6.578   2.286  10.632
    1ECLIP H14S11365   6.435   2.395  10.614
    1ECLIP  C1511366   6.508   2.313  10.432
    1ECLIP H15R11367   6.546   2.216  10.394
    1ECLIP H15S11368   6.591   2.386  10.419
    1ECLIP  C1611369   6.384   2.360  10.356
    1ECLIP H16R11370   6.371   2.470  10.364
    1ECLIP H16S11371   6.294   2.314  10.401
    1ECLIP  C1711372   6.395   2.322  10.210
    1ECLIP H17R11373   6.498   2.347  10.176
    1ECLIP H17S11374   6.325   2.379  10.145
    1ECLIP  C1811375   6.372   2.172  10.197
    1ECLIP H18R11376   6.446   2.116  10.257
    1ECLIP H18S11377   6.268   2.145  10.225
    1ECLIP  C1911378   6.389   2.122  10.058
    1ECLIP H19R11379   6.399   2.012  10.053
    1ECLIP H19S11380   6.483   2.165  10.013
    1ECLIP C11011381   6.259   2.157   9.985
    1ECLIPH110R11382   6.157   2.156  10.018
    1ECLIPH110S11383   6.280   2.268   9.979
    1ECLIP C11111384   6.239   2.061   9.860
    1ECLIPH111R11385   6.353   2.033   9.860
    1ECLIPH111S11386   6.205   1.965   9.838
    1ECLIP C11211387   6.151   2.117   9.728
    1ECLIPH112R11388   6.049   2.144   9.755
    1ECLIPH112S11389   6.151   2.228   9.706
    1ECLIP C11311390   6.180   2.062   9.580
    1ECLIPH113R11391   6.290   2.070   9.550
    1ECLIPH113S11392   6.221   1.965   9.551
    1ECLIP C11411393   6.094   2.137   9.469
    1ECLIPH114R11394   5.987   2.134   9.471
    1ECLIPH114S11395   6.106   2.247   9.444
    1ECLIPH114T11396   6.123   2.083   9.378
    2AKDO    C111397   6.038   2.792  11.978
    2AKDO   O1111398   5.936   2.866  11.978
    2AKDO   O1211399   6.155   2.827  11.944
    2AKDO    C211400   6.021   2.642  12.023
    2AKDO    C611401   5.862   2.490  12.123
    2AKDO    H611402   5.879   2.428  12.032
    2AKDO    O611403   5.890   2.625  12.083
    2AKDO    C311404   6.122   2.598  12.129
    2AKDO   H3111405   6.121   2.668  12.215
    2AKDO   H3211406   6.223   2.601  12.081
    2AKDO    C411407   6.097   2.457  12.174
    2AKDO    H411408   6.098   2.390  12.086
    2AKDO    O411409   6.191   2.414  12.273
    2AKDO    C511410   5.959   2.443  12.233
    2AKDO    H511411   5.940   2.334  12.246
    2AKDO    O511412   5.958   2.512  12.363
    2AKDO    C711413   5.715   2.470  12.154
    2AKDO    H711414   5.690   2.529  12.245
    2AKDO    O711415   5.690   2.329  12.173
    2AKDO   HO711416   5.661   2.299  12.088
    2AKDO    C811417   5.629   2.522  12.040
    2AKDO   H8111418   5.656   2.629  12.023
    2AKDO   H8211419   5.654   2.468  11.946
    2AKDO    O811420   5.487   2.510  12.069
    2AKDO   HO811421   5.451   2.588  12.024
    3AKDO    C111422   6.311   2.271  12.113
    3AKDO   O1111423   6.336   2.313  11.996
    3AKDO   O1211424   6.267   2.155  12.136
    3AKDO    C211425   6.321   2.370  12.235
    3AKDO    C611426   6.418   2.578  12.314
    3AKDO    H611427   6.316   2.621  12.333
    3AKDO    O611428   6.411   2.480  12.208
    3AKDO    C311429   6.369   2.306  12.368
    3AKDO   H3111430   6.470   2.263  12.351
    3AKDO   H3211431   6.304   2.220  12.395
    3AKDO    C411432   6.372   2.407  12.479
    3AKDO    H411433   6.272   2.456  12.484
    3AKDO    O411434   6.401   2.352  12.606
    3AKDO   HO411435   6.330   2.377  12.669
    3AKDO    C511436   6.470   2.514  12.441
    3AKDO    H511437   6.470   2.590  12.522
    3AKDO    O511438   6.603   2.462  12.425
    3AKDO   HO511439   6.594   2.397  12.355
    3AKDO    C711440   6.506   2.692  12.272
    3AKDO    H711441   6.608   2.652  12.249
    3AKDO    O711442   6.517   2.788  12.378
    3AKDO   HO711443   6.580   2.853  12.348
    3AKDO    C811444   6.448   2.756  12.148
    3AKDO   H8111445   6.433   2.678  12.069
    3AKDO   H8211446   6.348   2.801  12.168
    3AKDO    O811447   6.541   2.853  12.101
    3AKDO   HO811448   6.601   2.797  12.050
    4AHEP    C111449   5.871   2.458  12.462
    4AHEP    H111450   5.770   2.489  12.427
    4AHEP    C511451   5.981   2.256  12.535
    4AHEP    H511452   6.073   2.296  12.487
    4AHEP    O511453   5.868   2.315  12.467
    4AHEP    C211454   5.877   2.509  12.608
    4AHEP    H211455   5.889   2.620  12.604
    4AHEP    O211456   5.751   2.487  12.675
    4AHEP   HO211457   5.739   2.566  12.727
    4AHEP    C311458   5.995   2.454  12.686
    4AHEP    H311459   6.093   2.490  12.646
    4AHEP    O311460   5.983   2.496  12.824
    4AHEP    C411461   5.986   2.304  12.681
    4AHEP    H411462   5.895   2.266  12.733
    4AHEP    O411463   6.107   2.257  12.741
    4AHEP    P411464   6.102   2.170  12.882
    4AHEP  OP4211465   6.235   2.202  12.948
    4AHEP  OP4311466   6.094   2.026  12.837
    4AHEP  OP4411467   5.982   2.219  12.964
    4AHEP    C611468   5.975   2.102  12.515
    4AHEP    H611469   6.077   2.065  12.544
    4AHEP    O611470   5.879   2.032  12.597
    4AHEP   HO611471   5.928   1.979  12.663
    4AHEP    C711472   5.947   2.060  12.369
    4AHEP   H7111473   5.974   1.953  12.354
    4AHEP   H7211474   6.013   2.119  12.302
    4AHEP    O711475   5.810   2.070  12.321
    4AHEP   HO711476   5.769   2.002  12.376
    5AHEP    C111477   6.089   2.568  12.883
    5AHEP    H111478   6.186   2.541  12.834
    5AHEP    C511479   5.945   2.752  12.932
    5AHEP    H511480   5.863   2.685  12.896
    5AHEP    O511481   6.067   2.710  12.866
    5AHEP    C211482   6.101   2.538  13.033
    5AHEP    H211483   6.113   2.428  13.045
    5AHEP    O211484   6.217   2.599  13.087
    5AHEP   HO211485   6.284   2.532  13.100
    5AHEP    C311486   5.976   2.581  13.109
    5AHEP    H311487   5.890   2.523  13.068
    5AHEP    O311488   5.982   2.561  13.252
    5AHEP    C411489   5.955   2.728  13.082
    5AHEP    H411490   6.041   2.788  13.121
    5AHEP    O411491   5.829   2.766  13.139
    5AHEP    P411492   5.829   2.879  13.263
    5AHEP  OP4211493   5.688   2.877  13.319
    5AHEP  OP4311494   5.865   3.012  13.195
    5AHEP  OP4411495   5.931   2.831  13.365
    5AHEP    C611496   5.907   2.895  12.893
    5AHEP    H611497   5.811   2.921  12.942
    5AHEP    O611498   6.001   2.994  12.936
    5AHEP   HO611499   6.083   2.983  12.889
    5AHEP    C711500   5.886   2.908  12.743
    5AHEP   H7111501   5.803   2.980  12.728
    5AHEP   H7211502   5.852   2.813  12.697
    5AHEP    O711503   6.001   2.964  12.680
    6AHEP    C111504   6.079   2.867  12.616
    6AHEP    H111505   6.047   2.763  12.640
    6AHEP    C511506   6.107   3.010  12.434
    6AHEP    H511507   6.049   3.088  12.488
    6AHEP    O511508   6.061   2.881  12.476
    6AHEP    C211509   6.223   2.879  12.661
    6AHEP    H211510   6.225   2.869  12.772
    6AHEP    O211511   6.302   2.773  12.611
    6AHEP   HO211512   6.328   2.716  12.683
    6AHEP    C311513   6.276   3.014  12.625
    6AHEP    H311514   6.216   3.092  12.676
    6AHEP    O311515   6.414   3.034  12.666
    6AHEP   HO311516   6.428   3.106  12.730
    6AHEP    C411517   6.253   3.022  12.476
    6AHEP    H411518   6.321   2.956  12.419
    6AHEP    O411519   6.294   3.146  12.441
    6AHEP   HO411520   6.227   3.214  12.449
    6AHEP    C611521   6.077   3.042  12.287
    6AHEP    H611522   6.100   3.150  12.270
    6AHEP    O611523   6.164   2.974  12.197
    6AHEP   HO611524   6.113   2.916  12.138
    6AHEP    C711525   5.929   3.031  12.254
    6AHEP   H7111526   5.911   3.067  12.150
    6AHEP   H7211527   5.872   3.093  12.326
    6AHEP    O711528   5.872   2.902  12.264
    6AHEP   HO711529   5.869   2.872  12.355
    7AGLC    C111530   5.931   2.440  13.302
    7AGLC    H111531   5.835   2.413  13.252
    7AGLC    C511532   6.151   2.356  13.346
    7AGLC    H511533   6.192   2.456  13.318
    7AGLC    O511534   6.026   2.336  13.279
    7AGLC    C211535   5.906   2.437  13.453
    7AGLC    H211536   5.880   2.332  13.479
    7AGLC    O211537   5.795   2.514  13.495
    7AGLC   HO211538   5.819   2.608  13.490
    7AGLC    C311539   6.031   2.467  13.534
    7AGLC    H311540   6.071   2.564  13.497
    7AGLC    O311541   6.006   2.479  13.677
    7AGLC    C411542   6.129   2.357  13.497
    7AGLC    H411543   6.086   2.257  13.528
    7AGLC    O411544   6.255   2.378  13.559
    7AGLC   HO411545   6.283   2.297  13.605
    7AGLC    C611546   6.250   2.256  13.287
    7AGLC   H6111547   6.253   2.272  13.177
    7AGLC   H6211548   6.353   2.268  13.325
    7AGLC    O611549   6.210   2.122  13.309
    7AGLC   HO611550   6.250   2.089  13.389
    8AGLC    C111551   6.037   2.608  13.729
    8AGLC    H111552   6.134   2.641  13.687
    8AGLC    C511553   5.808   2.694  13.758
    8AGLC    H511554   5.769   2.595  13.725
    8AGLC    O511555   5.938   2.708  13.696
    8AGLC    C211556   6.053   2.607  13.880
    8AGLC    H211557   6.088   2.710  13.907
    8AGLC    O211558   6.152   2.517  13.931
    8AGLC    C311559   5.922   2.581  13.949
    8AGLC    H311560   5.885   2.483  13.908
    8AGLC    O311561   5.949   2.566  14.090
    8AGLC    C411562   5.827   2.692  13.909
    8AGLC    H411563   5.872   2.789  13.939
    8AGLC    O411564   5.701   2.679  13.973
    8AGLC   HO411565   5.678   2.586  13.975
    8AGLC    C611566   5.701   2.796  13.710
    8AGLC   H6111567   5.702   2.805  13.598
    8AGLC   H6211568   5.600   2.758  13.737
    8AGLC    O611569   5.708   2.927  13.768
    8AGLC   HO611570   5.677   2.922  13.859
    9AGAL    C111571   6.283   2.526  13.880
    9AGAL    H111572   6.281   2.528  13.769
    9AGAL    C511573   6.376   2.643  14.064
    9AGAL    H511574   6.276   2.624  14.111
    9AGAL    O511575   6.354   2.643  13.922
    9AGAL    C211576   6.357   2.399  13.920
    9AGAL    H211577   6.457   2.408  13.873
    9AGAL    O211578   6.291   2.287  13.856
    9AGAL    C311579   6.380   2.396  14.070
    9AGAL    H311580   6.283   2.394  14.125
    9AGAL    O311581   6.449   2.278  14.107
    9AGAL   HO311582   6.410   2.207  14.055
    9AGAL    C411583   6.460   2.522  14.105
    9AGAL    H411584   6.478   2.527  14.214
    9AGAL    O411585   6.588   2.524  14.043
    9AGAL   HO411586   6.646   2.577  14.099
    9AGAL    C611587   6.420   2.778  14.121
    9AGAL   H6111588   6.343   2.855  14.097
    9AGAL   H6211589   6.424   2.771  14.232
    9AGAL    O611590   6.547   2.826  14.077
    9AGAL   HO611591   6.532   2.882  14.000
   10AGAL    C111592   6.269   2.157  13.911
   10AGAL    H111593   6.367   2.105  13.920
   10AGAL    C511594   6.070   2.206  14.040
   10AGAL    H511595   6.081   2.310  14.001
   10AGAL    O511596   6.204   2.153  14.041
   10AGAL    C211597   6.184   2.080  13.812
   10AGAL    H211598   6.177   1.977  13.850
   10AGAL    O211599   6.246   2.064  13.684
   10AGAL   HO211600   6.238   1.971  13.663
   10AGAL    C311601   6.042   2.140  13.805
   10AGAL    H311602   6.055   2.249  13.780
   10AGAL    O311603   5.957   2.082  13.705
   10AGAL   HO311604   5.946   2.148  13.636
   10AGAL    C411605   5.980   2.131  13.942
   10AGAL    H411606   5.881   2.181  13.944
   10AGAL    O411607   5.963   1.993  13.977
   10AGAL   HO411608   6.051   1.963  14.002
   10AGAL    C611609   6.006   2.228  14.178
   10AGAL   H6111610   6.078   2.278  14.246
   10AGAL   H6211611   5.919   2.297  14.164
   10AGAL    O611612   5.957   2.111  14.244
   10AGAL   HO611613   6.007   2.098  14.325
   11BGLC    C111614   5.936   2.673  14.184
   11BGLC    H111615   5.828   2.695  14.198
   11BGLC    C511616   6.008   2.898  14.248
   11BGLC    H511617   5.903   2.930  14.273
   11BGLC    O511618   6.013   2.791  14.148
   11BGLC    C211619   5.993   2.618  14.315
   11BGLC    H211620   6.099   2.588  14.300
   11BGLC    O211621   5.922   2.501  14.352
   11BGLC   HO211622   5.984   2.430  14.370
   11BGLC    C311623   5.992   2.720  14.427
   11BGLC    H311624   5.887   2.747  14.453
   11BGLC    O311625   6.063   2.667  14.541
   11BGLC    C411626   6.070   2.842  14.379
   11BGLC    H411627   6.173   2.807  14.354
   11BGLC    O411628   6.087   2.940  14.481
   11BGLC   HO411629   6.140   2.902  14.552
   11BGLC    C611630   6.077   3.021  14.188
   11BGLC   H6111631   6.108   3.094  14.265
   11BGLC   H6211632   6.165   2.990  14.129
   11BGLC    O611633   5.994   3.092  14.096
   11BGLC   HO611634   5.971   3.179  14.129
   12BGLCN   C111635   5.999   2.663  14.668
   12BGLCN   H111636   5.935   2.573  14.674
   12BGLCN   C511637   5.857   2.774  14.824
   12BGLCN   H511638   5.791   2.685  14.830
   12BGLCN   O511639   5.922   2.780  14.696
   12BGLCN   C211640   6.109   2.654  14.772
   12BGLCN   H211641   6.165   2.751  14.767
   12BGLCN    N11642   6.194   2.541  14.742
   12BGLCN   HN11643   6.147   2.454  14.732
   12BGLCN    C11644   6.327   2.553  14.727
   12BGLCN    O11645   6.384   2.660  14.741
   12BGLCN   CT11646   6.405   2.429  14.692
   12BGLCN  HT111647   6.466   2.397  14.778
   12BGLCN  HT211648   6.475   2.452  14.610
   12BGLCN  HT311649   6.334   2.350  14.661
   12BGLCN   C311650   6.053   2.643  14.913
   12BGLCN   H311651   5.992   2.550  14.917
   12BGLCN   O311652   6.158   2.630  15.013
   12BGLCN   C411653   5.965   2.766  14.932
   12BGLCN   H411654   6.028   2.858  14.925
   12BGLCN   O411655   5.905   2.768  15.060
   12BGLCN  HO411656   5.842   2.696  15.067
   12BGLCN   C611657   5.768   2.897  14.830
   12BGLCN  H6111658   5.716   2.905  14.928
   12BGLCN  H6211659   5.833   2.987  14.819
   12BGLCN   O611660   5.670   2.899  14.725
   12BGLCN  HO611661   5.592   2.848  14.750
   13AGAL    C111662   6.131   2.538  15.120
   13AGAL    H111663   6.024   2.551  15.152
   13AGAL    C511664   6.300   2.378  15.063
   13AGAL    H511665   6.331   2.457  14.990
   13AGAL    O511666   6.158   2.401  15.083
   13AGAL    C211667   6.213   2.563  15.247
   13AGAL    H211668   6.185   2.480  15.316
   13AGAL    O211669   6.174   2.685  15.312
   13AGAL    C311670   6.362   2.544  15.225
   13AGAL    H311671   6.394   2.607  15.139
   13AGAL    O311672   6.443   2.580  15.337
   13AGAL   HO311673   6.516   2.636  15.307
   13AGAL    C411674   6.385   2.400  15.188
   13AGAL    H411675   6.493   2.389  15.160
   13AGAL    O411676   6.359   2.309  15.296
   13AGAL   HO411677   6.270   2.326  15.328
   13AGAL    C611678   6.337   2.249  14.991
   13AGAL   H6111679   6.278   2.243  14.897
   13AGAL   H6211680   6.446   2.254  14.967
   13AGAL    O611681   6.320   2.131  15.067
   13AGAL   HO611682   6.386   2.126  15.137
   14ARHM    C111683   6.108   2.675  15.437
   14ARHM    H111684   6.053   2.578  15.441
   14ARHM    C511685   6.072   2.908  15.454
   14ARHM    H511686   6.126   2.919  15.357
   14ARHM    O511687   6.012   2.778  15.455
   14ARHM    C211688   6.212   2.683  15.547
   14ARHM    H211689   6.290   2.609  15.527
   14ARHM    O211690   6.164   2.669  15.683
   14ARHM    C311691   6.280   2.816  15.543
   14ARHM    H311692   6.318   2.832  15.440
   14ARHM    O311693   6.394   2.825  15.628
   14ARHM   HO311694   6.368   2.821  15.719
   14ARHM    C411695   6.173   2.919  15.568
   14ARHM    H411696   6.119   2.901  15.664
   14ARHM    O411697   6.225   3.050  15.576
   14ARHM   HO411698   6.226   3.085  15.665
   14ARHM    C611699   5.959   3.012  15.462
   14ARHM   H6111700   5.875   2.987  15.394
   14ARHM   H6211701   5.926   3.017  15.568
   14ARHM   H6311702   5.990   3.113  15.435
   15ARHM    C111703   6.080   2.560  15.712
   15ARHM    H111704   6.097   2.477  15.641
   15ARHM    C511705   5.893   2.687  15.800
   15ARHM    H511706   5.939   2.787  15.782
   15ARHM    O511707   5.940   2.591  15.705
   15ARHM    C211708   6.115   2.511  15.850
   15ARHM    H211709   6.225   2.495  15.856
   15ARHM    O211710   6.048   2.385  15.866
   15ARHM    C311711   6.076   2.616  15.950
   15ARHM    H311712   6.125   2.713  15.921
   15ARHM    O311713   6.130   2.577  16.077
   15ARHM    C411714   5.926   2.636  15.939
   15ARHM    H411715   5.877   2.537  15.951
   15ARHM    O411716   5.871   2.721  16.037
   15ARHM   HO411717   5.773   2.719  16.033
   15ARHM    C611718   5.741   2.704  15.783
   15ARHM   H6111719   5.701   2.788  15.842
   15ARHM   H6211720   5.718   2.715  15.675
   15ARHM   H6311721   5.687   2.614  15.819
   16BMANN   C111722   6.061   2.312  15.986
   16BMANN   H111723   6.010   2.368  16.067
   16BMANN   C511724   6.202   2.222  16.156
   16BMANN   H511725   6.144   2.282  16.231
   16BMANN   O511726   6.196   2.289  16.028
   16BMANN   C211727   5.992   2.177  15.967
   16BMANN   H211728   5.886   2.199  15.939
   16BMANN    N11729   6.050   2.094  15.862
   16BMANN   HN11730   6.116   2.026  15.891
   16BMANN    C11731   6.009   2.089  15.735
   16BMANN    O11732   5.918   2.159  15.691
   16BMANN   CT11733   6.084   1.996  15.644
   16BMANN  HT111734   6.025   1.905  15.622
   16BMANN  HT211735   6.180   1.966  15.690
   16BMANN  HT311736   6.106   2.048  15.548
   16BMANN   C311737   5.994   2.105  16.100
   16BMANN   H311738   5.943   2.167  16.177
   16BMANN   O311739   5.919   1.985  16.092
   16BMANN  HO311740   5.862   1.979  16.168
   16BMANN   C411741   6.138   2.086  16.147
   16BMANN   H411742   6.194   2.022  16.075
   16BMANN   O411743   6.149   2.023  16.274
   16BMANN  HO411744   6.232   1.976  16.276
   16BMANN   C611745   6.342   2.214  16.213
   16BMANN  H6111746   6.335   2.213  16.324
   16BMANN  H6211747   6.391   2.119  16.179
   16BMANN   O611748   6.426   2.321  16.173
   16BMANN  HO611749   6.497   2.288  16.119
   17BGLCN   C111750   6.183   2.683  16.151
   17BGLCN   H111751   6.120   2.773  16.135
   17BGLCN   C511752   6.377   2.819  16.193
   17BGLCN   H511753   6.321   2.914  16.172
   17BGLCN   O511754   6.318   2.713  16.115
   17BGLCN   C211755   6.176   2.634  16.294
   17BGLCN   H211756   6.244   2.546  16.311
   17BGLCN    N11757   6.041   2.590  16.325
   17BGLCN   HN11758   5.970   2.636  16.274
   17BGLCN    C11759   6.005   2.503  16.418
   17BGLCN    O11760   6.083   2.435  16.484
   17BGLCN   CT11761   5.857   2.494  16.440
   17BGLCN  HT111762   5.811   2.407  16.390
   17BGLCN  HT211763   5.810   2.588  16.404
   17BGLCN  HT311764   5.837   2.485  16.548
   17BGLCN   C311765   6.224   2.750  16.380
   17BGLCN   H311766   6.164   2.837  16.346
   17BGLCN   O311767   6.195   2.723  16.520
   17BGLCN   C411768   6.370   2.779  16.342
   17BGLCN   H411769   6.430   2.685  16.351
   17BGLCN   O411770   6.427   2.878  16.427
   17BGLCN  HO411771   6.520   2.887  16.406
   17BGLCN   C611772   6.522   2.844  16.147
   17BGLCN  H6111773   6.546   2.952  16.152
   17BGLCN  H6211774   6.591   2.791  16.214
   17BGLCN   O611775   6.552   2.801  16.014
   17BGLCN  HO611776   6.491   2.841  15.952
   18AGAL    C111777   6.160   2.836  16.598
   18AGAL    H111778   6.251   2.897  16.617
   18AGAL    C511779   5.936   2.856  16.523
   18AGAL    H511780   5.952   2.757  16.477
   18AGAL    O511781   6.064   2.921  16.534
   18AGAL    C211782   6.099   2.801  16.734
   18AGAL    H211783   6.074   2.902  16.776
   18AGAL    O211784   6.193   2.743  16.824
   18AGAL    C311785   5.966   2.728  16.722
   18AGAL    H311786   5.980   2.640  16.654
   18AGAL    O311787   5.918   2.676  16.846
   18AGAL   HO311788   5.886   2.585  16.833
   18AGAL    C411789   5.869   2.822  16.654
   18AGAL    H411790   5.773   2.769  16.632
   18AGAL    O411791   5.838   2.938  16.730
   18AGAL   HO411792   5.784   2.907  16.804
   18AGAL    C611793   5.858   2.924  16.416
   18AGAL   H6111794   5.917   2.906  16.328
   18AGAL   H6211795   5.766   2.872  16.391
   18AGAL    O611796   5.833   3.063  16.433
   18AGAL   HO611797   5.892   3.096  16.503
   19ARHM    C111798   6.177   2.796  16.953
   19ARHM    H111799   6.072   2.827  16.971
   19ARHM    C511800   6.395   2.891  16.961
   19ARHM    H511801   6.409   2.851  16.858
   19ARHM    O511802   6.255   2.914  16.978
   19ARHM    C211803   6.219   2.688  17.047
   19ARHM    H211804   6.167   2.592  17.023
   19ARHM    O211805   6.185   2.724  17.181
   19ARHM    C311806   6.367   2.661  17.032
   19ARHM    H311807   6.388   2.633  16.926
   19ARHM    O311808   6.407   2.551  17.111
   19ARHM   HO311809   6.378   2.571  17.201
   19ARHM    C411810   6.444   2.788  17.061
   19ARHM    H411811   6.421   2.821  17.165
   19ARHM    O411812   6.585   2.772  17.050
   19ARHM   HO411813   6.608   2.744  16.960
   19ARHM    C611814   6.469   3.026  16.964
   19ARHM   H6111815   6.424   3.088  16.884
   19ARHM   H6211816   6.459   3.079  17.060
   19ARHM   H6311817   6.577   3.011  16.943
   20ARHM    C111818   6.047   2.714  17.206
   20ARHM    H111819   5.994   2.661  17.123
   20ARHM    C511820   6.030   2.915  17.332
   20ARHM    H511821   6.139   2.929  17.318
   20ARHM    O511822   5.980   2.840  17.221
   20ARHM    C211823   6.031   2.632  17.331
   20ARHM    H211824   6.093   2.539  17.321
   20ARHM    O211825   5.893   2.600  17.351
   20ARHM    C311826   6.083   2.707  17.449
   20ARHM    H311827   6.191   2.730  17.433
   20ARHM    O311828   6.068   2.622  17.563
   20ARHM    C411829   6.006   2.835  17.460
   20ARHM    H411830   5.896   2.819  17.468
   20ARHM    O411831   6.046   2.907  17.575
   20ARHM   HO411832   6.041   3.000  17.549
   20ARHM    C611833   5.963   3.054  17.331
   20ARHM   H6111834   5.853   3.051  17.345
   20ARHM   H6211835   6.008   3.116  17.412
   20ARHM   H6311836   5.984   3.105  17.235
   21BMANN   C111837   5.858   2.488  17.276
   21BMANN   H111838   5.942   2.461  17.208
   21BMANN   C511839   5.730   2.397  17.102
   21BMANN   H511840   5.825   2.374  17.045
   21BMANN   O511841   5.749   2.512  17.187
   21BMANN   C211842   5.828   2.372  17.369
   21BMANN   H211843   5.921   2.363  17.428
   21BMANN    N11844   5.718   2.395  17.464
   21BMANN   HN11845   5.638   2.441  17.429
   21BMANN    C11846   5.719   2.354  17.594
   21BMANN    O11847   5.804   2.275  17.633
   21BMANN   CT11848   5.609   2.404  17.685
   21BMANN  HT111849   5.514   2.350  17.666
   21BMANN  HT211850   5.595   2.513  17.670
   21BMANN  HT311851   5.635   2.390  17.792
   21BMANN   C311852   5.808   2.250  17.283
   21BMANN   H311853   5.905   2.236  17.228
   21BMANN   O311854   5.785   2.134  17.360
   21BMANN  HO311855   5.709   2.148  17.417
   21BMANN   C411856   5.696   2.275  17.184
   21BMANN   H411857   5.600   2.293  17.238
   21BMANN   O411858   5.671   2.167  17.096
   21BMANN  HO411859   5.588   2.123  17.112
   21BMANN   C611860   5.625   2.422  16.998
   21BMANN  H6111861   5.633   2.347  16.917
   21BMANN  H6211862   5.525   2.411  17.044
   21BMANN   O611863   5.639   2.552  16.943
   21BMANN  HO611864   5.626   2.617  17.013
   22BGLCN   C111865   6.169   2.631  17.660
   22BGLCN   H111866   6.218   2.731  17.661
   22BGLCN   C511867   6.366   2.534  17.747
   22BGLCN   H511868   6.410   2.636  17.753
   22BGLCN   O511869   6.267   2.528  17.643
   22BGLCN   C211870   6.098   2.608  17.791
   22BGLCN   H211871   6.052   2.506  17.787
   22BGLCN    N11872   5.995   2.708  17.809
   22BGLCN   HN11873   6.017   2.799  17.776
   22BGLCN    C11874   5.880   2.686  17.871
   22BGLCN    O11875   5.847   2.580  17.922
   22BGLCN   CT11876   5.789   2.805  17.874
   22BGLCN  HT111877   5.719   2.795  17.789
   22BGLCN  HT211878   5.848   2.898  17.862
   22BGLCN  HT311879   5.733   2.809  17.971
   22BGLCN   C311880   6.198   2.614  17.905
   22BGLCN   H311881   6.249   2.713  17.902
   22BGLCN   O311882   6.122   2.603  18.027
   22BGLCN   C411883   6.302   2.508  17.883
   22BGLCN   H411884   6.251   2.409  17.878
   22BGLCN   O411885   6.400   2.503  17.986
   22BGLCN  HO411886   6.418   2.412  18.009
   22BGLCN   C611887   6.474   2.434  17.714
   22BGLCN  H6111888   6.535   2.415  17.805
   22BGLCN  H6211889   6.428   2.338  17.682
   22BGLCN   O611890   6.567   2.478  17.615
   22BGLCN  HO611891   6.520   2.506  17.536
   23AGAL    C111892   6.179   2.648  18.147
   23AGAL    H111893   6.253   2.574  18.182
   23AGAL    C511894   6.154   2.884  18.109
   23AGAL    H511895   6.095   2.858  18.018
   23AGAL    O511896   6.245   2.776  18.137
   23AGAL    C211897   6.074   2.656  18.255
   23AGAL    H211898   6.128   2.688  18.347
   23AGAL    O211899   6.012   2.527  18.279
   23AGAL    C311900   5.975   2.768  18.225
   23AGAL    H311901   5.934   2.752  18.123
   23AGAL    O311902   5.863   2.769  18.311
   23AGAL   HO311903   5.890   2.759  18.403
   23AGAL    C411904   6.051   2.900  18.222
   23AGAL    H411905   5.984   2.985  18.198
   23AGAL    O411906   6.114   2.932  18.346
   23AGAL   HO411907   6.194   2.981  18.320
   23AGAL    C611908   6.235   3.006  18.069
   23AGAL   H6111909   6.312   2.975  17.994
   23AGAL   H6211910   6.171   3.080  18.017
   23AGAL    O611911   6.298   3.070  18.181
   23AGAL   HO611912   6.363   3.134  18.149
   24ARHM    C111913   6.078   2.436  18.365
   24ARHM    H111914   6.185   2.466  18.375
   24ARHM    C511915   5.944   2.247  18.301
   24ARHM    H511916   5.890   2.315  18.232
   24ARHM    O511917   6.077   2.299  18.318
   24ARHM    C211918   6.005   2.444  18.497
   24ARHM    H211919   5.998   2.551  18.529
   24ARHM    O211920   6.070   2.364  18.597
   24ARHM    C311921   5.863   2.391  18.479
   24ARHM    H311922   5.816   2.454  18.400
   24ARHM    O311923   5.780   2.405  18.594
   24ARHM   HO311924   5.799   2.335  18.657
   24ARHM    C411925   5.871   2.247  18.433
   24ARHM    H411926   5.931   2.187  18.506
   24ARHM    O411927   5.742   2.187  18.420
   24ARHM   HO411928   5.749   2.092  18.430
   24ARHM    C611929   5.949   2.108  18.235
   24ARHM   H6111930   5.855   2.088  18.178
   24ARHM   H6211931   6.031   2.111  18.162
   24ARHM   H6311932   5.969   2.024  18.305
   25ARHM    C111933   6.186   2.422  18.651
   25ARHM    H111934   6.222   2.502  18.583
   25ARHM    C511935   6.272   2.225  18.756
   25ARHM    H511936   6.183   2.168  18.722
   25ARHM    O511937   6.297   2.331  18.663
   25ARHM    C211938   6.151   2.484  18.783
   25ARHM    H211939   6.057   2.544  18.773
   25ARHM    O211940   6.258   2.569  18.826
   25ARHM    C311941   6.123   2.374  18.882
   25ARHM    H311942   6.038   2.312  18.845
   25ARHM    O311943   6.092   2.435  19.007
   25ARHM    C411944   6.242   2.283  18.894
   25ARHM    H411945   6.332   2.340  18.927
   25ARHM    O411946   6.213   2.180  18.988
   25ARHM   HO411947   6.293   2.162  19.039
   25ARHM    C611948   6.391   2.126  18.758
   25ARHM   H6111949   6.416   2.095  18.654
   25ARHM   H6211950   6.480   2.173  18.804
   25ARHM   H6311951   6.363   2.036  18.817
   26BMANN   C111952   6.260   2.695  18.764
   26BMANN   H111953   6.160   2.721  18.722
   26BMANN   C511954   6.353   2.836  18.595
   26BMANN   H511955   6.250   2.851  18.554
   26BMANN   O511956   6.357   2.707  18.658
   26BMANN   C211957   6.295   2.793  18.872
   26BMANN   H211958   6.213   2.784  18.949
   26BMANN    N11959   6.425   2.765  18.929
   26BMANN   HN11960   6.500   2.759  18.864
   26BMANN    C11961   6.449   2.750  19.059
   26BMANN    O11962   6.358   2.743  19.140
   26BMANN   CT11963   6.594   2.748  19.102
   26BMANN  HT111964   6.657   2.709  19.020
   26BMANN  HT211965   6.613   2.693  19.196
   26BMANN  HT311966   6.620   2.854  19.121
   26BMANN   C311967   6.287   2.930  18.812
   26BMANN   H311968   6.190   2.940  18.764
   26BMANN   O311969   6.297   3.031  18.911
   26BMANN  HO311970   6.215   3.031  18.964
   26BMANN   C411971   6.385   2.944  18.697
   26BMANN   H411972   6.488   2.930  18.734
   26BMANN   O411973   6.378   3.074  18.638
   26BMANN  HO411974   6.424   3.133  18.698
   26BMANN   C611975   6.448   2.831  18.476
   26BMANN  H6111976   6.441   2.731  18.428
   26BMANN  H6211977   6.418   2.906  18.400
   26BMANN   O611978   6.584   2.853  18.512
   26BMANN  HO611979   6.591   2.940  18.551
   27BGLCN   C111980   5.991   2.378  19.084
   27BGLCN   H111981   5.990   2.267  19.079
   27BGLCN   C511982   5.758   2.377  19.128
   27BGLCN   H511983   5.766   2.266  19.130
   27BGLCN   O511984   5.863   2.428  19.044
   27BGLCN   C211985   6.021   2.428  19.223
   27BGLCN   H211986   6.014   2.540  19.219
   27BGLCN    N11987   6.155   2.392  19.265
   27BGLCN   HN11988   6.187   2.301  19.241
   27BGLCN    C11989   6.233   2.480  19.332
   27BGLCN    O11990   6.187   2.579  19.387
   27BGLCN   CT11991   6.380   2.452  19.336
   27BGLCN  HT111992   6.407   2.367  19.272
   27BGLCN  HT211993   6.415   2.434  19.440
   27BGLCN  HT311994   6.433   2.544  19.301
   27BGLCN   C311995   5.916   2.379  19.318
   27BGLCN   H311996   5.917   2.268  19.314
   27BGLCN   O311997   5.958   2.427  19.449
   27BGLCN   C411998   5.781   2.427  19.270
   27BGLCN   H411999   5.777   2.539  19.269
   27BGLCN   O412000   5.677   2.380  19.354
   27BGLCN  HO412001   5.677   2.284  19.346
   27BGLCN   C612002   5.623   2.410  19.068
   27BGLCN  H6112003   5.545   2.351  19.121
   27BGLCN  H6212004   5.598   2.518  19.081
   27BGLCN   O612005   5.619   2.376  18.929
   27BGLCN  HO612006   5.536   2.399  18.885
   28AGAL    C112007   5.904   2.362  19.561
   28AGAL    H112008   5.799   2.395  19.569
   28AGAL    C512009   6.039   2.164  19.549
   28AGAL    H512010   6.105   2.221  19.478
   28AGAL    O512011   5.905   2.219  19.541
   28AGAL    C212012   5.969   2.393  19.698
   28AGAL    H212013   5.903   2.333  19.766
   28AGAL    O212014   5.963   2.528  19.746
   28AGAL    C312015   6.109   2.336  19.705
   28AGAL    H312016   6.168   2.379  19.621
   28AGAL    O312017   6.186   2.365  19.822
   28AGAL   HO312018   6.261   2.420  19.799
   28AGAL    C412019   6.100   2.188  19.684
   28AGAL    H412020   6.203   2.148  19.684
   28AGAL    O412021   6.026   2.121  19.785
   28AGAL   HO412022   6.087   2.085  19.850
   28AGAL    C612023   6.043   2.019  19.502
   28AGAL   H6112024   6.019   2.020  19.395
   28AGAL   H6212025   6.146   1.976  19.510
   28AGAL    O612026   5.953   1.929  19.569
   28AGAL   HO612027   5.865   1.948  19.535
   29ARHM    C112028   5.932   2.527  19.885
   29ARHM    H112029   5.964   2.433  19.933
   29ARHM    C512030   5.741   2.666  19.850
   29ARHM    H512031   5.769   2.669  19.742
   29ARHM    O512032   5.791   2.544  19.906
   29ARHM    C212033   6.005   2.639  19.953
   29ARHM    H212034   6.113   2.629  19.928
   29ARHM    O212035   5.985   2.634  20.096
   29ARHM    C312036   5.956   2.770  19.897
   29ARHM    H312037   5.977   2.774  19.788
   29ARHM    O312038   6.029   2.875  19.957
   29ARHM   HO312039   5.973   2.952  19.956
   29ARHM    C412040   5.806   2.786  19.918
   29ARHM    H412041   5.784   2.783  20.027
   29ARHM    O412042   5.754   2.911  19.873
   29ARHM   HO412043   5.779   2.930  19.781
   29ARHM    C612044   5.589   2.651  19.856
   29ARHM   H6112045   5.562   2.552  19.813
   29ARHM   H6212046   5.551   2.653  19.959
   29ARHM   H6312047   5.539   2.731  19.798
   30ARHM    C112048   6.084   2.571  20.173
   30ARHM    H112049   6.183   2.618  20.152
   30ARHM    C512050   5.972   2.360  20.186
   30ARHM    H512051   5.891   2.408  20.128
   30ARHM    O512052   6.094   2.429  20.152
   30ARHM    C212053   6.051   2.592  20.319
   30ARHM    H212054   6.040   2.701  20.339
   30ARHM    O212055   6.155   2.535  20.397
   30ARHM    C312056   5.923   2.522  20.359
   30ARHM    H312057   5.844   2.558  20.288
   30ARHM    O312058   5.881   2.560  20.491
   30ARHM    C412059   5.938   2.374  20.333
   30ARHM    H412060   6.023   2.331  20.392
   30ARHM    O412061   5.823   2.297  20.371
   30ARHM   HO412062   5.754   2.298  20.303
   30ARHM    C612063   5.980   2.215  20.140
   30ARHM   H6112064   5.883   2.164  20.160
   30ARHM   H6212065   6.001   2.207  20.032
   30ARHM   H6312066   6.060   2.164  20.196
   31BMANN   C112067   6.260   2.621  20.426
   31BMANN   H112068   6.220   2.722  20.452
   31BMANN   C512069   6.470   2.710  20.356
   31BMANN   H512070   6.426   2.808  20.387
   31BMANN   O512071   6.358   2.627  20.322
   31BMANN   C212072   6.324   2.558  20.545
   31BMANN   H212073   6.249   2.562  20.628
   31BMANN    N12074   6.357   2.419  20.518
   31BMANN   HN12075   6.363   2.393  20.422
   31BMANN    C12076   6.363   2.326  20.613
   31BMANN    O12077   6.339   2.352  20.730
   31BMANN   CT12078   6.399   2.188  20.569
   31BMANN  HT112079   6.479   2.194  20.492
   31BMANN  HT212080   6.309   2.138  20.527
   31BMANN  HT312081   6.434   2.127  20.656
   31BMANN   C312082   6.439   2.646  20.585
   31BMANN   H312083   6.403   2.750  20.603
   31BMANN   O312084   6.487   2.607  20.711
   31BMANN  HO312085   6.427   2.543  20.750
   31BMANN   C412086   6.543   2.654  20.476
   31BMANN   H412087   6.583   2.553  20.449
   31BMANN   O412088   6.653   2.738  20.507
   31BMANN  HO412089   6.627   2.814  20.559
   31BMANN   C612090   6.566   2.738  20.241
   31BMANN  H6112091   6.635   2.821  20.268
   31BMANN  H6212092   6.630   2.648  20.224
   31BMANN   O612093   6.500   2.769  20.117
   31BMANN  HO612094   6.456   2.854  20.112
   32BGLCN   C112095   5.940   2.490  20.598
   32BGLCN   H112096   6.046   2.472  20.577
   32BGLCN   C512097   5.949   2.292  20.729
   32BGLCN   H512098   6.055   2.280  20.695
   32BGLCN   O512099   5.879   2.364  20.627
   32BGLCN   C212100   5.933   2.577  20.722
   32BGLCN   H212101   5.825   2.581  20.752
   32BGLCN    N12102   5.979   2.711  20.693
   32BGLCN   HN12103   6.047   2.713  20.623
   32BGLCN    C12104   5.929   2.826  20.744
   32BGLCN    O12105   5.840   2.830  20.827
   32BGLCN   CT12106   5.996   2.950  20.689
   32BGLCN  HT112107   6.048   2.922  20.596
   32BGLCN  HT212108   6.069   2.992  20.760
   32BGLCN  HT312109   5.920   3.029  20.667
   32BGLCN   C312110   6.014   2.507  20.829
   32BGLCN   H312111   6.114   2.486  20.784
   32BGLCN   O312112   6.034   2.586  20.947
   32BGLCN   C412113   5.946   2.374  20.856
   32BGLCN   H412114   5.840   2.395  20.886
   32BGLCN   O412115   6.006   2.300  20.961
   32BGLCN  HO412116   5.973   2.332  21.045
   32BGLCN   C612117   5.893   2.152  20.741
   32BGLCN  H6112118   5.956   2.088  20.807
   32BGLCN  H6212119   5.792   2.156  20.786
   32BGLCN   O612120   5.883   2.085  20.616
   32BGLCN  HO612121   5.958   2.108  20.559
   33AGAL    C112122   6.163   2.570  21.005
   33AGAL    H112123   6.195   2.464  20.997
   33AGAL    C512124   6.239   2.793  20.958
   33AGAL    H512125   6.134   2.806  20.921
   33AGAL    O512126   6.264   2.653  20.942
   33AGAL    C212127   6.157   2.610  21.151
   33AGAL    H212128   6.261   2.601  21.190
   33AGAL    O212129   6.080   2.511  21.224
   33AGAL    C312130   6.121   2.758  21.167
   33AGAL    H312131   6.028   2.778  21.109
   33AGAL    O312132   6.087   2.798  21.299
   33AGAL   HO312133   6.156   2.772  21.361
   33AGAL    C412134   6.234   2.840  21.102
   33AGAL    H412135   6.208   2.948  21.104
   33AGAL    O412136   6.361   2.837  21.168
   33AGAL   HO412137   6.372   2.759  21.223
   33AGAL    C612138   6.324   2.877  20.863
   33AGAL   H6112139   6.296   2.845  20.760
   33AGAL   H6212140   6.299   2.985  20.874
   33AGAL    O612141   6.466   2.867  20.877
   33AGAL   HO612142   6.503   2.791  20.828
   34ARHM    C112143   6.143   2.464  21.341
   34ARHM    H112144   6.175   2.552  21.401
   34ARHM    C512145   6.234   2.261  21.243
   34ARHM    H512146   6.198   2.293  21.143
   34ARHM    O512147   6.260   2.380  21.320
   34ARHM    C212148   6.036   2.386  21.418
   34ARHM    H212149   5.943   2.448  21.422
   34ARHM    O212150   6.073   2.353  21.555
   34ARHM    C312151   6.003   2.260  21.338
   34ARHM    H312152   5.966   2.289  21.237
   34ARHM    O312153   5.902   2.182  21.402
   34ARHM   HO312154   5.841   2.147  21.334
   34ARHM    C412155   6.128   2.179  21.316
   34ARHM    H412156   6.173   2.151  21.414
   34ARHM    O412157   6.097   2.059  21.244
   34ARHM   HO412158   6.057   1.996  21.305
   34ARHM    C612159   6.362   2.177  21.220
   34ARHM   H6112160   6.412   2.145  21.314
   34ARHM   H6212161   6.335   2.082  21.169
   34ARHM   H6312162   6.437   2.227  21.155
   35ARHM    C112163   6.110   2.457  21.643
   35ARHM    H112164   6.045   2.546  21.623
   35ARHM    C512165   6.337   2.381  21.657
   35ARHM    H512166   6.315   2.298  21.587
   35ARHM    O512167   6.249   2.492  21.630
   35ARHM    C212168   6.088   2.414  21.788
   35ARHM    H212169   5.981   2.387  21.805
   35ARHM    O212170   6.120   2.519  21.879
   35ARHM    C312171   6.172   2.292  21.820
   35ARHM    H312172   6.147   2.210  21.748
   35ARHM    O312173   6.147   2.238  21.949
   35ARHM   HO312174   6.120   2.310  22.009
   35ARHM    C412175   6.318   2.331  21.801
   35ARHM    H412176   6.344   2.414  21.870
   35ARHM    O412177   6.403   2.221  21.833
   35ARHM   HO412178   6.368   2.141  21.793
   35ARHM    C612179   6.482   2.425  21.622
   35ARHM   H6112180   6.494   2.446  21.514
   35ARHM   H6212181   6.508   2.517  21.679
   35ARHM   H6312182   6.553   2.344  21.647
   36BMANN   C112183   6.028   2.626  21.884
   36BMANN   H112184   5.928   2.591  21.850
   36BMANN   C512185   5.963   2.840  21.808
   36BMANN   H512186   5.865   2.795  21.780
   36BMANN   O512187   6.064   2.738  21.802
   36BMANN   C212188   6.021   2.670  22.029
   36BMANN   H212189   5.984   2.580  22.085
   36BMANN    N12190   6.149   2.711  22.087
   36BMANN   HN12191   6.212   2.761  22.028
   36BMANN    C12192   6.174   2.700  22.218
   36BMANN    O12193   6.101   2.638  22.294
   36BMANN   CT12194   6.299   2.766  22.271
   36BMANN  HT112195   6.311   2.865  22.224
   36BMANN  HT212196   6.389   2.705  22.250
   36BMANN  HT312197   6.290   2.778  22.381
   36BMANN   C312198   5.913   2.778  22.038
   36BMANN   H312199   5.817   2.734  22.002
   36BMANN   O312200   5.894   2.827  22.170
   36BMANN  HO312201   5.810   2.796  22.207
   36BMANN   C412202   5.948   2.893  21.948
   36BMANN   H412203   6.045   2.938  21.981
   36BMANN   O412204   5.849   2.995  21.958
   36BMANN  HO412205   5.852   3.010  22.054
   36BMANN   C612206   5.989   2.950  21.708
   36BMANN  H6112207   6.001   2.908  21.606
   36BMANN  H6212208   5.900   3.017  21.706
   36BMANN   O612209   6.106   3.025  21.741
   36BMANN  HO612210   6.083   3.096  21.802
    1ECLIP HB6S12211   3.027   1.664  11.778
    1ECLIP  OB612212   2.878   1.607  11.908
    1ECLIP  CB612213   2.973   1.571  11.805
    1ECLIP HB6R12214   3.049   1.500  11.845
    1ECLIP  CB512215   2.915   1.508  11.679
    1ECLIP  OB512216   2.816   1.602  11.632
    1ECLIP  HB512217   2.867   1.412  11.708
    1ECLIP  CB112218   2.749   1.554  11.515
    1ECLIP  HB112219   2.701   1.454  11.533
    1ECLIP  OA612220   2.648   1.641  11.469
    1ECLIP  CA612221   2.672   1.780  11.493
    1ECLIP HA6R12222   2.779   1.803  11.512
    1ECLIP HA6S12223   2.611   1.812  11.581
    1ECLIP  CB412224   3.020   1.480  11.569
    1ECLIP  HB412225   3.074   1.573  11.541
    1ECLIP  OB412226   3.106   1.375  11.617
    1ECLIP   PB12227   3.262   1.408  11.663
    1ECLIP OPB412228   3.300   1.311  11.775
    1ECLIP OPB312229   3.259   1.556  11.702
    1ECLIP OPB212230   3.348   1.370  11.542
    1ECLIP  CB312231   2.947   1.430  11.445
    1ECLIP  OB312232   3.030   1.412  11.331
    1ECLIP  HB312233   2.889   1.339  11.470
    1ECLIP  C7112234   3.091   1.297  11.311
    1ECLIP  O7112235   3.059   1.191  11.363
    1ECLIP  C7212236   3.162   1.301  11.175
    1ECLIP H72R12237   3.089   1.330  11.097
    1ECLIP H72S12238   3.202   1.199  11.154
    1ECLIP  CB212239   2.846   1.535  11.403
    1ECLIP  HB212240   2.901   1.632  11.387
    1ECLIP  NB212241   2.776   1.493  11.282
    1ECLIP HNB212242   2.694   1.439  11.294
    1ECLIP  CA412243   2.495   1.806  11.316
    1ECLIP  HA412244   2.509   1.699  11.290
    1ECLIP  OA412245   2.397   1.820  11.418
    1ECLIP HOA412246   2.429   1.782  11.500
    1ECLIP  CA512247   2.628   1.856  11.370
    1ECLIP  HA512248   2.629   1.966  11.391
    1ECLIP  OA512249   2.727   1.828  11.272
    1ECLIP  CA112250   2.705   1.896  11.149
    1ECLIP  HA112251   2.774   1.845  11.079
    1ECLIP  OA112252   2.757   2.024  11.148
    1ECLIP OPA212253   2.863   2.150  11.343
    1ECLIP OPA312254   2.996   1.972  11.227
    1ECLIP OPA412255   2.941   2.186  11.108
    1ECLIP   PA12256   2.897   2.083  11.210
    1ECLIP  CA312257   2.456   1.875  11.189
    1ECLIP  HA312258   2.427   1.974  11.214
    1ECLIP  OA312259   2.329   1.822  11.155
    1ECLIP  C3112260   2.313   1.714  11.084
    1ECLIP  O3112261   2.336   1.705  10.964
    1ECLIP  C3212262   2.239   1.608  11.165
    1ECLIP H32R12263   2.144   1.593  11.108
    1ECLIP H32S12264   2.213   1.651  11.264
    1ECLIP  CA212265   2.569   1.853  11.089
    1ECLIP  HA212266   2.577   1.744  11.070
    1ECLIP  NA212267   2.541   1.918  10.959
    1ECLIP HNA212268   2.450   1.958  10.948
    1ECLIP  C7312269   3.276   1.403  11.172
    1ECLIP H73R12270   3.337   1.389  11.265
    1ECLIP  O7312271   3.214   1.530  11.164
    1ECLIP  C8112272   3.268   1.632  11.230
    1ECLIP  O8112273   3.374   1.629  11.290
    1ECLIP  C8212274   3.209   1.762  11.170
    1ECLIP H82R12275   3.253   1.849  11.223
    1ECLIP H82S12276   3.100   1.765  11.192
    1ECLIP  C8312277   3.230   1.776  11.017
    1ECLIP H83R12278   3.151   1.717  10.965
    1ECLIP H83S12279   3.328   1.734  10.990
    1ECLIP  C8412280   3.214   1.921  10.966
    1ECLIP H84R12281   3.300   1.984  10.996
    1ECLIP H84S12282   3.121   1.961  11.012
    1ECLIP  C8512283   3.193   1.927  10.813
    1ECLIP H85R12284   3.121   1.845  10.791
    1ECLIP H85S12285   3.287   1.903  10.760
    1ECLIP  C8612286   3.126   2.057  10.765
    1ECLIP H86R12287   3.201   2.133  10.736
    1ECLIP H86S12288   3.068   2.102  10.849
    1ECLIP  C8712289   3.023   2.033  10.652
    1ECLIP H87R12290   2.984   2.131  10.616
    1ECLIP H87S12291   2.936   1.978  10.694
    1ECLIP  C8812292   3.080   1.948  10.538
    1ECLIP H88R12293   3.084   1.842  10.571
    1ECLIP H88S12294   3.186   1.977  10.524
    1ECLIP  C8912295   2.999   1.958  10.408
    1ECLIP H89R12296   2.895   1.993  10.426
    1ECLIP H89S12297   2.988   1.857  10.362
    1ECLIP C81012298   3.071   2.046  10.306
    1ECLIPH810R12299   3.180   2.038  10.329
    1ECLIPH810S12300   3.039   2.151  10.323
    1ECLIP C81112301   3.047   2.006  10.160
    1ECLIPH811R12302   3.069   2.090  10.090
    1ECLIPH811S12303   2.939   1.980  10.152
    1ECLIP C81212304   3.125   1.883  10.110
    1ECLIPH812R12305   3.086   1.860  10.008
    1ECLIPH812S12306   3.105   1.797  10.177
    1ECLIP C81312307   3.277   1.899  10.100
    1ECLIPH813R12308   3.298   1.982  10.029
    1ECLIPH813S12309   3.321   1.926  10.199
    1ECLIP C81412310   3.344   1.772  10.049
    1ECLIPH814R12311   3.295   1.731   9.958
    1ECLIPH814S12312   3.343   1.694  10.128
    1ECLIPH814T12313   3.450   1.793  10.024
    1ECLIP  C7412314   3.370   1.392  11.049
    1ECLIP H74R12315   3.425   1.296  11.041
    1ECLIP H74S12316   3.448   1.470  11.068
    1ECLIP  C7512317   3.304   1.430  10.915
    1ECLIP H75R12318   3.380   1.486  10.856
    1ECLIP H75S12319   3.219   1.499  10.933
    1ECLIP  C7612320   3.253   1.313  10.830
    1ECLIP H76R12321   3.156   1.280  10.873
    1ECLIP H76S12322   3.322   1.225  10.835
    1ECLIP  C7712323   3.237   1.349  10.681
    1ECLIP H77R12324   3.334   1.372  10.637
    1ECLIP H77S12325   3.170   1.436  10.668
    1ECLIP  C7812326   3.171   1.236  10.605
    1ECLIP H78R12327   3.209   1.137  10.640
    1ECLIP H78S12328   3.067   1.254  10.641
    1ECLIP  C7912329   3.134   1.249  10.459
    1ECLIP H79R12330   3.030   1.289  10.452
    1ECLIP H79S12331   3.141   1.152  10.404
    1ECLIP C71012332   3.228   1.324  10.376
    1ECLIPH710R12333   3.236   1.425  10.421
    1ECLIPH710S12334   3.323   1.267  10.382
    1ECLIP C71112335   3.179   1.331  10.233
    1ECLIPH711R12336   3.168   1.229  10.190
    1ECLIPH711S12337   3.080   1.383  10.228
    1ECLIP C71212338   3.283   1.412  10.158
    1ECLIPH712R12339   3.379   1.356  10.161
    1ECLIPH712S12340   3.297   1.505  10.217
    1ECLIP C71312341   3.242   1.446  10.015
    1ECLIPH713R12342   3.149   1.508  10.020
    1ECLIPH713S12343   3.321   1.509   9.968
    1ECLIP C71412344   3.221   1.326   9.923
    1ECLIPH714R12345   3.315   1.267   9.916
    1ECLIPH714S12346   3.138   1.260   9.959
    1ECLIPH714T12347   3.196   1.362   9.822
    1ECLIP  C5112348   2.825   1.519  11.159
    1ECLIP  O5112349   2.914   1.601  11.143
    1ECLIP  C5212350   2.771   1.441  11.042
    1ECLIP H52R12351   2.829   1.347  11.029
    1ECLIP H52S12352   2.666   1.414  11.061
    1ECLIP  C5312353   2.781   1.525  10.913
    1ECLIP H53R12354   2.764   1.634  10.935
    1ECLIP  O5312355   2.684   1.470  10.821
    1ECLIP  C6112356   2.579   1.546  10.788
    1ECLIP  O6112357   2.560   1.660  10.820
    1ECLIP  C6212358   2.486   1.466  10.695
    1ECLIP H62R12359   2.422   1.401  10.758
    1ECLIP H62S12360   2.552   1.399  10.637
    1ECLIP  C6312361   2.399   1.560  10.607
    1ECLIP H63R12362   2.465   1.637  10.563
    1ECLIP H63S12363   2.322   1.611  10.669
    1ECLIP  C6412364   2.328   1.493  10.487
    1ECLIP H64R12365   2.263   1.568  10.435
    1ECLIP H64S12366   2.264   1.413  10.528
    1ECLIP  C6512367   2.431   1.436  10.389
    1ECLIP H65R12368   2.484   1.360  10.450
    1ECLIP H65S12369   2.503   1.514  10.358
    1ECLIP  C6612370   2.380   1.364  10.262
    1ECLIP H66R12371   2.312   1.281  10.292
    1ECLIP H66S12372   2.471   1.320  10.216
    1ECLIP  C6712373   2.312   1.449  10.153
    1ECLIP H67R12374   2.228   1.509  10.193
    1ECLIP H67S12375   2.270   1.382  10.074
    1ECLIP  C6812376   2.403   1.550  10.086
    1ECLIP H68R12377   2.498   1.507  10.047
    1ECLIP H68S12378   2.428   1.625  10.164
    1ECLIP  C6912379   2.333   1.610   9.965
    1ECLIP H69R12380   2.222   1.615   9.975
    1ECLIP H69S12381   2.352   1.540   9.881
    1ECLIP C61012382   2.384   1.749   9.932
    1ECLIPH610R12383   2.496   1.751   9.938
    1ECLIPH610S12384   2.346   1.822  10.006
    1ECLIP C61112385   2.336   1.787   9.793
    1ECLIPH611R12386   2.225   1.786   9.790
    1ECLIPH611S12387   2.364   1.889   9.771
    1ECLIP C61212388   2.403   1.709   9.680
    1ECLIPH612R12389   2.510   1.737   9.675
    1ECLIPH612S12390   2.394   1.601   9.699
    1ECLIPH612T12391   2.357   1.727   9.581
    1ECLIP  C5412392   2.923   1.506  10.853
    1ECLIP H54R12393   2.932   1.399  10.824
    1ECLIP H54S12394   2.997   1.526  10.934
    1ECLIP  C5512395   2.961   1.595  10.733
    1ECLIP H55R12396   3.071   1.594  10.719
    1ECLIP H55S12397   2.934   1.700  10.756
    1ECLIP  C5612398   2.895   1.540  10.605
    1ECLIP H56R12399   2.786   1.535  10.622
    1ECLIP H56S12400   2.931   1.436  10.586
    1ECLIP  C5712401   2.910   1.622  10.477
    1ECLIP H57R12402   3.017   1.642  10.454
    1ECLIP H57S12403   2.860   1.720  10.492
    1ECLIP  C5812404   2.841   1.548  10.360
    1ECLIP H58R12405   2.872   1.442  10.359
    1ECLIP H58S12406   2.732   1.547  10.382
    1ECLIP  C5912407   2.873   1.610  10.223
    1ECLIP H59R12408   2.984   1.612  10.208
    1ECLIP H59S12409   2.838   1.715  10.231
    1ECLIP C51012410   2.817   1.533  10.100
    1ECLIPH510R12411   2.712   1.502  10.118
    1ECLIPH510S12412   2.877   1.441  10.088
    1ECLIP C51112413   2.822   1.607   9.964
    1ECLIPH511R12414   2.739   1.680   9.963
    1ECLIPH511S12415   2.917   1.664   9.957
    1ECLIP C51212416   2.807   1.518   9.839
    1ECLIPH512R12417   2.843   1.573   9.749
    1ECLIPH512S12418   2.872   1.429   9.851
    1ECLIP C51312419   2.662   1.478   9.804
    1ECLIPH513R12420   2.600   1.569   9.792
    1ECLIPH513S12421   2.618   1.416   9.886
    1ECLIP C51412422   2.645   1.399   9.675
    1ECLIPH514R12423   2.713   1.313   9.677
    1ECLIPH514S12424   2.544   1.357   9.663
    1ECLIPH514T12425   2.667   1.464   9.588
    1ECLIP  C3312426   2.306   1.469  11.183
    1ECLIP H33R12427   2.228   1.400  11.223
    1ECLIP  O3312428   2.408   1.479  11.280
    1ECLIP HO3312429   2.373   1.490  11.369
    1ECLIP  C3412430   2.366   1.404  11.057
    1ECLIP H34R12431   2.447   1.470  11.018
    1ECLIP H34S12432   2.289   1.398  10.977
    1ECLIP  C3512433   2.422   1.263  11.083
    1ECLIP H35R12434   2.343   1.191  11.113
    1ECLIP H35S12435   2.499   1.268  11.163
    1ECLIP  C3612436   2.485   1.205  10.961
    1ECLIP H36R12437   2.531   1.291  10.906
    1ECLIP H36S12438   2.417   1.152  10.890
    1ECLIP  C3712439   2.597   1.115  10.998
    1ECLIP H37R12440   2.565   1.009  11.009
    1ECLIP H37S12441   2.657   1.144  11.087
    1ECLIP  C3812442   2.685   1.123  10.880
    1ECLIP H38R12443   2.753   1.212  10.873
    1ECLIP H38S12444   2.729   1.025  10.909
    1ECLIP  C3912445   2.613   1.112  10.753
    1ECLIP H39R12446   2.549   1.193  10.721
    1ECLIP H39S12447   2.574   1.010  10.772
    1ECLIP C31012448   2.697   1.125  10.641
    1ECLIPH310R12449   2.728   1.019  10.667
    1ECLIPH310S12450   2.769   1.211  10.637
    1ECLIP C31112451   2.655   1.162  10.508
    1ECLIPH311R12452   2.585   1.090  10.484
    1ECLIPH311S12453   2.647   1.262  10.471
    1ECLIP C31212454   2.761   1.164  10.420
    1ECLIPH312R12455   2.870   1.182  10.453
    1ECLIPH312S12456   2.756   1.047  10.465
    1ECLIP C31312457   2.738   1.202  10.242
    1ECLIPH313R12458   2.637   1.161  10.212
    1ECLIPH313S12459   2.713   1.307  10.257
    1ECLIP C31412460   2.854   1.203  10.102
    1ECLIPH314R12461   2.910   1.113  10.056
    1ECLIPH314S12462   2.823   1.215   9.994
    1ECLIPH314T12463   2.959   1.220  10.129
    1ECLIP  C1112464   2.632   1.951  10.867
    1ECLIP  O1112465   2.743   1.901  10.852
    1ECLIP  C1212466   2.589   2.054  10.775
    1ECLIP H12R12467   2.645   2.150  10.793
    1ECLIP H12S12468   2.481   2.079  10.788
    1ECLIP  C1312469   2.607   1.987  10.642
    1ECLIP H13R12470   2.705   1.951  10.609
    1ECLIP  O1312471   2.641   2.093  10.577
    1ECLIP HO1312472   2.643   2.106  10.482
    1ECLIP  C1412473   2.483   1.924  10.584
    1ECLIP H14R12474   2.392   1.963  10.635
    1ECLIP H14S12475   2.508   1.821  10.614
    1ECLIP  C1512476   2.459   1.926  10.433
    1ECLIP H15R12477   2.440   2.030  10.398
    1ECLIP H15S12478   2.364   1.871  10.418
    1ECLIP  C1612479   2.573   1.856  10.359
    1ECLIP H16R12480   2.568   1.747  10.369
    1ECLIP H16S12481   2.670   1.890  10.401
    1ECLIP  C1712482   2.569   1.882  10.212
    1ECLIP H17R12483   2.462   1.887  10.177
    1ECLIP H17S12484   2.628   1.818  10.143
    1ECLIP  C1812485   2.629   2.012  10.191
    1ECLIP H18R12486   2.553   2.076  10.245
    1ECLIP H18S12487   2.731   2.040  10.224
    1ECLIP  C1912488   2.621   2.033  10.047
    1ECLIP H19R12489   2.663   2.131  10.024
    1ECLIP H19S12490   2.513   2.018  10.019
    1ECLIP C11012491   2.718   1.990   9.944
    1ECLIPH110R12492   2.820   2.009   9.982
    1ECLIPH110S12493   2.683   1.887   9.939
    1ECLIP C11112494   2.703   2.064   9.810
    1ECLIPH111R12495   2.597   2.069   9.778
    1ECLIPH111S12496   2.738   2.169   9.814
    1ECLIP C11212497   2.782   1.985   9.706
    1ECLIPH112R12498   2.886   1.997   9.742
    1ECLIPH112S12499   2.755   1.877   9.715
    1ECLIP C11312500   2.752   2.031   9.563
    1ECLIPH113R12501   2.647   2.002   9.539
    1ECLIPH113S12502   2.758   2.141   9.562
    1ECLIP C11412503   2.844   1.985   9.451
    1ECLIPH114R12504   2.951   2.008   9.469
    1ECLIPH114S12505   2.834   1.876   9.433
    1ECLIPH114T12506   2.819   2.041   9.358
    2AKDO    C112507   2.836   1.383  11.962
    2AKDO   O1112508   2.923   1.302  11.923
    2AKDO   O1212509   2.711   1.371  11.946
    2AKDO    C212510   2.883   1.521  12.020
    2AKDO    C612511   3.065   1.644  12.121
    2AKDO    H612512   3.059   1.710  12.031
    2AKDO    O612513   3.016   1.515  12.080
    2AKDO    C312514   2.791   1.582  12.127
    2AKDO   H3112515   2.781   1.513  12.214
    2AKDO   H3212516   2.691   1.596  12.081
    2AKDO    C412517   2.840   1.717  12.173
    2AKDO    H412518   2.851   1.784  12.084
    2AKDO    O412519   2.754   1.773  12.273
    2AKDO    C512520   2.978   1.707  12.232
    2AKDO    H512521   3.016   1.811  12.244
    2AKDO    O512522   2.967   1.640  12.362
    2AKDO    C712523   3.214   1.638  12.152
    2AKDO    H712524   3.228   1.579  12.243
    2AKDO    O712525   3.266   1.770  12.172
    2AKDO   HO712526   3.288   1.801  12.083
    2AKDO    C812527   3.290   1.572  12.039
    2AKDO   H8112528   3.245   1.470  12.022
    2AKDO   H8212529   3.275   1.631  11.945
    2AKDO    O812530   3.430   1.558  12.070
    2AKDO   HO812531   3.457   1.477  12.023
    3AKDO    C112532   2.660   1.934  12.116
    3AKDO   O1112533   2.626   1.893  12.002
    3AKDO   O1212534   2.720   2.041  12.145
    3AKDO    C212535   2.634   1.840  12.238
    3AKDO    C612536   2.502   1.652  12.314
    3AKDO    H612537   2.595   1.593  12.334
    3AKDO    O612538   2.527   1.748  12.208
    3AKDO    C312539   2.597   1.913  12.369
    3AKDO   H3112540   2.504   1.973  12.352
    3AKDO   H3212541   2.675   1.987  12.396
    3AKDO    C412542   2.576   1.813  12.479
    3AKDO    H412543   2.667   1.748  12.484
    3AKDO    O412544   2.557   1.870  12.607
    3AKDO   HO412545   2.623   1.838  12.671
    3AKDO    C512546   2.461   1.724  12.441
    3AKDO    H512547   2.446   1.652  12.524
    3AKDO    O512548   2.339   1.797  12.419
    3AKDO   HO512549   2.360   1.865  12.354
    3AKDO    C712550   2.396   1.556  12.270
    3AKDO    H712551   2.302   1.613  12.248
    3AKDO    O712552   2.368   1.464  12.376
    3AKDO   HO712553   2.294   1.410  12.348
    3AKDO    C812554   2.441   1.482  12.146
    3AKDO   H8112555   2.471   1.556  12.069
    3AKDO   H8212556   2.530   1.421  12.168
    3AKDO    O812557   2.332   1.403  12.094
    3AKDO   HO812558   2.280   1.475  12.058
    4AHEP    C112559   3.061   1.677  12.461
    4AHEP    H112560   3.155   1.628  12.427
    4AHEP    C512561   2.989   1.895  12.536
    4AHEP    H512562   2.891   1.871  12.488
    4AHEP    O512563   3.090   1.817  12.469
    4AHEP    C212564   3.045   1.628  12.606
    4AHEP    H212565   3.017   1.521  12.603
    4AHEP    O212566   3.170   1.634  12.673
    4AHEP   HO212567   3.183   1.556  12.725
    4AHEP    C312568   2.939   1.702  12.686
    4AHEP    H312569   2.836   1.685  12.646
    4AHEP    O312570   2.944   1.661  12.824
    4AHEP    C412571   2.976   1.849  12.682
    4AHEP    H412572   3.073   1.870  12.733
    4AHEP    O412573   2.868   1.918  12.742
    4AHEP    P412574   2.884   2.002  12.884
    4AHEP  OP4212575   2.747   1.987  12.948
    4AHEP  OP4312576   2.919   2.144  12.840
    4AHEP  OP4412577   2.996   1.936  12.963
    4AHEP    C612578   3.019   2.045  12.517
    4AHEP    H612579   2.925   2.100  12.545
    4AHEP    O612580   3.124   2.096  12.603
    4AHEP   HO612581   3.083   2.160  12.663
    4AHEP    C712582   3.052   2.083  12.370
    4AHEP   H7112583   3.041   2.192  12.354
    4AHEP   H7212584   2.979   2.034  12.302
    4AHEP    O712585   3.183   2.046  12.324
    4AHEP   HO712586   3.239   2.105  12.375
    5AHEP    C112587   2.828   1.607  12.882
    5AHEP    H112588   2.736   1.649  12.834
    5AHEP    C512589   2.943   1.406  12.934
    5AHEP    H512590   3.035   1.455  12.897
    5AHEP    O512591   2.830   1.465  12.864
    5AHEP    C212592   2.820   1.636  13.033
    5AHEP    H212593   2.828   1.747  13.045
    5AHEP    O212594   2.691   1.596  13.084
    5AHEP   HO212595   2.644   1.679  13.098
    5AHEP    C312596   2.937   1.575  13.110
    5AHEP    H312597   3.031   1.617  13.068
    5AHEP    O312598   2.936   1.594  13.253
    5AHEP    C412599   2.936   1.426  13.084
    5AHEP    H412600   2.840   1.381  13.122
    5AHEP    O412601   3.055   1.368  13.140
    5AHEP    P412602   3.039   1.258  13.266
    5AHEP  OP4212603   3.182   1.228  13.318
    5AHEP  OP4312604   2.995   1.132  13.195
    5AHEP  OP4412605   2.946   1.324  13.368
    5AHEP    C612606   2.953   1.263  12.894
    5AHEP    H612607   3.041   1.213  12.943
    5AHEP    O612608   2.838   1.197  12.940
    5AHEP   HO612609   2.761   1.195  12.885
    5AHEP    C712610   2.970   1.251  12.747
    5AHEP   H7112611   3.054   1.181  12.742
    5AHEP   H7212612   3.019   1.336  12.697
    5AHEP    O712613   2.852   1.206  12.679
    6AHEP    C112614   2.785   1.313  12.620
    6AHEP    H112615   2.835   1.409  12.642
    6AHEP    C512616   2.723   1.192  12.437
    6AHEP    H512617   2.741   1.097  12.488
    6AHEP    O512618   2.797   1.303  12.482
    6AHEP    C212619   2.639   1.324  12.661
    6AHEP    H212620   2.640   1.333  12.772
    6AHEP    O212621   2.584   1.442  12.606
    6AHEP   HO212622   2.568   1.501  12.680
    6AHEP    C312623   2.563   1.201  12.622
    6AHEP    H312624   2.620   1.122  12.671
    6AHEP    O312625   2.425   1.203  12.671
    6AHEP   HO312626   2.415   1.133  12.733
    6AHEP    C412627   2.573   1.189  12.472
    6AHEP    H412628   2.519   1.265  12.414
    6AHEP    O412629   2.514   1.060  12.443
    6AHEP   HO412630   2.573   0.985  12.448
    6AHEP    C612631   2.766   1.219  12.288
    6AHEP    H612632   2.682   1.160  12.277
    6AHEP    O612633   2.681   1.257  12.188
    6AHEP   HO612634   2.739   1.275  12.113
    6AHEP    C712635   2.905   1.196  12.220
    6AHEP   H7112636   2.918   1.138  12.123
    6AHEP   H7212637   2.963   1.128  12.273
    6AHEP    O712638   3.001   1.290  12.259
    6AHEP   HO712639   2.997   1.274  12.352
    7AGLC    C112640   3.005   1.705  13.303
    7AGLC    H112641   3.102   1.717  13.253
    7AGLC    C512642   2.803   1.826  13.346
    7AGLC    H512643   2.746   1.735  13.318
    7AGLC    O512644   2.931   1.824  13.280
    7AGLC    C212645   3.031   1.703  13.454
    7AGLC    H212646   3.075   1.802  13.480
    7AGLC    O212647   3.127   1.606  13.495
    7AGLC   HO212648   3.084   1.518  13.492
    7AGLC    C312649   2.903   1.695  13.533
    7AGLC    H312650   2.847   1.606  13.497
    7AGLC    O312651   2.926   1.678  13.676
    7AGLC    C412652   2.824   1.821  13.497
    7AGLC    H412653   2.884   1.911  13.529
    7AGLC    O412654   2.697   1.822  13.561
    7AGLC   HO412655   2.682   1.906  13.606
    7AGLC    C612656   2.725   1.943  13.287
    7AGLC   H6112657   2.718   1.929  13.177
    7AGLC   H6212658   2.621   1.949  13.325
    7AGLC    O612659   2.790   2.067  13.312
    7AGLC   HO612660   2.749   2.109  13.386
    8AGLC    C112661   2.873   1.557  13.729
    8AGLC    H112662   2.771   1.540  13.687
    8AGLC    C512663   3.084   1.435  13.759
    8AGLC    H512664   3.138   1.525  13.724
    8AGLC    O512665   2.953   1.440  13.698
    8AGLC    C212666   2.856   1.561  13.880
    8AGLC    H212667   2.805   1.466  13.906
    8AGLC    O212668   2.774   1.668  13.931
    8AGLC    C312669   2.989   1.563  13.950
    8AGLC    H312670   3.039   1.653  13.910
    8AGLC    O312671   2.971   1.589  14.091
    8AGLC    C412672   3.067   1.438  13.911
    8AGLC    H412673   3.003   1.351  13.940
    8AGLC    O412674   3.193   1.430  13.979
    8AGLC   HO412675   3.226   1.519  13.969
    8AGLC    C612676   3.171   1.317  13.710
    8AGLC   H6112677   3.167   1.306  13.599
    8AGLC   H6212678   3.277   1.336  13.736
    8AGLC    O612679   3.142   1.191  13.771
    8AGLC   HO612680   3.170   1.186  13.861
    9AGAL    C112681   2.644   1.680  13.879
    9AGAL    H112682   2.646   1.678  13.768
    9AGAL    C512683   2.534   1.581  14.065
    9AGAL    H512684   2.635   1.584  14.111
    9AGAL    O512685   2.554   1.576  13.922
    9AGAL    C212686   2.593   1.818  13.920
    9AGAL    H212687   2.493   1.828  13.873
    9AGAL    O212688   2.679   1.916  13.855
    9AGAL    C312689   2.571   1.826  14.070
    9AGAL    H312690   2.667   1.811  14.125
    9AGAL    O312691   2.525   1.954  14.110
    9AGAL   HO312692   2.575   2.017  14.057
    9AGAL    C412693   2.472   1.715  14.106
    9AGAL    H412694   2.455   1.714  14.216
    9AGAL    O412695   2.345   1.732  14.043
    9AGAL   HO412696   2.277   1.696  14.100
    9AGAL    C612697   2.468   1.455  14.122
    9AGAL   H6112698   2.531   1.367  14.097
    9AGAL   H6212699   2.464   1.463  14.232
    9AGAL    O612700   2.336   1.426  14.078
    9AGAL   HO612701   2.338   1.372  13.999
   10AGAL    C112702   2.721   2.040  13.910
   10AGAL    H112703   2.632   2.107  13.918
   10AGAL    C512704   2.907   1.961  14.040
   10AGAL    H512705   2.881   1.860  14.001
   10AGAL    O512706   2.784   2.034  14.040
   10AGAL    C212707   2.818   2.103  13.811
   10AGAL    H212708   2.844   2.204  13.849
   10AGAL    O212709   2.758   2.129  13.684
   10AGAL   HO212710   2.784   2.220  13.665
   10AGAL    C312711   2.947   2.020  13.805
   10AGAL    H312712   2.918   1.915  13.780
   10AGAL    O312713   3.036   2.066  13.703
   10AGAL   HO312714   3.048   1.996  13.637
   10AGAL    C412715   3.009   2.019  13.943
   10AGAL    H412716   3.099   1.953  13.945
   10AGAL    O412717   3.051   2.148  13.984
   10AGAL   HO412718   2.970   2.198  14.000
   10AGAL    C612719   2.962   1.931  14.180
   10AGAL   H6112720   2.884   1.893  14.247
   10AGAL   H6212721   3.030   1.846  14.162
   10AGAL    O612722   3.036   2.033  14.250
   10AGAL   HO612723   2.986   2.061  14.327
   11BGLC    C112724   2.964   1.487  14.189
   11BGLC    H112725   3.062   1.438  14.199
   11BGLC    C512726   2.859   1.292  14.260
   11BGLC    H512727   2.955   1.237  14.286
   11BGLC    O512728   2.872   1.392  14.156
   11BGLC    C212729   2.918   1.546  14.318
   11BGLC    H212730   2.816   1.591  14.302
   11BGLC    O212731   3.009   1.649  14.355
   11BGLC   HO212732   2.953   1.726  14.368
   11BGLC    C312733   2.901   1.446  14.431
   11BGLC    H312734   2.998   1.398  14.456
   11BGLC    O312735   2.839   1.509  14.544
   11BGLC    C412736   2.803   1.346  14.385
   11BGLC    H412737   2.704   1.389  14.358
   11BGLC    O412738   2.777   1.246  14.483
   11BGLC   HO412739   2.720   1.284  14.550
   11BGLC    C612740   2.783   1.206  14.184
   11BGLC   H6112741   2.739   1.130  14.260
   11BGLC   H6212742   2.689   1.236  14.139
   11BGLC    O612743   2.882   1.169  14.077
   11BGLC   HO612744   2.884   1.070  14.068
   12BGLCN   C112745   2.902   1.498  14.669
   12BGLCN   H112746   2.980   1.575  14.674
   12BGLCN   C512747   3.020   1.361  14.825
   12BGLCN   H512748   3.100   1.435  14.838
   12BGLCN   O512749   2.959   1.370  14.694
   12BGLCN   C212750   2.792   1.524  14.772
   12BGLCN   H212751   2.721   1.437  14.765
   12BGLCN    N12752   2.729   1.650  14.742
   12BGLCN   HN12753   2.790   1.727  14.733
   12BGLCN    C12754   2.597   1.661  14.728
   12BGLCN    O12755   2.521   1.566  14.745
   12BGLCN   CT12756   2.544   1.797  14.691
   12BGLCN  HT112757   2.487   1.839  14.776
   12BGLCN  HT212758   2.473   1.788  14.606
   12BGLCN  HT312759   2.627   1.864  14.661
   12BGLCN   C312760   2.847   1.522  14.913
   12BGLCN   H312761   2.923   1.599  14.921
   12BGLCN   O312762   2.748   1.558  15.013
   12BGLCN   C412763   2.913   1.386  14.933
   12BGLCN   H412764   2.837   1.306  14.926
   12BGLCN   O412765   2.972   1.381  15.062
   12BGLCN  HO412766   3.051   1.434  15.066
   12BGLCN   C612767   3.087   1.226  14.830
   12BGLCN  H6112768   3.138   1.210  14.928
   12BGLCN  H6212769   3.009   1.148  14.819
   12BGLCN   O612770   3.184   1.211  14.725
   12BGLCN  HO612771   3.268   1.242  14.759
   13AGAL    C112772   2.792   1.642  15.120
   13AGAL    H112773   2.895   1.611  15.151
   13AGAL    C512774   2.651   1.829  15.064
   13AGAL    H512775   2.607   1.758  14.991
   13AGAL    O512776   2.787   1.782  15.084
   13AGAL    C212777   2.707   1.632  15.246
   13AGAL    H212778   2.749   1.709  15.315
   13AGAL    O212779   2.726   1.506  15.311
   13AGAL    C312780   2.563   1.675  15.226
   13AGAL    H312781   2.522   1.619  15.139
   13AGAL    O312782   2.481   1.646  15.338
   13AGAL   HO312783   2.394   1.620  15.307
   13AGAL    C412784   2.564   1.821  15.188
   13AGAL    H412785   2.460   1.851  15.160
   13AGAL    O412786   2.606   1.906  15.297
   13AGAL   HO412787   2.687   1.872  15.335
   13AGAL    C612788   2.638   1.962  14.991
   13AGAL   H6112789   2.697   1.958  14.897
   13AGAL   H6212790   2.530   1.977  14.967
   13AGAL    O612791   2.680   2.074  15.068
   13AGAL   HO612792   2.612   2.097  15.133
   14ARHM    C112793   2.790   1.509  15.437
   14ARHM    H112794   2.863   1.592  15.441
   14ARHM    C512795   2.790   1.276  15.453
   14ARHM    H512796   2.736   1.267  15.356
   14ARHM    O512797   2.869   1.394  15.455
   14ARHM    C212798   2.688   1.519  15.549
   14ARHM    H212799   2.627   1.610  15.530
   14ARHM    O212800   2.738   1.521  15.683
   14ARHM    C312801   2.601   1.400  15.546
   14ARHM    H312802   2.565   1.390  15.442
   14ARHM    O312803   2.485   1.414  15.629
   14ARHM   HO312804   2.508   1.396  15.720
   14ARHM    C412805   2.685   1.277  15.570
   14ARHM    H412806   2.742   1.283  15.666
   14ARHM    O412807   2.593   1.167  15.582
   14ARHM   HO412808   2.604   1.118  15.663
   14ARHM    C612809   2.910   1.186  15.463
   14ARHM   H6112810   2.993   1.184  15.390
   14ARHM   H6212811   2.912   1.152  15.568
   14ARHM   H6312812   2.906   1.090  15.414
   15ARHM    C112813   2.840   1.613  15.711
   15ARHM    H112814   2.832   1.699  15.641
   15ARHM    C512815   3.000   1.454  15.799
   15ARHM    H512816   2.937   1.364  15.781
   15ARHM    O512817   2.972   1.558  15.703
   15ARHM    C212818   2.815   1.667  15.850
   15ARHM    H212819   2.711   1.704  15.857
   15ARHM    O212820   2.901   1.780  15.866
   15ARHM    C312821   2.833   1.556  15.950
   15ARHM    H312822   2.769   1.470  15.920
   15ARHM    O312823   2.786   1.604  16.076
   15ARHM    C412824   2.977   1.510  15.939
   15ARHM    H412825   3.043   1.599  15.952
   15ARHM    O412826   3.015   1.413  16.036
   15ARHM   HO412827   3.111   1.410  16.034
   15ARHM    C612828   3.145   1.409  15.780
   15ARHM   H6112829   3.173   1.321  15.840
   15ARHM   H6212830   3.168   1.394  15.672
   15ARHM   H6312831   3.210   1.490  15.812
   16BMANN   C112832   2.901   1.853  15.987
   16BMANN   H112833   2.944   1.789  16.067
   16BMANN   C512834   2.777   1.963  16.157
   16BMANN   H512835   2.824   1.895  16.232
   16BMANN   O512836   2.771   1.896  16.029
   16BMANN   C212837   2.991   1.975  15.967
   16BMANN   H212838   3.091   1.937  15.936
   16BMANN    N12839   2.948   2.067  15.863
   16BMANN   HN12840   2.891   2.143  15.892
   16BMANN    C12841   2.990   2.065  15.736
   16BMANN    O12842   3.064   1.981  15.688
   16BMANN   CT12843   2.932   2.172  15.648
   16BMANN  HT112844   3.006   2.250  15.623
   16BMANN  HT212845   2.841   2.216  15.693
   16BMANN  HT312846   2.898   2.128  15.554
   16BMANN   C312847   3.004   2.045  16.101
   16BMANN   H312848   3.044   1.974  16.176
   16BMANN   O312849   3.095   2.155  16.093
   16BMANN  HO312850   3.156   2.150  16.168
   16BMANN   C412851   2.865   2.086  16.148
   16BMANN   H412852   2.824   2.152  16.070
   16BMANN   O412853   2.866   2.154  16.274
   16BMANN  HO412854   2.786   2.207  16.281
   16BMANN   C612855   2.638   1.993  16.214
   16BMANN  H6112856   2.645   1.999  16.325
   16BMANN  H6212857   2.603   2.087  16.173
   16BMANN   O612858   2.534   1.904  16.177
   16BMANN  HO612859   2.472   1.957  16.125
   17BGLCN   C112860   2.715   1.509  16.150
   17BGLCN   H112861   2.762   1.409  16.135
   17BGLCN   C512862   2.502   1.409  16.192
   17BGLCN   H512863   2.541   1.306  16.172
   17BGLCN   O512864   2.577   1.504  16.114
   17BGLCN   C212865   2.731   1.555  16.294
   17BGLCN   H212866   2.680   1.653  16.311
   17BGLCN    N12867   2.871   1.575  16.323
   17BGLCN   HN12868   2.935   1.519  16.272
   17BGLCN    C12869   2.922   1.656  16.416
   17BGLCN    O12870   2.856   1.733  16.485
   17BGLCN   CT12871   3.069   1.639  16.436
   17BGLCN  HT112872   3.131   1.718  16.389
   17BGLCN  HT212873   3.100   1.539  16.401
   17BGLCN  HT312874   3.090   1.638  16.544
   17BGLCN   C312875   2.664   1.450  16.379
   17BGLCN   H312876   2.709   1.353  16.346
   17BGLCN   O312877   2.698   1.470  16.519
   17BGLCN   C412878   2.517   1.447  16.341
   17BGLCN   H412879   2.475   1.551  16.350
   17BGLCN   O412880   2.441   1.362  16.426
   17BGLCN  HO412881   2.348   1.364  16.403
   17BGLCN   C612882   2.356   1.413  16.149
   17BGLCN  H6112883   2.315   1.312  16.153
   17BGLCN  H6212884   2.295   1.475  16.217
   17BGLCN   O612885   2.331   1.458  16.016
   17BGLCN  HO612886   2.383   1.406  15.954
   18AGAL    C112887   2.712   1.353  16.599
   18AGAL    H112888   2.612   1.309  16.617
   18AGAL    C512889   2.929   1.295  16.522
   18AGAL    H512890   2.930   1.395  16.477
   18AGAL    O512891   2.793   1.254  16.536
   18AGAL    C212892   2.779   1.378  16.734
   18AGAL    H212893   2.786   1.275  16.776
   18AGAL    O212894   2.696   1.452  16.824
   18AGAL    C312895   2.923   1.428  16.721
   18AGAL    H312896   2.923   1.516  16.653
   18AGAL    O312897   2.980   1.472  16.844
   18AGAL   HO312898   3.024   1.557  16.833
   18AGAL    C412899   3.004   1.318  16.653
   18AGAL    H412900   3.107   1.353  16.630
   18AGAL    O412901   3.016   1.201  16.733
   18AGAL   HO412902   3.076   1.220  16.807
   18AGAL    C612903   2.989   1.214  16.413
   18AGAL   H6112904   2.935   1.234  16.318
   18AGAL   H6212905   3.090   1.245  16.398
   18AGAL    O612906   2.998   1.075  16.434
   18AGAL   HO612907   2.934   1.050  16.503
   19ARHM    C112908   2.703   1.397  16.953
   19ARHM    H112909   2.802   1.348  16.971
   19ARHM    C512910   2.472   1.341  16.961
   19ARHM    H512911   2.466   1.382  16.858
   19ARHM    O512912   2.606   1.294  16.979
   19ARHM    C212913   2.680   1.511  17.048
   19ARHM    H212914   2.747   1.597  17.023
   19ARHM    O212915   2.707   1.467  17.182
   19ARHM    C312916   2.539   1.563  17.033
   19ARHM    H312917   2.522   1.594  16.927
   19ARHM    O312918   2.518   1.676  17.116
   19ARHM   HO312919   2.545   1.650  17.204
   19ARHM    C412920   2.442   1.451  17.061
   19ARHM    H412921   2.458   1.414  17.165
   19ARHM    O412922   2.307   1.494  17.052
   19ARHM   HO412923   2.285   1.512  16.960
   19ARHM    C612924   2.376   1.221  16.964
   19ARHM   H6112925   2.411   1.152  16.884
   19ARHM   H6212926   2.376   1.166  17.061
   19ARHM   H6312927   2.272   1.253  16.943
   20ARHM    C112928   2.847   1.458  17.205
   20ARHM    H112929   2.905   1.501  17.121
   20ARHM    C512930   2.853   1.260  17.332
   20ARHM    H512931   2.742   1.258  17.315
   20ARHM    O512932   2.903   1.328  17.219
   20ARHM    C212933   2.874   1.536  17.331
   20ARHM    H212934   2.830   1.638  17.321
   20ARHM    O212935   3.016   1.544  17.352
   20ARHM    C312936   2.812   1.470  17.448
   20ARHM    H312937   2.702   1.463  17.432
   20ARHM    O312938   2.841   1.552  17.562
   20ARHM    C412939   2.874   1.335  17.461
   20ARHM    H412940   2.984   1.332  17.472
   20ARHM    O412941   2.817   1.270  17.574
   20ARHM   HO412942   2.805   1.178  17.552
   20ARHM    C612943   2.942   1.129  17.332
   20ARHM   H6112944   3.045   1.109  17.353
   20ARHM   H6212945   2.912   1.067  17.420
   20ARHM   H6312946   2.922   1.073  17.236
   21BMANN   C112947   3.069   1.647  17.277
   21BMANN   H112948   2.992   1.687  17.208
   21BMANN   C512949   3.211   1.713  17.102
   21BMANN   H512950   3.122   1.752  17.045
   21BMANN   O512951   3.172   1.603  17.188
   21BMANN   C212952   3.117   1.756  17.371
   21BMANN   H212953   3.026   1.787  17.429
   21BMANN    N12954   3.221   1.716  17.465
   21BMANN   HN12955   3.293   1.661  17.425
   21BMANN    C12956   3.229   1.756  17.594
   21BMANN    O12957   3.160   1.845  17.640
   21BMANN   CT12958   3.328   1.686  17.684
   21BMANN  HT112959   3.431   1.724  17.666
   21BMANN  HT212960   3.320   1.576  17.670
   21BMANN  HT312961   3.305   1.705  17.791
   21BMANN   C312962   3.158   1.870  17.283
   21BMANN   H312963   3.065   1.901  17.229
   21BMANN   O312964   3.198   1.982  17.358
   21BMANN  HO312965   3.272   1.960  17.416
   21BMANN   C412966   3.265   1.828  17.183
   21BMANN   H412967   3.357   1.795  17.237
   21BMANN   O412968   3.303   1.934  17.096
   21BMANN  HO412969   3.396   1.953  17.114
   21BMANN   C612970   3.311   1.669  16.999
   21BMANN  H6112971   3.317   1.746  16.918
   21BMANN  H6212972   3.412   1.663  17.044
   21BMANN   O612973   3.275   1.542  16.943
   21BMANN  HO612974   3.280   1.475  17.013
   22BGLCN   C112975   2.741   1.560  17.659
   22BGLCN   H112976   2.677   1.471  17.654
   22BGLCN   C512977   2.560   1.686  17.747
   22BGLCN   H512978   2.498   1.592  17.747
   22BGLCN   O512979   2.659   1.676  17.643
   22BGLCN   C212980   2.814   1.569  17.791
   22BGLCN   H212981   2.877   1.661  17.786
   22BGLCN    N12982   2.897   1.452  17.809
   22BGLCN   HN12983   2.859   1.366  17.775
   22BGLCN    C12984   3.014   1.452  17.873
   22BGLCN    O12985   3.065   1.552  17.922
   22BGLCN   CT12986   3.082   1.319  17.878
   22BGLCN  HT112987   3.152   1.325  17.792
   22BGLCN  HT212988   3.009   1.237  17.864
   22BGLCN  HT312989   3.138   1.305  17.973
   22BGLCN   C312990   2.716   1.582  17.906
   22BGLCN   H312991   2.649   1.496  17.909
   22BGLCN   O312992   2.790   1.579  18.027
   22BGLCN   C412993   2.629   1.702  17.882
   22BGLCN   H412994   2.695   1.792  17.878
   22BGLCN   O412995   2.534   1.720  17.986
   22BGLCN  HO412996   2.533   1.813  18.008
   22BGLCN   C612997   2.471   1.803  17.714
   22BGLCN  H6112998   2.415   1.833  17.805
   22BGLCN  H6212999   2.531   1.890  17.681
   22BGLCN   O613000   2.373   1.767  17.617
   22BGLCN  HO613001   2.414   1.743  17.534
   23AGAL    C113002   2.726   1.543  18.147
   23AGAL    H113003   2.666   1.629  18.182
   23AGAL    C513004   2.710   1.306  18.109
   23AGAL    H513005   2.773   1.321  18.017
   23AGAL    O513006   2.639   1.429  18.135
   23AGAL    C213007   2.828   1.517  18.255
   23AGAL    H213008   2.770   1.495  18.347
   23AGAL    O213009   2.912   1.633  18.279
   23AGAL    C313010   2.906   1.390  18.224
   23AGAL    H313011   2.950   1.398  18.122
   23AGAL    O313012   3.017   1.370  18.311
   23AGAL   HO313013   2.989   1.387  18.401
   23AGAL    C413014   2.809   1.273  18.222
   23AGAL    H413015   2.861   1.178  18.199
   23AGAL    O413016   2.742   1.255  18.346
   23AGAL   HO413017   2.656   1.216  18.321
   23AGAL    C613018   2.610   1.199  18.070
   23AGAL   H6113019   2.538   1.241  17.998
   23AGAL   H6213020   2.660   1.114  18.018
   23AGAL    O613021   2.535   1.151  18.182
   23AGAL   HO613022   2.464   1.091  18.153
   24ARHM    C113023   2.862   1.734  18.365
   24ARHM    H113024   2.752   1.724  18.375
   24ARHM    C513025   3.024   1.898  18.300
   24ARHM    H513026   3.066   1.822  18.230
   24ARHM    O513027   2.884   1.869  18.318
   24ARHM    C213028   2.932   1.714  18.497
   24ARHM    H213029   2.921   1.608  18.529
   24ARHM    O213030   2.881   1.803  18.597
   24ARHM    C313031   3.079   1.742  18.479
   24ARHM    H313032   3.117   1.673  18.399
   24ARHM    O313033   3.152   1.710  18.597
   24ARHM   HO313034   3.157   1.788  18.653
   24ARHM    C413035   3.097   1.885  18.432
   24ARHM    H413036   3.049   1.955  18.506
   24ARHM    O413037   3.234   1.920  18.420
   24ARHM   HO413038   3.248   2.014  18.438
   24ARHM    C613039   3.042   2.035  18.230
   24ARHM   H6113040   3.140   2.038  18.178
   24ARHM   H6213041   2.962   2.052  18.156
   24ARHM   H6313042   3.036   2.117  18.304
   25ARHM    C113043   2.757   1.767  18.651
   25ARHM    H113044   2.709   1.693  18.583
   25ARHM    C513045   2.707   1.975  18.756
   25ARHM    H513046   2.804   2.017  18.722
   25ARHM    O513047   2.663   1.875  18.662
   25ARHM    C213048   2.781   1.700  18.783
   25ARHM    H213049   2.864   1.625  18.772
   25ARHM    O213050   2.662   1.634  18.826
   25ARHM    C313051   2.828   1.803  18.882
   25ARHM    H313052   2.923   1.850  18.845
   25ARHM    O313053   2.848   1.736  19.006
   25ARHM    C413054   2.726   1.912  18.894
   25ARHM    H413055   2.628   1.872  18.927
   25ARHM    O413056   2.770   2.007  18.990
   25ARHM   HO413057   2.695   2.037  19.042
   25ARHM    C613058   2.606   2.091  18.758
   25ARHM   H6113059   2.585   2.125  18.655
   25ARHM   H6213060   2.510   2.062  18.804
   25ARHM   H6313061   2.649   2.176  18.815
   26BMANN   C113062   2.638   1.511  18.764
   26BMANN   H113063   2.732   1.468  18.722
   26BMANN   C513064   2.524   1.388  18.595
   26BMANN   H513065   2.622   1.355  18.553
   26BMANN   O513066   2.542   1.517  18.657
   26BMANN   C213067   2.589   1.419  18.871
   26BMANN   H213068   2.669   1.416  18.949
   26BMANN    N13069   2.463   1.469  18.929
   26BMANN   HN13070   2.390   1.490  18.866
   26BMANN    C13071   2.441   1.486  19.060
   26BMANN    O13072   2.533   1.478  19.140
   26BMANN   CT13073   2.299   1.515  19.102
   26BMANN  HT113074   2.244   1.565  19.020
   26BMANN  HT213075   2.291   1.573  19.197
   26BMANN  HT313076   2.252   1.416  19.122
   26BMANN   C313077   2.577   1.282  18.810
   26BMANN   H313078   2.676   1.250  18.769
   26BMANN   O313079   2.543   1.187  18.908
   26BMANN  HO313080   2.620   1.170  18.965
   26BMANN   C413081   2.477   1.287  18.697
   26BMANN   H413082   2.378   1.318  18.735
   26BMANN   O413083   2.460   1.160  18.636
   26BMANN  HO413084   2.404   1.102  18.690
   26BMANN   C613085   2.430   1.409  18.476
   26BMANN  H6113086   2.455   1.506  18.428
   26BMANN  H6213087   2.446   1.329  18.400
   26BMANN   O613088   2.292   1.408  18.514
   26BMANN  HO613089   2.273   1.323  18.552
   27BGLCN   C113090   2.958   1.775  19.083
   27BGLCN   H113091   2.978   1.885  19.079
   27BGLCN   C513092   3.187   1.739  19.127
   27BGLCN   H513093   3.196   1.851  19.130
   27BGLCN   O513094   3.076   1.706  19.042
   27BGLCN   C213095   2.919   1.732  19.223
   27BGLCN   H213096   2.907   1.620  19.220
   27BGLCN    N13097   2.793   1.791  19.267
   27BGLCN   HN13098   2.779   1.886  19.242
   27BGLCN    C13099   2.701   1.717  19.333
   27BGLCN    O13100   2.730   1.612  19.388
   27BGLCN   CT13101   2.559   1.769  19.338
   27BGLCN  HT113102   2.548   1.858  19.273
   27BGLCN  HT213103   2.529   1.794  19.442
   27BGLCN  HT313104   2.491   1.689  19.303
   27BGLCN   C313105   3.031   1.762  19.318
   27BGLCN   H313106   3.049   1.872  19.313
   27BGLCN   O313107   2.982   1.725  19.449
   27BGLCN   C413108   3.155   1.692  19.269
   27BGLCN   H413109   3.141   1.581  19.268
   27BGLCN   O413110   3.266   1.719  19.351
   27BGLCN  HO413111   3.286   1.812  19.343
   27BGLCN   C613112   3.317   1.693  19.067
   27BGLCN  H6113113   3.405   1.731  19.123
   27BGLCN  H6213114   3.322   1.586  19.079
   27BGLCN   O613115   3.332   1.725  18.929
   27BGLCN  HO613116   3.404   1.671  18.890
   28AGAL    C113117   3.048   1.778  19.561
   28AGAL    H113118   3.145   1.726  19.569
   28AGAL    C513119   2.947   1.996  19.549
   28AGAL    H513120   2.871   1.951  19.480
   28AGAL    O513121   3.071   1.919  19.542
   28AGAL    C213122   2.978   1.758  19.698
   28AGAL    H213123   3.052   1.806  19.766
   28AGAL    O213124   2.961   1.624  19.746
   28AGAL    C313125   2.849   1.837  19.705
   28AGAL    H313126   2.784   1.806  19.620
   28AGAL    O313127   2.769   1.817  19.822
   28AGAL   HO313128   2.681   1.787  19.797
   28AGAL    C413129   2.884   1.983  19.685
   28AGAL    H413130   2.789   2.041  19.686
   28AGAL    O413131   2.970   2.036  19.785
   28AGAL   HO413132   2.913   2.085  19.845
   28AGAL    C613133   2.967   2.140  19.502
   28AGAL   H6113134   2.990   2.135  19.393
   28AGAL   H6213135   2.874   2.200  19.514
   28AGAL    O613136   3.073   2.213  19.566
   28AGAL   HO613137   3.156   2.181  19.532
   29ARHM    C113138   2.991   1.618  19.884
   29ARHM    H113139   2.975   1.717  19.932
   29ARHM    C513140   3.154   1.450  19.850
   29ARHM    H513141   3.127   1.452  19.743
   29ARHM    O513142   3.126   1.579  19.905
   29ARHM    C213143   2.899   1.522  19.953
   29ARHM    H213144   2.794   1.550  19.928
   29ARHM    O213145   2.921   1.526  20.096
   29ARHM    C313146   2.924   1.384  19.897
   29ARHM    H313147   2.904   1.385  19.788
   29ARHM    O313148   2.833   1.293  19.955
   29ARHM   HO313149   2.879   1.209  19.959
   29ARHM    C413150   3.070   1.343  19.919
   29ARHM    H413151   3.093   1.341  20.028
   29ARHM    O413152   3.101   1.212  19.870
   29ARHM   HO413153   3.069   1.196  19.781
   29ARHM    C613154   3.306   1.439  19.860
   29ARHM   H6113155   3.350   1.531  19.814
   29ARHM   H6213156   3.341   1.431  19.965
   29ARHM   H6313157   3.342   1.350  19.803
   30ARHM    C113158   2.833   1.605  20.173
   30ARHM    H113159   2.727   1.573  20.152
   30ARHM    C513160   2.978   1.793  20.185
   30ARHM    H513161   3.050   1.731  20.127
   30ARHM    O513162   2.847   1.747  20.152
   30ARHM    C213163   2.862   1.579  20.318
   30ARHM    H213164   2.850   1.470  20.338
   30ARHM    O213165   2.768   1.653  20.396
   30ARHM    C313166   3.001   1.624  20.359
   30ARHM    H313167   3.072   1.573  20.289
   30ARHM    O313168   3.035   1.579  20.491
   30ARHM    C413169   3.009   1.772  20.332
   30ARHM    H413170   2.934   1.828  20.391
   30ARHM    O413171   3.133   1.834  20.366
   30ARHM   HO413172   3.205   1.806  20.307
   30ARHM    C613173   2.996   1.939  20.142
   30ARHM   H6113174   3.101   1.970  20.159
   30ARHM   H6213175   2.975   1.947  20.033
   30ARHM   H6313176   2.927   2.005  20.198
   31BMANN   C113177   2.651   1.583  20.425
   31BMANN   H113178   2.673   1.477  20.451
   31BMANN   C513179   2.428   1.532  20.357
   31BMANN   H513180   2.456   1.428  20.386
   31BMANN   O513181   2.552   1.595  20.322
   31BMANN   C213182   2.598   1.652  20.545
   31BMANN   H213183   2.672   1.636  20.627
   31BMANN    N13184   2.590   1.792  20.521
   31BMANN   HN13185   2.590   1.824  20.426
   31BMANN    C13186   2.598   1.875  20.622
   31BMANN    O13187   2.620   1.846  20.738
   31BMANN   CT13188   2.586   2.008  20.582
   31BMANN  HT113189   2.510   2.022  20.502
   31BMANN  HT213190   2.687   2.034  20.539
   31BMANN  HT313191   2.565   2.079  20.664
   31BMANN   C313192   2.470   1.588  20.587
   31BMANN   H313193   2.488   1.479  20.603
   31BMANN   O313194   2.429   1.635  20.713
   31BMANN  HO313195   2.501   1.689  20.749
   31BMANN   C413196   2.367   1.599  20.477
   31BMANN   H413197   2.346   1.705  20.450
   31BMANN   O413198   2.244   1.537  20.509
   31BMANN  HO413199   2.259   1.459  20.561
   31BMANN   C613200   2.329   1.520  20.242
   31BMANN  H6113201   2.247   1.450  20.268
   31BMANN  H6213202   2.283   1.620  20.224
   31BMANN   O613203   2.391   1.477  20.122
   31BMANN  HO613204   2.414   1.383  20.118
   32BGLCN   C113205   2.989   1.658  20.598
   32BGLCN   H113206   2.887   1.693  20.578
   32BGLCN   C513207   3.014   1.854  20.729
   32BGLCN   H513208   2.912   1.883  20.695
   32BGLCN   O513209   3.071   1.771  20.628
   32BGLCN   C213210   2.982   1.571  20.722
   32BGLCN   H213211   3.088   1.550  20.751
   32BGLCN    N13212   2.913   1.448  20.695
   32BGLCN   HN13213   2.845   1.457  20.624
   32BGLCN    C13214   2.943   1.328  20.746
   32BGLCN    O13215   3.030   1.307  20.830
   32BGLCN   CT13216   2.857   1.219  20.690
   32BGLCN  HT113217   2.809   1.254  20.597
   32BGLCN  HT213218   2.776   1.187  20.760
   32BGLCN  HT313219   2.921   1.132  20.666
   32BGLCN   C313220   2.914   1.653  20.829
   32BGLCN   H313221   2.819   1.691  20.784
   32BGLCN   O313222   2.879   1.577  20.946
   32BGLCN   C413223   3.002   1.773  20.857
   32BGLCN   H413224   3.103   1.735  20.887
   32BGLCN   O413225   2.952   1.855  20.960
   32BGLCN  HO413226   2.987   1.823  21.044
   32BGLCN   C613227   3.094   1.982  20.742
   32BGLCN  H6113228   3.044   2.056  20.809
   32BGLCN  H6213229   3.194   1.961  20.786
   32BGLCN   O613230   3.112   2.046  20.616
   32BGLCN  HO613231   3.035   2.032  20.559
   33AGAL    C113232   2.755   1.616  21.004
   33AGAL    H113233   2.742   1.726  20.997
   33AGAL    C513234   2.643   1.409  20.957
   33AGAL    H513235   2.743   1.379  20.920
   33AGAL    O513236   2.641   1.552  20.943
   33AGAL    C213237   2.754   1.577  21.151
   33AGAL    H213238   2.653   1.602  21.189
   33AGAL    O213239   2.846   1.660  21.223
   33AGAL    C313240   2.764   1.425  21.166
   33AGAL    H313241   2.853   1.387  21.108
   33AGAL    O313242   2.791   1.382  21.298
   33AGAL   HO313243   2.725   1.416  21.360
   33AGAL    C413244   2.640   1.362  21.102
   33AGAL    H413245   2.651   1.251  21.103
   33AGAL    O413246   2.516   1.389  21.166
   33AGAL   HO413247   2.519   1.464  21.225
   33AGAL    C613248   2.544   1.341  20.862
   33AGAL   H6113249   2.578   1.367  20.760
   33AGAL   H6213250   2.550   1.231  20.873
   33AGAL    O613251   2.406   1.377  20.874
   33AGAL   HO613252   2.386   1.459  20.826
   34ARHM    C113253   2.793   1.717  21.342
   34ARHM    H113254   2.746   1.637  21.402
   34ARHM    C513255   2.738   1.933  21.243
   34ARHM    H513256   2.768   1.896  21.143
   34ARHM    O513257   2.692   1.819  21.320
   34ARHM    C213258   2.911   1.776  21.418
   34ARHM    H213259   2.992   1.700  21.422
   34ARHM    O213260   2.880   1.816  21.554
   34ARHM    C313261   2.966   1.894  21.338
   34ARHM    H313262   2.997   1.859  21.236
   34ARHM    O313263   3.082   1.952  21.401
   34ARHM   HO313264   3.142   1.987  21.334
   34ARHM    C413265   2.856   1.996  21.316
   34ARHM    H413266   2.816   2.031  21.414
   34ARHM    O413267   2.909   2.107  21.245
   34ARHM   HO413268   2.957   2.168  21.304
   34ARHM    C613269   2.624   2.038  21.221
   34ARHM   H6113270   2.583   2.078  21.315
   34ARHM   H6213271   2.669   2.126  21.170
   34ARHM   H6313272   2.543   2.000  21.156
   35ARHM    C113273   2.827   1.718  21.642
   35ARHM    H113274   2.876   1.619  21.623
   35ARHM    C513275   2.616   1.833  21.658
   35ARHM    H513276   2.651   1.912  21.588
   35ARHM    O513277   2.683   1.708  21.630
   35ARHM    C213278   2.858   1.757  21.787
   35ARHM    H213279   2.968   1.767  21.800
   35ARHM    O213280   2.808   1.661  21.881
   35ARHM    C313281   2.794   1.889  21.822
   35ARHM    H313282   2.829   1.963  21.750
   35ARHM    O313283   2.840   1.936  21.949
   35ARHM   HO313284   2.835   1.863  22.012
   35ARHM    C413285   2.644   1.877  21.802
   35ARHM    H413286   2.601   1.800  21.871
   35ARHM    O413287   2.580   2.001  21.831
   35ARHM   HO413288   2.629   2.077  21.796
   35ARHM    C613289   2.467   1.813  21.623
   35ARHM   H6113290   2.453   1.797  21.514
   35ARHM   H6213291   2.425   1.728  21.679
   35ARHM   H6313292   2.412   1.907  21.648
   36BMANN   C113293   2.881   1.542  21.885
   36BMANN   H113294   2.984   1.557  21.850
   36BMANN   C513295   2.908   1.324  21.809
   36BMANN   H513296   3.013   1.349  21.780
   36BMANN   O513297   2.826   1.441  21.802
   36BMANN   C213298   2.879   1.494  22.029
   36BMANN   H213299   2.930   1.576  22.086
   36BMANN    N13300   2.746   1.475  22.086
   36BMANN   HN13301   2.677   1.437  22.025
   36BMANN    C13302   2.721   1.492  22.218
   36BMANN    O13303   2.802   1.538  22.297
   36BMANN   CT13304   2.588   1.449  22.272
   36BMANN  HT113305   2.563   1.351  22.228
   36BMANN  HT213306   2.508   1.523  22.250
   36BMANN  HT313307   2.594   1.435  22.382
   36BMANN   C313308   2.967   1.371  22.039
   36BMANN   H313309   3.069   1.396  22.001
   36BMANN   O313310   2.979   1.323  22.172
   36BMANN  HO313311   3.066   1.339  22.208
   36BMANN   C413312   2.911   1.265  21.950
   36BMANN   H413313   2.809   1.235  21.982
   36BMANN   O413314   2.989   1.147  21.961
   36BMANN  HO413315   2.987   1.128  22.056
   36BMANN   C613316   2.861   1.232  21.706
   36BMANN  H6113317   2.856   1.268  21.602
   36BMANN  H6213318   2.946   1.162  21.695
   36BMANN   O613319   2.733   1.184  21.750
   36BMANN  HO613320   2.739   1.098  21.796
    1ECLIP HB6S13321   1.263   4.010  11.779
    1ECLIP  OB613322   1.334   3.867  11.908
    1ECLIP  CB613323   1.361   3.965  11.806
    1ECLIP HB6R13324   1.426   4.046  11.846
    1ECLIP  CB513325   1.427   3.911  11.680
    1ECLIP  OB513326   1.341   3.806  11.632
    1ECLIP  HB513327   1.527   3.872  11.710
    1ECLIP  CB113328   1.394   3.743  11.515
    1ECLIP  HB113329   1.496   3.702  11.533
    1ECLIP  OA613330   1.316   3.636  11.467
    1ECLIP  CA613331   1.175   3.649  11.491
    1ECLIP HA6R13332   1.143   3.754  11.512
    1ECLIP HA6S13333   1.150   3.586  11.579
    1ECLIP  CB413334   1.446   4.018  11.569
    1ECLIP  HB413335   1.349   4.066  11.541
    1ECLIP  OB413336   1.543   4.111  11.620
    1ECLIP   PB13337   1.497   4.263  11.669
    1ECLIP OPB413338   1.586   4.304  11.787
    1ECLIP OPB313339   1.351   4.248  11.707
    1ECLIP OPB213340   1.519   4.351  11.547
    1ECLIP  CB313341   1.501   3.951  11.445
    1ECLIP  OB313342   1.514   4.036  11.331
    1ECLIP  HB313343   1.597   3.899  11.470
    1ECLIP  C7113344   1.626   4.105  11.314
    1ECLIP  O7113345   1.733   4.072  11.362
    1ECLIP  C7213346   1.617   4.174  11.175
    1ECLIP H72R13347   1.593   4.099  11.096
    1ECLIP H72S13348   1.714   4.222  11.153
    1ECLIP  CB213349   1.405   3.842  11.403
    1ECLIP  HB213350   1.304   3.889  11.387
    1ECLIP  NB213351   1.452   3.776  11.281
    1ECLIP HNB213352   1.512   3.697  11.293
    1ECLIP  CA413353   1.157   3.470  11.316
    1ECLIP  HA413354   1.263   3.492  11.289
    1ECLIP  OA413355   1.155   3.371  11.417
    1ECLIP HOA413356   1.188   3.409  11.499
    1ECLIP  CA513357   1.099   3.599  11.370
    1ECLIP  HA513358   0.990   3.591  11.394
    1ECLIP  OA513359   1.117   3.697  11.270
    1ECLIP  CA113360   1.048   3.668  11.147
    1ECLIP  HA113361   1.090   3.746  11.079
    1ECLIP  OA113362   0.907   3.680  11.151
    1ECLIP OPA213363   0.771   3.775  11.332
    1ECLIP OPA313364   0.948   3.926  11.221
    1ECLIP OPA413365   0.735   3.853  11.094
    1ECLIP   PA13366   0.838   3.822  11.203
    1ECLIP  CA313367   1.087   3.426  11.189
    1ECLIP  HA313368   0.980   3.404  11.211
    1ECLIP  OA313369   1.152   3.301  11.154
    1ECLIP  C3113370   1.269   3.307  11.087
    1ECLIP  O3113371   1.272   3.312  10.965
    1ECLIP  C3213372   1.378   3.232  11.165
    1ECLIP H32R13373   1.401   3.140  11.107
    1ECLIP H32S13374   1.339   3.203  11.264
    1ECLIP  CA213375   1.102   3.539  11.088
    1ECLIP  HA213376   1.211   3.557  11.070
    1ECLIP  NA213377   1.037   3.508  10.959
    1ECLIP HNA213378   1.012   3.413  10.947
    1ECLIP  C7313379   1.504   4.280  11.172
    1ECLIP H73R13380   1.513   4.342  11.265
    1ECLIP  O7313381   1.381   4.208  11.163
    1ECLIP  C8113382   1.275   4.252  11.231
    1ECLIP  O8113383   1.272   4.358  11.292
    1ECLIP  C8213384   1.150   4.185  11.170
    1ECLIP H82R13385   1.060   4.222  11.223
    1ECLIP H82S13386   1.155   4.076  11.192
    1ECLIP  C8313387   1.135   4.205  11.017
    1ECLIP H83R13388   1.200   4.131  10.965
    1ECLIP H83S13389   1.169   4.306  10.990
    1ECLIP  C8413390   0.992   4.179  10.966
    1ECLIP H84R13391   0.923   4.260  10.997
    1ECLIP H84S13392   0.959   4.083  11.013
    1ECLIP  C8513393   0.987   4.157  10.813
    1ECLIP H85R13394   1.075   4.092  10.791
    1ECLIP H85S13395   1.004   4.253  10.760
    1ECLIP  C8613396   0.862   4.080  10.765
    1ECLIP H86R13397   0.781   4.150  10.735
    1ECLIP H86S13398   0.824   4.018  10.850
    1ECLIP  C8713399   0.894   3.980  10.652
    1ECLIP H87R13400   0.801   3.932  10.615
    1ECLIP H87S13401   0.957   3.897  10.694
    1ECLIP  C8813402   0.975   4.043  10.538
    1ECLIP H88R13403   1.080   4.055  10.571
    1ECLIP H88S13404   0.939   4.147  10.524
    1ECLIP  C8913405   0.972   3.961  10.408
    1ECLIP H89R13406   0.944   3.855  10.426
    1ECLIP H89S13407   1.073   3.958  10.362
    1ECLIP C81013408   0.878   4.026  10.306
    1ECLIPH810R13409   0.878   4.135  10.329
    1ECLIPH810S13410   0.776   3.986  10.322
    1ECLIP C81113411   0.920   4.005  10.160
    1ECLIPH811R13412   0.834   4.021  10.090
    1ECLIPH811S13413   0.955   3.900  10.152
    1ECLIP C81213414   1.036   4.093  10.110
    1ECLIPH812R13415   1.062   4.055  10.008
    1ECLIPH812S13416   1.124   4.079  10.177
    1ECLIP C81313417   1.009   4.243  10.100
    1ECLIPH813R13418   0.925   4.258  10.029
    1ECLIPH813S13419   0.979   4.285  10.199
    1ECLIP C81413420   1.130   4.321  10.049
    1ECLIPH814R13421   1.174   4.275   9.958
    1ECLIPH814S13422   1.208   4.324  10.128
    1ECLIPH814T13423   1.101   4.425  10.025
    1ECLIP  C7413424   1.507   4.375  11.049
    1ECLIP H74R13425   1.599   4.437  11.041
    1ECLIP H74S13426   1.423   4.447  11.068
    1ECLIP  C7513427   1.475   4.306  10.914
    1ECLIP H75R13428   1.413   4.377  10.855
    1ECLIP H75S13429   1.412   4.216  10.933
    1ECLIP  C7613430   1.597   4.263  10.831
    1ECLIP H76R13431   1.638   4.169  10.874
    1ECLIP H76S13432   1.677   4.339  10.835
    1ECLIP  C7713433   1.567   4.237  10.682
    1ECLIP H77R13434   1.537   4.334  10.635
    1ECLIP H77S13435   1.482   4.169  10.668
    1ECLIP  C7813436   1.690   4.171  10.616
    1ECLIP H78R13437   1.779   4.232  10.643
    1ECLIP H78S13438   1.702   4.073  10.668
    1ECLIP  C7913439   1.683   4.138  10.465
    1ECLIP H79R13440   1.649   4.033  10.453
    1ECLIP H79S13441   1.784   4.145  10.419
    1ECLIP C71013442   1.595   4.230  10.381
    1ECLIPH710R13443   1.492   4.234  10.423
    1ECLIPH710S13444   1.639   4.332  10.385
    1ECLIP C71113445   1.585   4.188  10.234
    1ECLIPH711R13446   1.686   4.185  10.189
    1ECLIPH711S13447   1.539   4.086  10.228
    1ECLIP C71213448   1.495   4.286  10.159
    1ECLIPH712R13449   1.542   4.386  10.162
    1ECLIPH712S13450   1.400   4.293  10.218
    1ECLIP C71313451   1.463   4.243  10.016
    1ECLIPH713R13452   1.408   4.145  10.020
    1ECLIPH713S13453   1.395   4.317   9.968
    1ECLIP C71413454   1.584   4.231   9.924
    1ECLIPH714R13455   1.635   4.330   9.917
    1ECLIPH714S13456   1.657   4.154   9.959
    1ECLIPH714T13457   1.550   4.203   9.822
    1ECLIP  C5113458   1.421   3.822  11.159
    1ECLIP  O5113459   1.331   3.903  11.143
    1ECLIP  C5213460   1.504   3.774  11.042
    1ECLIP H52R13461   1.593   3.839  11.029
    1ECLIP H52S13462   1.539   3.672  11.061
    1ECLIP  C5313463   1.420   3.777  10.912
    1ECLIP H53R13464   1.313   3.752  10.935
    1ECLIP  O5313465   1.482   3.685  10.822
    1ECLIP  C6113466   1.416   3.574  10.789
    1ECLIP  O6113467   1.303   3.546  10.822
    1ECLIP  C6213468   1.502   3.488  10.696
    1ECLIP H62R13469   1.572   3.429  10.758
    1ECLIP H62S13470   1.563   3.559  10.637
    1ECLIP  C6313471   1.415   3.394  10.607
    1ECLIP H63R13472   1.332   3.454  10.564
    1ECLIP H63S13473   1.370   3.313  10.669
    1ECLIP  C6413474   1.487   3.328  10.487
    1ECLIP H64R13475   1.417   3.258  10.435
    1ECLIP H64S13476   1.572   3.271  10.528
    1ECLIP  C6513477   1.537   3.435  10.389
    1ECLIP H65R13478   1.608   3.496  10.450
    1ECLIP H65S13479   1.453   3.501  10.358
    1ECLIP  C6613480   1.612   3.390  10.262
    1ECLIP H66R13481   1.699   3.328  10.291
    1ECLIP H66S13482   1.649   3.484  10.216
    1ECLIP  C6713483   1.532   3.315  10.153
    1ECLIP H67R13484   1.479   3.227  10.194
    1ECLIP H67S13485   1.602   3.279  10.074
    1ECLIP  C6813486   1.424   3.399  10.086
    1ECLIP H68R13487   1.460   3.496  10.046
    1ECLIP H68S13488   1.348   3.418  10.164
    1ECLIP  C6913489   1.367   3.323   9.966
    1ECLIP H69R13490   1.373   3.213   9.975
    1ECLIP H69S13491   1.436   3.349   9.885
    1ECLIP C61013492   1.223   3.364   9.931
    1ECLIPH610R13493   1.216   3.475   9.937
    1ECLIPH610S13494   1.156   3.321  10.008
    1ECLIP C61113495   1.176   3.311   9.795
    1ECLIPH611R13496   1.198   3.202   9.791
    1ECLIPH611S13497   1.068   3.323   9.779
    1ECLIP C61213498   1.245   3.384   9.682
    1ECLIPH612R13499   1.223   3.492   9.676
    1ECLIPH612S13500   1.341   3.381   9.715
    1ECLIPH612T13501   1.246   3.334   9.582
    1ECLIP  C5413502   1.428   3.921  10.853
    1ECLIP H54R13503   1.534   3.938  10.824
    1ECLIP H54S13504   1.402   3.993  10.934
    1ECLIP  C5513505   1.337   3.951  10.733
    1ECLIP H55R13506   1.329   4.061  10.719
    1ECLIP H55S13507   1.234   3.917  10.756
    1ECLIP  C5613508   1.396   3.890  10.605
    1ECLIP H56R13509   1.410   3.782  10.622
    1ECLIP H56S13510   1.497   3.934  10.587
    1ECLIP  C5713511   1.315   3.899  10.477
    1ECLIP H57R13512   1.285   4.004  10.454
    1ECLIP H57S13513   1.221   3.841  10.491
    1ECLIP  C5813514   1.395   3.837  10.360
    1ECLIP H58R13515   1.499   3.874  10.358
    1ECLIP H58S13516   1.404   3.728  10.382
    1ECLIP  C5913517   1.330   3.863  10.223
    1ECLIP H59R13518   1.318   3.973  10.208
    1ECLIP H59S13519   1.228   3.819  10.232
    1ECLIP C51013520   1.411   3.813  10.100
    1ECLIPH510R13521   1.448   3.710  10.118
    1ECLIPH510S13522   1.500   3.879  10.088
    1ECLIP C51113523   1.336   3.813   9.965
    1ECLIPH511R13524   1.270   3.724   9.963
    1ECLIPH511S13525   1.271   3.903   9.958
    1ECLIP C51213526   1.425   3.807   9.840
    1ECLIPH512R13527   1.367   3.837   9.749
    1ECLIPH512S13528   1.511   3.877   9.848
    1ECLIP C51313529   1.473   3.667   9.805
    1ECLIPH513R13530   1.390   3.594   9.791
    1ECLIPH513S13531   1.540   3.625   9.883
    1ECLIP C51413532   1.548   3.672   9.676
    1ECLIPH514R13533   1.625   3.749   9.683
    1ECLIPH514S13534   1.604   3.581   9.679
    1ECLIPH514T13535   1.487   3.683   9.584
    1ECLIP  C3313536   1.513   3.308  11.182
    1ECLIP H33R13537   1.588   3.236  11.222
    1ECLIP  O3313538   1.496   3.408  11.281
    1ECLIP HO3313539   1.489   3.374  11.371
    1ECLIP  C3413540   1.574   3.374  11.056
    1ECLIP H34R13541   1.502   3.449  11.018
    1ECLIP H34S13542   1.586   3.297  10.977
    1ECLIP  C3513543   1.711   3.443  11.080
    1ECLIP H35R13544   1.787   3.369  11.111
    1ECLIP H35S13545   1.699   3.517  11.162
    1ECLIP  C3613546   1.765   3.517  10.956
    1ECLIP H36R13547   1.674   3.551  10.903
    1ECLIP H36S13548   1.822   3.450  10.889
    1ECLIP  C3713549   1.847   3.644  10.989
    1ECLIP H37R13550   1.953   3.613  11.004
    1ECLIP H37S13551   1.812   3.687  11.085
    1ECLIP  C3813552   1.841   3.754  10.880
    1ECLIP H38R13553   1.744   3.808  10.879
    1ECLIP H38S13554   1.919   3.830  10.905
    1ECLIP  C3913555   1.863   3.697  10.739
    1ECLIP H39R13556   1.789   3.617  10.718
    1ECLIP H39S13557   1.966   3.655  10.734
    1ECLIP C31013558   1.852   3.798  10.624
    1ECLIPH310R13559   1.941   3.864  10.633
    1ECLIPH310S13560   1.760   3.860  10.632
    1ECLIP C31113561   1.839   3.726  10.488
    1ECLIPH311R13562   1.899   3.632  10.489
    1ECLIPH311S13563   1.732   3.696  10.473
    1ECLIP C31213564   1.876   3.812  10.366
    1ECLIPH312R13565   1.847   3.917  10.385
    1ECLIPH312S13566   1.987   3.808  10.354
    1ECLIP C31313567   1.810   3.762  10.237
    1ECLIPH313R13568   1.861   3.667  10.211
    1ECLIPH313S13569   1.702   3.739  10.254
    1ECLIP C31413570   1.822   3.858  10.118
    1ECLIPH314R13571   1.929   3.877  10.096
    1ECLIPH314S13572   1.774   3.816  10.027
    1ECLIPH314T13573   1.772   3.955  10.141
    1ECLIP  C1113574   1.002   3.594  10.861
    1ECLIP  O1113575   1.048   3.707  10.845
    1ECLIP  C1213576   0.895   3.542  10.769
    1ECLIP H12R13577   0.799   3.593  10.791
    1ECLIP H12S13578   0.885   3.433  10.787
    1ECLIP  C1313579   0.930   3.562  10.622
    1ECLIP H13R13580   0.972   3.663  10.601
    1ECLIP  O1313581   0.808   3.548  10.548
    1ECLIP HO1313582   0.806   3.598  10.466
    1ECLIP  C1413583   1.032   3.454  10.580
    1ECLIP H14R13584   1.009   3.358  10.632
    1ECLIP H14S13585   1.131   3.490  10.614
    1ECLIP  C1513586   1.042   3.425  10.431
    1ECLIP H15R13587   0.941   3.398  10.393
    1ECLIP H15S13588   1.107   3.336  10.419
    1ECLIP  C1613589   1.100   3.545  10.354
    1ECLIP H16R13590   1.210   3.547  10.364
    1ECLIP H16S13591   1.063   3.639  10.401
    1ECLIP  C1713592   1.061   3.538  10.207
    1ECLIP H17R13593   1.077   3.433  10.175
    1ECLIP H17S13594   1.126   3.602  10.143
    1ECLIP  C1813595   0.915   3.576  10.186
    1ECLIP H18R13596   0.853   3.509  10.247
    1ECLIP H18S13597   0.898   3.682  10.216
    1ECLIP  C1913598   0.872   3.561  10.042
    1ECLIP H19R13599   0.762   3.574  10.031
    1ECLIP H19S13600   0.898   3.459  10.003
    1ECLIP C11013601   0.945   3.665   9.959
    1ECLIPH110R13602   0.927   3.770   9.988
    1ECLIPH110S13603   1.053   3.641   9.953
    1ECLIP C11113604   0.894   3.650   9.822
    1ECLIPH111R13605   0.871   3.544   9.814
    1ECLIPH111S13606   0.786   3.674   9.835
    1ECLIP C11213607   0.985   3.733   9.722
    1ECLIPH112R13608   0.975   3.835   9.763
    1ECLIPH112S13609   1.093   3.715   9.724
    1ECLIP C11313610   0.948   3.729   9.572
    1ECLIPH113R13611   1.013   3.655   9.529
    1ECLIPH113S13612   0.840   3.708   9.557
    1ECLIP C11413613   0.975   3.814   9.458
    1ECLIPH114R13614   0.944   3.915   9.487
    1ECLIPH114S13615   1.080   3.811   9.425
    1ECLIPH114T13616   0.909   3.773   9.374
    2AKDO    C113617   1.562   3.847  11.979
    2AKDO   O1113618   1.646   3.941  11.980
    2AKDO   O1213619   1.585   3.727  11.947
    2AKDO    C213620   1.416   3.880  12.024
    2AKDO    C613621   1.279   4.052  12.122
    2AKDO    H613622   1.215   4.040  12.031
    2AKDO    O613623   1.411   4.013  12.083
    2AKDO    C313624   1.362   3.783  12.129
    2AKDO   H3113625   1.432   3.777  12.215
    2AKDO   H3213626   1.356   3.682  12.081
    2AKDO    C413627   1.224   3.821  12.173
    2AKDO    H413628   1.157   3.826  12.084
    2AKDO    O413629   1.174   3.732  12.273
    2AKDO    C513630   1.223   3.960  12.232
    2AKDO    H513631   1.116   3.989  12.245
    2AKDO    O513632   1.292   3.955  12.361
    2AKDO    C713633   1.273   4.202  12.152
    2AKDO    H713634   1.332   4.220  12.244
    2AKDO    O713635   1.135   4.241  12.171
    2AKDO   HO713636   1.106   4.258  12.082
    2AKDO    C813637   1.331   4.283  12.038
    2AKDO   H8113638   1.436   4.246  12.022
    2AKDO   H8213639   1.275   4.260  11.944
    2AKDO    O813640   1.330   4.427  12.062
    2AKDO   HO813641   1.418   4.453  12.029
    3AKDO    C113642   1.022   3.623  12.118
    3AKDO   O1113643   1.068   3.593  12.005
    3AKDO   O1213644   0.915   3.683  12.147
    3AKDO    C213645   1.118   3.607  12.239
    3AKDO    C613646   1.315   3.490  12.315
    3AKDO    H613647   1.367   3.587  12.334
    3AKDO    O613648   1.218   3.506  12.209
    3AKDO    C313649   1.048   3.564  12.369
    3AKDO   H3113650   0.995   3.467  12.351
    3AKDO   H3213651   0.968   3.637  12.396
    3AKDO    C413652   1.149   3.552  12.479
    3AKDO    H413653   1.206   3.647  12.484
    3AKDO    O413654   1.093   3.529  12.607
    3AKDO   HO413655   1.123   3.594  12.672
    3AKDO    C513656   1.246   3.444  12.442
    3AKDO    H513657   1.320   3.434  12.525
    3AKDO    O513658   1.182   3.317  12.423
    3AKDO   HO513659   1.117   3.332  12.354
    3AKDO    C713660   1.420   3.392  12.270
    3AKDO    H713661   1.371   3.294  12.250
    3AKDO    O713662   1.517   3.376  12.375
    3AKDO   HO713663   1.572   3.300  12.353
    3AKDO    C813664   1.489   3.444  12.147
    3AKDO   H8113665   1.413   3.466  12.068
    3AKDO   H8213666   1.544   3.539  12.168
    3AKDO    O813667   1.578   3.345  12.097
    3AKDO   HO813668   1.517   3.286  12.055
    4AHEP    C113669   1.248   4.045  12.461
    4AHEP    H113670   1.288   4.142  12.427
    4AHEP    C513671   1.036   3.955  12.535
    4AHEP    H513672   1.067   3.859  12.487
    4AHEP    O513673   1.105   4.062  12.466
    4AHEP    C213674   1.298   4.033  12.607
    4AHEP    H213675   1.407   4.013  12.604
    4AHEP    O213676   1.285   4.159  12.675
    4AHEP   HO213677   1.366   4.176  12.723
    4AHEP    C313678   1.232   3.922  12.686
    4AHEP    H313679   1.257   3.821  12.646
    4AHEP    O313680   1.272   3.929  12.825
    4AHEP    C413681   1.083   3.947  12.681
    4AHEP    H413682   1.053   4.041  12.733
    4AHEP    O413683   1.023   3.833  12.741
    4AHEP    P413684   0.940   3.844  12.884
    4AHEP  OP4213685   0.962   3.706  12.946
    4AHEP  OP4313686   0.799   3.873  12.836
    4AHEP  OP4413687   1.004   3.958  12.965
    4AHEP    C613688   0.884   3.974  12.516
    4AHEP    H613689   0.836   3.877  12.546
    4AHEP    O613690   0.827   4.077  12.599
    4AHEP   HO613691   0.766   4.035  12.663
    4AHEP    C713692   0.841   4.005  12.370
    4AHEP   H7113693   0.732   3.989  12.358
    4AHEP   H7213694   0.895   3.935  12.302
    4AHEP    O713695   0.867   4.138  12.323
    4AHEP   HO713696   0.811   4.192  12.381
    5AHEP    C113697   1.336   3.818  12.883
    5AHEP    H113698   1.300   3.723  12.835
    5AHEP    C513699   1.532   3.945  12.932
    5AHEP    H513700   1.475   4.034  12.896
    5AHEP    O513701   1.478   3.829  12.864
    5AHEP    C213702   1.307   3.808  13.033
    5AHEP    H213703   1.196   3.806  13.045
    5AHEP    O213704   1.358   3.683  13.085
    5AHEP   HO213705   1.284   3.625  13.100
    5AHEP    C313706   1.360   3.929  13.110
    5AHEP    H313707   1.311   4.021  13.068
    5AHEP    O313708   1.338   3.925  13.253
    5AHEP    C413709   1.508   3.936  13.083
    5AHEP    H413710   1.559   3.844  13.120
    5AHEP    O413711   1.562   4.054  13.143
    5AHEP    P413712   1.671   4.047  13.268
    5AHEP  OP4213713   1.675   4.188  13.329
    5AHEP  OP4313714   1.806   4.001  13.212
    5AHEP  OP4413715   1.621   3.944  13.370
    5AHEP    C613716   1.679   3.967  12.893
    5AHEP    H613717   1.713   4.062  12.941
    5AHEP    O613718   1.761   3.858  12.940
    5AHEP   HO613719   1.750   3.781  12.885
    5AHEP    C713720   1.693   3.988  12.743
    5AHEP   H7113721   1.773   4.065  12.728
    5AHEP   H7213722   1.602   4.033  12.698
    5AHEP    O713723   1.738   3.868  12.679
    6AHEP    C113724   1.635   3.799  12.615
    6AHEP    H113725   1.535   3.841  12.639
    6AHEP    C513726   1.778   3.756  12.432
    6AHEP    H513727   1.858   3.809  12.488
    6AHEP    O513728   1.651   3.810  12.473
    6AHEP    C213729   1.636   3.654  12.659
    6AHEP    H213730   1.625   3.653  12.770
    6AHEP    O213731   1.521   3.586  12.610
    6AHEP   HO213732   1.464   3.566  12.683
    6AHEP    C313733   1.770   3.590  12.621
    6AHEP    H313734   1.850   3.645  12.675
    6AHEP    O313735   1.777   3.451  12.660
    6AHEP   HO313736   1.834   3.436  12.736
    6AHEP    C413737   1.787   3.607  12.470
    6AHEP    H413738   1.709   3.549  12.416
    6AHEP    O413739   1.914   3.560  12.427
    6AHEP   HO413740   1.980   3.623  12.455
    6AHEP    C613741   1.809   3.786  12.285
    6AHEP    H613742   1.915   3.755  12.269
    6AHEP    O613743   1.734   3.707  12.193
    6AHEP   HO613744   1.679   3.765  12.138
    6AHEP    C713745   1.808   3.935  12.253
    6AHEP   H7113746   1.846   3.952  12.150
    6AHEP   H7213747   1.877   3.984  12.323
    6AHEP    O713748   1.680   3.998  12.265
    6AHEP   HO713749   1.667   4.017  12.358
    7AGLC    C113750   1.222   3.987  13.302
    7AGLC    H113751   1.204   4.084  13.252
    7AGLC    C513752   1.118   3.777  13.346
    7AGLC    H513753   1.213   3.726  13.318
    7AGLC    O513754   1.110   3.904  13.280
    7AGLC    C213755   1.223   4.013  13.454
    7AGLC    H213756   1.121   4.049  13.480
    7AGLC    O213757   1.311   4.119  13.493
    7AGLC   HO213758   1.402   4.083  13.492
    7AGLC    C313759   1.241   3.886  13.534
    7AGLC    H313760   1.334   3.837  13.497
    7AGLC    O313761   1.256   3.911  13.676
    7AGLC    C413762   1.121   3.798  13.497
    7AGLC    H413763   1.027   3.849  13.529
    7AGLC    O413764   1.130   3.670  13.560
    7AGLC   HO413765   1.048   3.650  13.607
    7AGLC    C613766   1.006   3.691  13.287
    7AGLC   H6113767   1.023   3.684  13.176
    7AGLC   H6213768   1.011   3.588  13.327
    7AGLC    O613769   0.875   3.743  13.310
    7AGLC   HO613770   0.845   3.700  13.390
    8AGLC    C113771   1.380   3.867  13.729
    8AGLC    H113772   1.403   3.766  13.687
    8AGLC    C513773   1.488   4.086  13.758
    8AGLC    H513774   1.393   4.133  13.725
    8AGLC    O513775   1.493   3.953  13.698
    8AGLC    C213776   1.377   3.850  13.880
    8AGLC    H213777   1.476   3.806  13.907
    8AGLC    O213778   1.277   3.761  13.931
    8AGLC    C313779   1.365   3.982  13.949
    8AGLC    H313780   1.271   4.029  13.909
    8AGLC    O313781   1.347   3.958  14.091
    8AGLC    C413782   1.483   4.068  13.909
    8AGLC    H413783   1.576   4.013  13.940
    8AGLC    O413784   1.482   4.193  13.975
    8AGLC   HO413785   1.392   4.225  13.973
    8AGLC    C613786   1.600   4.182  13.711
    8AGLC   H6113787   1.609   4.181  13.599
    8AGLC   H6213788   1.573   4.287  13.738
    8AGLC    O613789   1.727   4.155  13.770
    8AGLC   HO613790   1.729   4.196  13.857
    9AGAL    C113791   1.274   3.630  13.880
    9AGAL    H113792   1.277   3.631  13.769
    9AGAL    C513793   1.382   3.527  14.064
    9AGAL    H513794   1.373   3.627  14.111
    9AGAL    O513795   1.385   3.549  13.922
    9AGAL    C213796   1.141   3.567  13.920
    9AGAL    H213797   1.140   3.467  13.873
    9AGAL    O213798   1.037   3.645  13.857
    9AGAL    C313799   1.136   3.544  14.070
    9AGAL    H313800   1.146   3.641  14.125
    9AGAL    O313801   1.011   3.491  14.112
    9AGAL   HO313802   0.947   3.533  14.054
    9AGAL    C413803   1.254   3.453  14.105
    9AGAL    H413804   1.257   3.436  14.215
    9AGAL    O413805   1.247   3.326  14.040
    9AGAL   HO413806   1.286   3.262  14.101
    9AGAL    C613807   1.512   3.471  14.119
    9AGAL   H6113808   1.596   3.539  14.098
    9AGAL   H6213809   1.500   3.468  14.229
    9AGAL    O613810   1.548   3.340  14.076
    9AGAL   HO613811   1.612   3.349  14.005
   10AGAL    C113812   0.910   3.678  13.911
   10AGAL    H113813   0.849   3.585  13.919
   10AGAL    C513814   0.978   3.871  14.041
   10AGAL    H513815   1.080   3.851  14.001
   10AGAL    O513816   0.913   3.742  14.042
   10AGAL    C213817   0.841   3.771  13.812
   10AGAL    H213818   0.738   3.789  13.850
   10AGAL    O213819   0.818   3.713  13.685
   10AGAL   HO213820   0.723   3.724  13.669
   10AGAL    C313821   0.915   3.905  13.805
   10AGAL    H313822   1.021   3.882  13.780
   10AGAL    O313823   0.865   3.993  13.704
   10AGAL   HO313824   0.933   4.003  13.638
   10AGAL    C413825   0.912   3.966  13.943
   10AGAL    H413826   0.970   4.062  13.944
   10AGAL    O413827   0.780   3.995  13.984
   10AGAL   HO413828   0.734   3.912  13.996
   10AGAL    C613829   1.005   3.934  14.178
   10AGAL   H6113830   1.049   3.858  14.245
   10AGAL   H6213831   1.082   4.014  14.163
   10AGAL    O613832   0.894   3.993  14.247
   10AGAL   HO613833   0.874   3.945  14.327
   11BGLC    C113834   1.455   3.963  14.185
   11BGLC    H113835   1.487   4.068  14.198
   11BGLC    C513836   1.672   3.868  14.247
   11BGLC    H513837   1.714   3.969  14.271
   11BGLC    O513838   1.565   3.876  14.147
   11BGLC    C213839   1.394   3.911  14.315
   11BGLC    H213840   1.354   3.807  14.301
   11BGLC    O213841   1.285   3.993  14.357
   11BGLC   HO213842   1.209   3.934  14.365
   11BGLC    C313843   1.496   3.902  14.426
   11BGLC    H313844   1.533   4.003  14.453
   11BGLC    O313845   1.435   3.838  14.541
   11BGLC    C413846   1.609   3.812  14.377
   11BGLC    H413847   1.566   3.712  14.354
   11BGLC    O413848   1.705   3.790  14.480
   11BGLC   HO413849   1.661   3.741  14.552
   11BGLC    C613850   1.789   3.787  14.187
   11BGLC   H6113851   1.857   3.750  14.266
   11BGLC   H6213852   1.747   3.701  14.131
   11BGLC    O613853   1.871   3.856  14.091
   11BGLC   HO613854   1.953   3.888  14.134
   12BGLCN   C113855   1.439   3.900  14.668
   12BGLCN   H113856   1.356   3.972  14.674
   12BGLCN   C513857   1.563   4.029  14.824
   12BGLCN   H513858   1.481   4.104  14.834
   12BGLCN   O513859   1.561   3.967  14.693
   12BGLCN   C213860   1.419   3.790  14.771
   12BGLCN   H213861   1.511   3.726  14.766
   12BGLCN    N13862   1.299   3.717  14.741
   12BGLCN   HN13863   1.218   3.771  14.730
   12BGLCN    C13864   1.299   3.584  14.727
   12BGLCN    O13865   1.398   3.517  14.748
   12BGLCN   CT13866   1.169   3.518  14.691
   12BGLCN  HT113867   1.131   3.459  14.777
   12BGLCN  HT213868   1.184   3.446  14.607
   12BGLCN  HT313869   1.095   3.595  14.660
   12BGLCN   C313870   1.413   3.846  14.912
   12BGLCN   H313871   1.327   3.916  14.917
   12BGLCN   O313872   1.388   3.742  15.012
   12BGLCN   C413873   1.544   3.921  14.931
   12BGLCN   H413874   1.631   3.851  14.925
   12BGLCN   O413875   1.543   3.976  15.061
   12BGLCN  HO413876   1.488   4.055  15.067
   12BGLCN   C613877   1.693   4.106  14.828
   12BGLCN  H6113878   1.705   4.158  14.925
   12BGLCN  H6213879   1.778   4.035  14.819
   12BGLCN   O613880   1.697   4.205  14.724
   12BGLCN  HO613881   1.668   4.287  14.761
   13AGAL    C113882   1.302   3.780  15.119
   13AGAL    H113883   1.326   3.884  15.152
   13AGAL    C513884   1.127   3.625  15.063
   13AGAL    H513885   1.201   3.587  14.990
   13AGAL    O513886   1.162   3.765  15.084
   13AGAL    C213887   1.319   3.695  15.247
   13AGAL    H213888   1.239   3.731  15.316
   13AGAL    O213889   1.445   3.720  15.312
   13AGAL    C313890   1.287   3.549  15.226
   13AGAL    H313891   1.345   3.514  15.138
   13AGAL    O313892   1.324   3.466  15.336
   13AGAL   HO313893   1.355   3.381  15.304
   13AGAL    C413894   1.142   3.539  15.188
   13AGAL    H413895   1.119   3.433  15.160
   13AGAL    O413896   1.056   3.574  15.296
   13AGAL   HO413897   1.075   3.660  15.335
   13AGAL    C613898   0.996   3.602  14.991
   13AGAL   H6113899   0.995   3.660  14.896
   13AGAL   H6213900   0.988   3.493  14.967
   13AGAL    O613901   0.882   3.640  15.067
   13AGAL   HO613902   0.865   3.569  15.131
   14ARHM    C113903   1.440   3.788  15.437
   14ARHM    H113904   1.350   3.853  15.440
   14ARHM    C513905   1.677   3.801  15.454
   14ARHM    H513906   1.682   3.747  15.357
   14ARHM    O513907   1.554   3.873  15.456
   14ARHM    C213908   1.435   3.685  15.548
   14ARHM    H213909   1.349   3.618  15.530
   14ARHM    O213910   1.429   3.736  15.682
   14ARHM    C313911   1.563   3.606  15.544
   14ARHM    H313912   1.577   3.570  15.440
   14ARHM    O313913   1.558   3.490  15.626
   14ARHM   HO313914   1.565   3.515  15.718
   14ARHM    C413915   1.681   3.700  15.569
   14ARHM    H413916   1.666   3.756  15.665
   14ARHM    O413917   1.808   3.633  15.576
   14ARHM   HO413918   1.838   3.622  15.666
   14ARHM    C613919   1.792   3.904  15.461
   14ARHM   H6113920   1.773   3.990  15.394
   14ARHM   H6213921   1.799   3.938  15.566
   14ARHM   H6313922   1.889   3.860  15.431
   15ARHM    C113923   1.327   3.828  15.711
   15ARHM    H113924   1.242   3.813  15.641
   15ARHM    C513925   1.473   4.000  15.801
   15ARHM    H513926   1.569   3.947  15.781
   15ARHM    O513927   1.371   3.967  15.704
   15ARHM    C213928   1.276   3.797  15.850
   15ARHM    H213929   1.249   3.689  15.856
   15ARHM    O213930   1.156   3.875  15.865
   15ARHM    C313931   1.385   3.824  15.950
   15ARHM    H313932   1.477   3.767  15.920
   15ARHM    O313933   1.340   3.775  16.076
   15ARHM    C413934   1.420   3.970  15.939
   15ARHM    H413935   1.325   4.025  15.948
   15ARHM    O413936   1.509   4.017  16.038
   15ARHM   HO413937   1.510   4.113  16.033
   15ARHM    C613938   1.501   4.151  15.791
   15ARHM   H6113939   1.593   4.183  15.843
   15ARHM   H6213940   1.510   4.174  15.686
   15ARHM   H6313941   1.417   4.214  15.825
   16BMANN   C113942   1.084   3.871  15.987
   16BMANN   H113943   1.144   3.920  16.067
   16BMANN   C513944   0.981   3.738  16.157
   16BMANN   H513945   1.046   3.791  16.232
   16BMANN   O513946   1.048   3.739  16.030
   16BMANN   C213947   0.955   3.952  15.967
   16BMANN   H213948   0.988   4.056  15.940
   16BMANN    N13949   0.867   3.904  15.862
   16BMANN   HN13950   0.795   3.841  15.890
   16BMANN    C13951   0.867   3.946  15.735
   16BMANN    O13952   0.947   4.029  15.692
   16BMANN   CT13953   0.767   3.878  15.644
   16BMANN  HT113954   0.682   3.946  15.621
   16BMANN  HT213955   0.729   3.785  15.690
   16BMANN  HT313956   0.816   3.852  15.548
   16BMANN   C313957   0.883   3.956  16.100
   16BMANN   H313958   0.953   4.001  16.173
   16BMANN   O313959   0.768   4.039  16.095
   16BMANN  HO313960   0.770   4.102  16.167
   16BMANN   C413961   0.850   3.814  16.148
   16BMANN   H413962   0.783   3.765  16.074
   16BMANN   O413963   0.784   3.809  16.275
   16BMANN  HO413964   0.730   3.728  16.277
   16BMANN   C613965   0.959   3.598  16.213
   16BMANN  H6113966   0.957   3.607  16.324
   16BMANN  H6213967   0.861   3.560  16.179
   16BMANN   O613968   1.056   3.500  16.181
   16BMANN  HO613969   1.015   3.439  16.119
   17BGLCN   C113970   1.440   3.713  16.151
   17BGLCN   H113971   1.536   3.767  16.134
   17BGLCN   C513972   1.558   3.507  16.193
   17BGLCN   H513973   1.657   3.554  16.173
   17BGLCN   O513974   1.457   3.575  16.115
   17BGLCN   C213975   1.393   3.725  16.294
   17BGLCN   H213976   1.299   3.666  16.311
   17BGLCN    N13977   1.361   3.863  16.325
   17BGLCN   HN13978   1.412   3.930  16.273
   17BGLCN    C13979   1.277   3.908  16.418
   17BGLCN    O13980   1.201   3.837  16.483
   17BGLCN   CT13981   1.286   4.057  16.441
   17BGLCN  HT113982   1.207   4.112  16.388
   17BGLCN  HT213983   1.384   4.095  16.404
   17BGLCN  HT313984   1.278   4.080  16.549
   17BGLCN   C313985   1.504   3.667  16.379
   17BGLCN   H313986   1.597   3.719  16.345
   17BGLCN   O313987   1.482   3.699  16.519
   17BGLCN   C413988   1.519   3.519  16.341
   17BGLCN   H413989   1.420   3.468  16.351
   17BGLCN   O413990   1.613   3.453  16.426
   17BGLCN  HO413991   1.612   3.358  16.405
   17BGLCN   C613992   1.569   3.361  16.147
   17BGLCN  H6113993   1.674   3.326  16.152
   17BGLCN  H6213994   1.511   3.296  16.215
   17BGLCN   O613995   1.520   3.336  16.015
   17BGLCN  HO613996   1.568   3.391  15.954
   18AGAL    C113997   1.596   3.722  16.599
   18AGAL    H113998   1.647   3.625  16.617
   18AGAL    C513999   1.638   3.944  16.521
   18AGAL    H514000   1.537   3.937  16.476
   18AGAL    O514001   1.690   3.810  16.535
   18AGAL    C214002   1.566   3.787  16.733
   18AGAL    H214003   1.667   3.804  16.775
   18AGAL    O214004   1.500   3.699  16.824
   18AGAL    C314005   1.505   3.926  16.720
   18AGAL    H314006   1.417   3.920  16.653
   18AGAL    O314007   1.459   3.981  16.844
   18AGAL   HO314008   1.372   4.019  16.834
   18AGAL    C414009   1.608   4.014  16.653
   18AGAL    H414010   1.565   4.113  16.626
   18AGAL    O414011   1.725   4.037  16.731
   18AGAL   HO414012   1.705   4.088  16.810
   18AGAL    C614013   1.711   4.017  16.413
   18AGAL   H6114014   1.695   3.959  16.319
   18AGAL   H6214015   1.668   4.118  16.399
   18AGAL    O614016   1.850   4.027  16.435
   18AGAL   HO614017   1.881   3.969  16.506
   19ARHM    C114018   1.554   3.709  16.954
   19ARHM    H114019   1.594   3.812  16.972
   19ARHM    C514020   1.628   3.483  16.961
   19ARHM    H514021   1.586   3.473  16.858
   19ARHM    O514022   1.664   3.620  16.979
   19ARHM    C214023   1.442   3.678  17.048
   19ARHM    H214024   1.352   3.739  17.024
   19ARHM    O214025   1.481   3.709  17.182
   19ARHM    C314026   1.401   3.533  17.033
   19ARHM    H314027   1.372   3.515  16.926
   19ARHM    O314028   1.289   3.502  17.114
   19ARHM   HO314029   1.312   3.532  17.202
   19ARHM    C414030   1.521   3.446  17.061
   19ARHM    H414031   1.556   3.465  17.165
   19ARHM    O414032   1.496   3.307  17.051
   19ARHM   HO414033   1.466   3.287  16.961
   19ARHM    C614034   1.754   3.396  16.964
   19ARHM   H6114035   1.820   3.436  16.884
   19ARHM   H6214036   1.806   3.399  17.061
   19ARHM   H6314037   1.730   3.290  16.942
   20ARHM    C114038   1.486   3.847  17.206
   20ARHM    H114039   1.438   3.904  17.123
   20ARHM    C514040   1.687   3.845  17.332
   20ARHM    H514041   1.691   3.735  17.318
   20ARHM    O514042   1.618   3.900  17.220
   20ARHM    C214043   1.405   3.871  17.331
   20ARHM    H214044   1.307   3.818  17.321
   20ARHM    O214045   1.385   4.011  17.353
   20ARHM    C314046   1.474   3.812  17.449
   20ARHM    H314047   1.488   3.703  17.432
   20ARHM    O314048   1.391   3.834  17.563
   20ARHM    C414049   1.610   3.877  17.459
   20ARHM    H414050   1.604   3.988  17.468
   20ARHM    O414051   1.678   3.829  17.572
   20ARHM   HO414052   1.771   3.829  17.546
   20ARHM    C614053   1.832   3.898  17.332
   20ARHM   H6114054   1.838   4.008  17.344
   20ARHM   H6214055   1.889   3.848  17.413
   20ARHM   H6314056   1.880   3.874  17.235
   21BMANN   C114057   1.277   4.056  17.278
   21BMANN   H114058   1.243   3.975  17.209
   21BMANN   C514059   1.199   4.191  17.103
   21BMANN   H514060   1.169   4.099  17.046
   21BMANN   O514061   1.311   4.163  17.189
   21BMANN   C214062   1.164   4.096  17.371
   21BMANN   H214063   1.141   4.002  17.429
   21BMANN    N14064   1.198   4.204  17.466
   21BMANN   HN14065   1.251   4.278  17.427
   21BMANN    C14066   1.157   4.207  17.595
   21BMANN    O14067   1.072   4.131  17.638
   21BMANN   CT14068   1.219   4.311  17.685
   21BMANN  HT114069   1.172   4.410  17.668
   21BMANN  HT214070   1.328   4.315  17.668
   21BMANN  HT314071   1.201   4.287  17.792
   21BMANN   C314072   1.044   4.126  17.283
   21BMANN   H314073   1.022   4.031  17.229
   21BMANN   O314074   0.929   4.162  17.358
   21BMANN  HO314075   0.952   4.232  17.420
   21BMANN   C414076   1.079   4.235  17.183
   21BMANN   H414077   1.106   4.330  17.237
   21BMANN   O414078   0.974   4.266  17.092
   21BMANN  HO414079   0.944   4.354  17.112
   21BMANN   C614080   1.236   4.294  17.000
   21BMANN  H6114081   1.160   4.292  16.918
   21BMANN  H6214082   1.232   4.396  17.044
   21BMANN   O614083   1.364   4.271  16.945
   21BMANN  HO614084   1.430   4.273  17.016
   22BGLCN   C114085   1.392   3.733  17.660
   22BGLCN   H114086   1.487   3.676  17.660
   22BGLCN   C514087   1.278   3.543  17.747
   22BGLCN   H514088   1.376   3.489  17.749
   22BGLCN   O514089   1.283   3.641  17.643
   22BGLCN   C214090   1.376   3.806  17.791
   22BGLCN   H214091   1.278   3.862  17.786
   22BGLCN    N14092   1.485   3.900  17.809
   22BGLCN   HN14093   1.574   3.871  17.776
   22BGLCN    C14094   1.475   4.017  17.871
   22BGLCN    O14095   1.374   4.059  17.925
   22BGLCN   CT14096   1.603   4.095  17.876
   22BGLCN  HT114097   1.599   4.165  17.789
   22BGLCN  HT214098   1.689   4.027  17.864
   22BGLCN  HT314099   1.613   4.149  17.972
   22BGLCN   C314100   1.371   3.706  17.905
   22BGLCN   H314101   1.465   3.646  17.902
   22BGLCN   O314102   1.367   3.782  18.026
   22BGLCN   C414103   1.256   3.612  17.882
   22BGLCN   H414104   1.162   3.672  17.877
   22BGLCN   O414105   1.242   3.517  17.987
   22BGLCN  HO414106   1.149   3.499  18.007
   22BGLCN   C614107   1.167   3.447  17.714
   22BGLCN  H6114108   1.142   3.389  17.806
   22BGLCN  H6214109   1.076   3.502  17.682
   22BGLCN   O614110   1.205   3.352  17.616
   22BGLCN  HO614111   1.235   3.394  17.535
   23AGAL    C114112   1.406   3.721  18.146
   23AGAL    H114113   1.325   3.654  18.181
   23AGAL    C514114   1.642   3.724  18.109
   23AGAL    H514115   1.623   3.785  18.018
   23AGAL    O514116   1.526   3.643  18.135
   23AGAL    C214117   1.425   3.825  18.255
   23AGAL    H214118   1.451   3.769  18.347
   23AGAL    O214119   1.303   3.899  18.279
   23AGAL    C314120   1.546   3.913  18.224
   23AGAL    H314121   1.534   3.955  18.122
   23AGAL    O314122   1.559   4.025  18.311
   23AGAL   HO314123   1.541   3.996  18.401
   23AGAL    C414124   1.669   3.824  18.222
   23AGAL    H414125   1.761   3.883  18.199
   23AGAL    O414126   1.691   3.757  18.346
   23AGAL   HO414127   1.738   3.675  18.322
   23AGAL    C614128   1.753   3.631  18.071
   23AGAL   H6114129   1.718   3.558  17.995
   23AGAL   H6214130   1.829   3.694  18.021
   23AGAL    O614131   1.809   3.561  18.182
   23AGAL   HO614132   1.876   3.496  18.156
   24ARHM    C114133   1.206   3.842  18.365
   24ARHM    H114134   1.225   3.733  18.375
   24ARHM    C514135   1.029   3.990  18.301
   24ARHM    H514136   1.101   4.038  18.231
   24ARHM    O514137   1.070   3.853  18.319
   24ARHM    C214138   1.219   3.913  18.497
   24ARHM    H214139   1.326   3.911  18.530
   24ARHM    O214140   1.133   3.855  18.597
   24ARHM    C314141   1.181   4.058  18.479
   24ARHM    H314142   1.247   4.101  18.400
   24ARHM    O314143   1.205   4.132  18.598
   24ARHM   HO314144   1.127   4.134  18.654
   24ARHM    C414145   1.036   4.065  18.432
   24ARHM    H414146   0.971   4.013  18.507
   24ARHM    O414147   0.990   4.200  18.417
   24ARHM   HO414148   0.897   4.206  18.441
   24ARHM    C614149   0.891   3.996  18.232
   24ARHM   H6114150   0.885   4.093  18.178
   24ARHM   H6214151   0.881   3.916  18.157
   24ARHM   H6314152   0.806   3.988  18.304
   25ARHM    C114153   1.180   3.735  18.651
   25ARHM    H114154   1.257   3.692  18.583
   25ARHM    C514155   0.977   3.668  18.756
   25ARHM    H514156   0.928   3.763  18.722
   25ARHM    O514157   1.080   3.632  18.663
   25ARHM    C214158   1.246   3.765  18.782
   25ARHM    H214159   1.313   3.853  18.772
   25ARHM    O214160   1.322   3.652  18.827
   25ARHM    C314161   1.139   3.803  18.881
   25ARHM    H314162   1.085   3.894  18.845
   25ARHM    O314163   1.203   3.827  19.006
   25ARHM    C414164   1.038   3.693  18.893
   25ARHM    H414165   1.086   3.598  18.927
   25ARHM    O414166   0.940   3.729  18.989
   25ARHM   HO414167   0.916   3.651  19.040
   25ARHM    C614168   0.867   3.559  18.759
   25ARHM   H6114169   0.835   3.537  18.655
   25ARHM   H6214170   0.906   3.466  18.803
   25ARHM   H6314171   0.780   3.595  18.817
   26BMANN   C114172   1.447   3.638  18.764
   26BMANN   H114173   1.482   3.734  18.722
   26BMANN   C514174   1.577   3.531  18.595
   26BMANN   H514175   1.602   3.632  18.554
   26BMANN   O514176   1.448   3.540  18.659
   26BMANN   C214177   1.542   3.595  18.871
   26BMANN   H214178   1.538   3.676  18.949
   26BMANN    N14179   1.503   3.467  18.929
   26BMANN   HN14180   1.488   3.391  18.866
   26BMANN    C14181   1.487   3.444  19.059
   26BMANN    O14182   1.489   3.536  19.139
   26BMANN   CT14183   1.470   3.301  19.100
   26BMANN  HT114184   1.422   3.241  19.020
   26BMANN  HT214185   1.409   3.289  19.192
   26BMANN  HT314186   1.570   3.258  19.122
   26BMANN   C314187   1.680   3.592  18.811
   26BMANN   H314188   1.703   3.693  18.769
   26BMANN   O314189   1.775   3.567  18.913
   26BMANN  HO314190   1.788   3.651  18.954
   26BMANN   C414191   1.683   3.492  18.697
   26BMANN   H414192   1.660   3.390  18.734
   26BMANN   O414193   1.811   3.487  18.635
   26BMANN  HO414194   1.869   3.432  18.689
   26BMANN   C614195   1.563   3.436  18.476
   26BMANN  H6114196   1.464   3.453  18.428
   26BMANN  H6214197   1.641   3.459  18.400
   26BMANN   O614198   1.572   3.298  18.512
   26BMANN  HO614199   1.660   3.286  18.550
   27BGLCN   C114200   1.157   3.935  19.083
   27BGLCN   H114201   1.047   3.946  19.079
   27BGLCN   C514202   1.173   4.167  19.127
   27BGLCN   H514203   1.062   4.169  19.128
   27BGLCN   O514204   1.216   4.059  19.044
   27BGLCN   C214205   1.203   3.900  19.223
   27BGLCN   H214206   1.316   3.896  19.220
   27BGLCN    N14207   1.154   3.769  19.265
   27BGLCN   HN14208   1.060   3.747  19.241
   27BGLCN    C14209   1.235   3.682  19.331
   27BGLCN    O14210   1.339   3.716  19.386
   27BGLCN   CT14211   1.193   3.537  19.337
   27BGLCN  HT114212   1.105   3.519  19.273
   27BGLCN  HT214213   1.172   3.505  19.441
   27BGLCN  HT314214   1.279   3.475  19.303
   27BGLCN   C314215   1.162   4.007  19.318
   27BGLCN   H314216   1.051   4.017  19.314
   27BGLCN   O314217   1.205   3.961  19.448
   27BGLCN   C414218   1.219   4.138  19.268
   27BGLCN   H414219   1.326   4.129  19.257
   27BGLCN   O414220   1.183   4.246  19.353
   27BGLCN  HO414221   1.089   4.255  19.338
   27BGLCN   C614222   1.220   4.298  19.068
   27BGLCN  H6114223   1.171   4.382  19.121
   27BGLCN  H6214224   1.330   4.311  19.081
   27BGLCN   O614225   1.181   4.307  18.930
   27BGLCN  HO614226   1.221   4.385  18.890
   28AGAL    C114227   1.148   4.022  19.561
   28AGAL    H114228   1.192   4.123  19.569
   28AGAL    C514229   0.939   3.906  19.549
   28AGAL    H514230   0.988   3.834  19.479
   28AGAL    O514231   1.007   4.035  19.541
   28AGAL    C214232   1.173   3.954  19.698
   28AGAL    H214233   1.120   4.025  19.766
   28AGAL    O214234   1.308   3.946  19.747
   28AGAL    C314235   1.104   3.820  19.706
   28AGAL    H314236   1.141   3.758  19.621
   28AGAL    O314237   1.130   3.742  19.823
   28AGAL   HO314238   1.173   3.660  19.795
   28AGAL    C414239   0.957   3.843  19.685
   28AGAL    H414240   0.905   3.745  19.685
   28AGAL    O414241   0.900   3.925  19.786
   28AGAL   HO414242   0.846   3.871  19.845
   28AGAL    C614243   0.794   3.915  19.501
   28AGAL   H6114244   0.796   3.940  19.393
   28AGAL   H6214245   0.740   3.819  19.513
   28AGAL    O614246   0.715   4.015  19.565
   28AGAL   HO614247   0.736   4.103  19.534
   29ARHM    C114248   1.310   3.978  19.885
   29ARHM    H114249   1.213   3.955  19.932
   29ARHM    C514250   1.466   4.155  19.849
   29ARHM    H514251   1.465   4.128  19.741
   29ARHM    O514252   1.340   4.116  19.906
   29ARHM    C214253   1.414   3.896  19.953
   29ARHM    H214254   1.394   3.789  19.929
   29ARHM    O214255   1.410   3.917  20.097
   29ARHM    C314256   1.548   3.931  19.897
   29ARHM    H314257   1.551   3.910  19.788
   29ARHM    O314258   1.643   3.849  19.960
   29ARHM   HO314259   1.724   3.897  19.961
   29ARHM    C414260   1.578   4.079  19.917
   29ARHM    H414261   1.578   4.102  20.027
   29ARHM    O414262   1.709   4.115  19.872
   29ARHM   HO414263   1.723   4.092  19.780
   29ARHM    C614264   1.465   4.308  19.857
   29ARHM   H6114265   1.370   4.345  19.813
   29ARHM   H6214266   1.468   4.343  19.962
   29ARHM   H6314267   1.550   4.351  19.801
   30ARHM    C114268   1.338   3.823  20.173
   30ARHM    H114269   1.377   3.720  20.152
   30ARHM    C514270   1.138   3.954  20.186
   30ARHM    H514271   1.194   4.030  20.127
   30ARHM    O514272   1.195   3.827  20.152
   30ARHM    C214273   1.363   3.854  20.319
   30ARHM    H214274   1.473   3.854  20.339
   30ARHM    O214275   1.295   3.754  20.395
   30ARHM    C314276   1.306   3.988  20.359
   30ARHM    H314277   1.349   4.062  20.288
   30ARHM    O314278   1.347   4.028  20.491
   30ARHM    C414279   1.157   3.987  20.333
   30ARHM    H414280   1.106   3.907  20.392
   30ARHM    O414281   1.097   4.110  20.370
   30ARHM   HO414282   1.098   4.175  20.300
   30ARHM    C614283   0.992   3.958  20.142
   30ARHM   H6114284   0.952   4.060  20.159
   30ARHM   H6214285   0.984   3.938  20.033
   30ARHM   H6314286   0.930   3.885  20.198
   31BMANN   C114287   1.372   3.642  20.426
   31BMANN   H114288   1.475   3.673  20.452
   31BMANN   C514289   1.441   3.425  20.357
   31BMANN   H514290   1.543   3.461  20.387
   31BMANN   O514291   1.368   3.544  20.322
   31BMANN   C214292   1.303   3.584  20.545
   31BMANN   H214293   1.315   3.659  20.628
   31BMANN    N14294   1.162   3.565  20.519
   31BMANN   HN14295   1.136   3.559  20.423
   31BMANN    C14296   1.069   3.570  20.614
   31BMANN    O14297   1.097   3.593  20.731
   31BMANN   CT14298   0.927   3.547  20.570
   31BMANN  HT114299   0.928   3.466  20.493
   31BMANN  HT214300   0.886   3.640  20.526
   31BMANN  HT314301   0.864   3.517  20.656
   31BMANN   C314302   1.380   3.461  20.587
   31BMANN   H314303   1.487   3.489  20.604
   31BMANN   O314304   1.335   3.415  20.711
   31BMANN  HO314305   1.280   3.484  20.750
   31BMANN   C414306   1.378   3.359  20.478
   31BMANN   H414307   1.274   3.329  20.450
   31BMANN   O414308   1.450   3.241  20.513
   31BMANN  HO414309   1.531   3.262  20.562
   31BMANN   C614310   1.460   3.328  20.242
   31BMANN  H6114311   1.535   3.250  20.270
   31BMANN  H6214312   1.364   3.274  20.224
   31BMANN   O614313   1.501   3.392  20.122
   31BMANN  HO614314   1.590   3.425  20.122
   32BGLCN   C114315   1.273   3.974  20.598
   32BGLCN   H114316   1.244   3.870  20.577
   32BGLCN   C514317   1.074   3.985  20.729
   32BGLCN   H514318   1.053   3.880  20.695
   32BGLCN   O514319   1.154   4.047  20.627
   32BGLCN   C214320   1.359   3.973  20.722
   32BGLCN   H214321   1.372   4.081  20.751
   32BGLCN    N14322   1.489   3.915  20.693
   32BGLCN   HN14323   1.485   3.845  20.623
   32BGLCN    C14324   1.607   3.953  20.746
   32BGLCN    O14325   1.620   4.042  20.829
   32BGLCN   CT14326   1.724   3.876  20.692
   32BGLCN  HT114327   1.689   3.829  20.598
   32BGLCN  HT214328   1.761   3.798  20.761
   32BGLCN  HT314329   1.808   3.944  20.668
   32BGLCN   C314330   1.282   3.900  20.829
   32BGLCN   H314331   1.251   3.802  20.784
   32BGLCN   O314332   1.361   3.870  20.945
   32BGLCN   C414333   1.155   3.978  20.857
   32BGLCN   H414334   1.185   4.082  20.888
   32BGLCN   O414335   1.076   3.922  20.960
   32BGLCN  HO414336   1.105   3.960  21.045
   32BGLCN   C614337   0.939   4.055  20.742
   32BGLCN  H6114338   0.872   3.999  20.810
   32BGLCN  H6214339   0.954   4.156  20.786
   32BGLCN   O614340   0.870   4.065  20.617
   32BGLCN  HO614341   0.891   3.991  20.559
   33AGAL    C114342   1.331   3.745  21.004
   33AGAL    H114343   1.222   3.724  20.997
   33AGAL    C514344   1.545   3.649  20.957
   33AGAL    H514345   1.568   3.752  20.920
   33AGAL    O514346   1.403   3.637  20.941
   33AGAL    C214347   1.371   3.747  21.151
   33AGAL    H214348   1.353   3.644  21.190
   33AGAL    O214349   1.281   3.832  21.224
   33AGAL    C314350   1.522   3.769  21.166
   33AGAL    H314351   1.552   3.860  21.109
   33AGAL    O314352   1.566   3.798  21.299
   33AGAL   HO314353   1.532   3.733  21.361
   33AGAL    C414354   1.593   3.650  21.102
   33AGAL    H414355   1.703   3.668  21.102
   33AGAL    O414356   1.576   3.524  21.166
   33AGAL   HO414357   1.499   3.515  21.224
   33AGAL    C614358   1.621   3.557  20.862
   33AGAL   H6114359   1.593   3.587  20.759
   33AGAL   H6214360   1.731   3.570  20.873
   33AGAL    O614361   1.597   3.418  20.876
   33AGAL   HO614362   1.519   3.386  20.827
   34ARHM    C114363   1.228   3.775  21.342
   34ARHM    H114364   1.312   3.734  21.402
   34ARHM    C514365   1.019   3.703  21.245
   34ARHM    H514366   1.052   3.736  21.144
   34ARHM    O514367   1.135   3.666  21.321
   34ARHM    C214368   1.159   3.888  21.418
   34ARHM    H214369   1.229   3.975  21.421
   34ARHM    O214370   1.122   3.854  21.554
   34ARHM    C314371   1.036   3.932  21.340
   34ARHM    H314372   1.064   3.959  21.237
   34ARHM    O314373   0.972   4.045  21.400
   34ARHM   HO314374   0.938   4.100  21.328
   34ARHM    C414375   0.944   3.815  21.318
   34ARHM    H414376   0.912   3.773  21.416
   34ARHM    O414377   0.828   3.856  21.245
   34ARHM   HO414378   0.771   3.905  21.306
   34ARHM    C614379   0.927   3.582  21.224
   34ARHM   H6114380   0.887   3.536  21.316
   34ARHM   H6214381   0.838   3.625  21.176
   34ARHM   H6314382   0.966   3.503  21.155
   35ARHM    C114383   1.223   3.809  21.642
   35ARHM    H114384   1.317   3.865  21.623
   35ARHM    C514385   1.126   3.589  21.657
   35ARHM    H514386   1.045   3.618  21.588
   35ARHM    O514387   1.245   3.667  21.631
   35ARHM    C214388   1.181   3.836  21.787
   35ARHM    H214389   1.163   3.945  21.802
   35ARHM    O214390   1.284   3.793  21.878
   35ARHM    C314391   1.053   3.763  21.819
   35ARHM    H314392   0.973   3.795  21.748
   35ARHM    O314393   1.006   3.798  21.949
   35ARHM   HO314394   1.080   3.806  22.010
   35ARHM    C414395   1.077   3.613  21.801
   35ARHM    H414396   1.159   3.580  21.870
   35ARHM    O414397   0.961   3.536  21.832
   35ARHM   HO414398   0.885   3.581  21.793
   35ARHM    C614399   1.156   3.442  21.621
   35ARHM   H6114400   1.175   3.427  21.512
   35ARHM   H6214401   1.247   3.408  21.673
   35ARHM   H6314402   1.069   3.378  21.647
   36BMANN   C114403   1.398   3.875  21.883
   36BMANN   H114404   1.373   3.977  21.849
   36BMANN   C514405   1.618   3.918  21.808
   36BMANN   H514406   1.583   4.020  21.782
   36BMANN   O514407   1.506   3.828  21.802
   36BMANN   C214408   1.444   3.878  22.028
   36BMANN   H214409   1.358   3.922  22.084
   36BMANN    N14410   1.473   3.746  22.085
   36BMANN   HN14411   1.517   3.680  22.025
   36BMANN    C14412   1.457   3.722  22.217
   36BMANN    O14413   1.404   3.800  22.294
   36BMANN   CT14414   1.508   3.591  22.272
   36BMANN  HT114415   1.606   3.568  22.228
   36BMANN  HT214416   1.440   3.507  22.252
   36BMANN  HT314417   1.524   3.598  22.382
   36BMANN   C314418   1.560   3.974  22.038
   36BMANN   H314419   1.528   4.075  22.001
   36BMANN   O314420   1.608   3.990  22.171
   36BMANN  HO314421   1.590   4.079  22.202
   36BMANN   C414422   1.671   3.926  21.949
   36BMANN   H414423   1.708   3.827  21.981
   36BMANN   O414424   1.782   4.013  21.958
   36BMANN  HO414425   1.798   4.016  22.053
   36BMANN   C614426   1.725   3.882  21.708
   36BMANN  H6114427   1.682   3.878  21.605
   36BMANN  H6214428   1.800   3.964  21.706
   36BMANN   O614429   1.789   3.759  21.742
   36BMANN  HO614430   1.865   3.779  21.799
    1ECLIP HB6S14431   6.030   6.357  11.779
    1ECLIP  OB614432   6.182   6.410  11.908
    1ECLIP  CB614433   6.087   6.449  11.806
    1ECLIP HB6R14434   6.015   6.523  11.846
    1ECLIP  CB514435   6.148   6.508  11.680
    1ECLIP  OB514436   6.243   6.410  11.632
    1ECLIP  HB514437   6.199   6.602  11.710
    1ECLIP  CB114438   6.312   6.455  11.515
    1ECLIP  HB114439   6.364   6.552  11.533
    1ECLIP  OA614440   6.408   6.364  11.469
    1ECLIP  CA614441   6.378   6.226  11.494
    1ECLIP HA6R14442   6.270   6.208  11.513
    1ECLIP HA6S14443   6.439   6.192  11.581
    1ECLIP  CB414444   6.045   6.540  11.569
    1ECLIP  HB414445   5.986   6.449  11.541
    1ECLIP  OB414446   5.965   6.647  11.619
    1ECLIP   PB14447   5.809   6.621  11.666
    1ECLIP OPB414448   5.778   6.717  11.781
    1ECLIP OPB314449   5.803   6.473  11.705
    1ECLIP OPB214450   5.725   6.656  11.544
    1ECLIP  CB314451   6.118   6.586  11.445
    1ECLIP  OB314452   6.036   6.609  11.330
    1ECLIP  HB314453   6.181   6.676  11.470
    1ECLIP  C7114454   5.980   6.726  11.311
    1ECLIP  O7114455   6.019   6.832  11.362
    1ECLIP  C7214456   5.910   6.726  11.173
    1ECLIP H72R14457   5.982   6.695  11.095
    1ECLIP H72S14458   5.874   6.828  11.152
    1ECLIP  CB214459   6.215   6.478  11.403
    1ECLIP  HB214460   6.156   6.383  11.387
    1ECLIP  NB214461   6.286   6.517  11.281
    1ECLIP HNB214462   6.371   6.568  11.293
    1ECLIP  CA414463   6.542   6.189  11.318
    1ECLIP  HA414464   6.537   6.297  11.294
    1ECLIP  OA414465   6.640   6.166  11.419
    1ECLIP HOA414466   6.617   6.214  11.499
    1ECLIP  CA514467   6.413   6.146  11.372
    1ECLIP  HA514468   6.411   6.036  11.394
    1ECLIP  OA514469   6.318   6.176  11.271
    1ECLIP  CA114470   6.339   6.106  11.147
    1ECLIP  HA114471   6.268   6.155  11.078
    1ECLIP  OA114472   6.314   5.967  11.150
    1ECLIP OPA214473   6.209   5.842  11.336
    1ECLIP OPA314474   6.074   6.033  11.228
    1ECLIP OPA414475   6.119   5.819  11.098
    1ECLIP   PA14476   6.168   5.915  11.206
    1ECLIP  CA314477   6.566   6.118  11.189
    1ECLIP  HA314478   6.579   6.011  11.211
    1ECLIP  OA314479   6.678   6.191  11.158
    1ECLIP  C3114480   6.697   6.292  11.077
    1ECLIP  O3114481   6.722   6.282  10.958
    1ECLIP  C3214482   6.779   6.382  11.159
    1ECLIP H32R14483   6.872   6.404  11.100
    1ECLIP H32S14484   6.800   6.343  11.262
    1ECLIP  CA214485   6.468   6.144  11.085
    1ECLIP  HA214486   6.464   6.253  11.067
    1ECLIP  NA214487   6.501   6.073  10.959
    1ECLIP HNA214488   6.592   6.035  10.950
    1ECLIP  C7314489   5.792   6.625  11.169
    1ECLIP H73R14490   5.731   6.643  11.261
    1ECLIP  O7314491   5.850   6.495  11.168
    1ECLIP  C8114492   5.790   6.394  11.232
    1ECLIP  O8114493   5.684   6.399  11.292
    1ECLIP  C8214494   5.844   6.264  11.171
    1ECLIP H82R14495   5.796   6.179  11.223
    1ECLIP H82S14496   5.952   6.257  11.192
    1ECLIP  C8314497   5.823   6.252  11.017
    1ECLIP H83R14498   5.904   6.309  10.966
    1ECLIP H83S14499   5.726   6.298  10.990
    1ECLIP  C8414500   5.832   6.108  10.965
    1ECLIP H84R14501   5.743   6.048  10.996
    1ECLIP H84S14502   5.923   6.063  11.013
    1ECLIP  C8514503   5.853   6.101  10.813
    1ECLIP H85R14504   5.927   6.180  10.791
    1ECLIP H85S14505   5.759   6.128  10.760
    1ECLIP  C8614506   5.914   5.967  10.765
    1ECLIP H86R14507   5.836   5.894  10.735
    1ECLIP H86S14508   5.971   5.921  10.849
    1ECLIP  C8714509   6.018   5.988  10.652
    1ECLIP H87R14510   6.053   5.889  10.616
    1ECLIP H87S14511   6.107   6.039  10.694
    1ECLIP  C8814512   5.965   6.075  10.538
    1ECLIP H88R14513   5.965   6.181  10.571
    1ECLIP H88S14514   5.857   6.050  10.524
    1ECLIP  C8914515   6.045   6.062  10.408
    1ECLIP H89R14516   6.148   6.022  10.426
    1ECLIP H89S14517   6.060   6.162  10.362
    1ECLIP C81014518   5.969   5.977  10.306
    1ECLIPH810R14519   5.862   5.989  10.329
    1ECLIPH810S14520   5.997   5.870  10.323
    1ECLIP C81114521   5.996   6.016  10.160
    1ECLIPH811R14522   5.970   5.932  10.090
    1ECLIPH811S14523   6.105   6.037  10.151
    1ECLIP C81214524   5.922   6.141  10.110
    1ECLIPH812R14525   5.962   6.163  10.008
    1ECLIPH812S14526   5.946   6.226  10.177
    1ECLIP C81314527   5.770   6.132  10.100
    1ECLIPH813R14528   5.745   6.050  10.029
    1ECLIPH813S14529   5.725   6.107  10.199
    1ECLIP C81414530   5.707   6.261  10.049
    1ECLIPH814R14531   5.757   6.300   9.958
    1ECLIPH814S14532   5.712   6.339  10.128
    1ECLIPH814T14533   5.600   6.244  10.026
    1ECLIP  C7414534   5.701   6.629  11.042
    1ECLIP H74R14535   5.649   6.718  11.005
    1ECLIP H74S14536   5.617   6.560  11.067
    1ECLIP  C7514537   5.767   6.595  10.910
    1ECLIP H75R14538   5.686   6.546  10.852
    1ECLIP H75S14539   5.849   6.524  10.931
    1ECLIP  C7614540   5.821   6.716  10.831
    1ECLIP H76R14541   5.918   6.748  10.874
    1ECLIP H76S14542   5.753   6.805  10.836
    1ECLIP  C7714543   5.841   6.686  10.681
    1ECLIP H77R14544   5.742   6.667  10.635
    1ECLIP H77S14545   5.899   6.593  10.667
    1ECLIP  C7814546   5.921   6.800  10.616
    1ECLIP H78R14547   5.871   6.895  10.643
    1ECLIP H78S14548   6.020   6.800  10.668
    1ECLIP  C7914549   5.953   6.789  10.466
    1ECLIP H79R14550   6.054   6.743  10.453
    1ECLIP H79S14551   5.958   6.890  10.419
    1ECLIP C71014552   5.851   6.713  10.381
    1ECLIPH710R14553   5.835   6.611  10.423
    1ECLIPH710S14554   5.755   6.768  10.385
    1ECLIP C71114555   5.893   6.697  10.235
    1ECLIPH711R14556   5.907   6.798  10.190
    1ECLIPH711S14557   5.988   6.640  10.228
    1ECLIP C71214558   5.784   6.619  10.161
    1ECLIPH712R14559   5.690   6.678  10.163
    1ECLIPH712S14560   5.766   6.526  10.220
    1ECLIP C71314561   5.823   6.581  10.020
    1ECLIPH713R14562   5.914   6.516  10.022
    1ECLIPH713S14563   5.741   6.523   9.969
    1ECLIP C71414564   5.850   6.699   9.931
    1ECLIPH714R14565   5.759   6.762   9.916
    1ECLIPH714S14566   5.935   6.763   9.962
    1ECLIPH714T14567   5.877   6.651   9.836
    1ECLIP  C5114568   6.236   6.491  11.160
    1ECLIP  O5114569   6.145   6.412  11.144
    1ECLIP  C5214570   6.291   6.567  11.042
    1ECLIP H52R14571   6.239   6.665  11.030
    1ECLIP H52S14572   6.395   6.586  11.063
    1ECLIP  C5314573   6.280   6.484  10.912
    1ECLIP H53R14574   6.292   6.376  10.935
    1ECLIP  O5314575   6.379   6.534  10.821
    1ECLIP  C6114576   6.481   6.456  10.790
    1ECLIP  O6114577   6.494   6.340  10.822
    1ECLIP  C6214578   6.573   6.531  10.697
    1ECLIP H62R14579   6.642   6.589  10.761
    1ECLIP H62S14580   6.513   6.603  10.639
    1ECLIP  C6314581   6.652   6.431  10.610
    1ECLIP H63R14582   6.586   6.355  10.566
    1ECLIP H63S14583   6.729   6.383  10.675
    1ECLIP  C6414584   6.721   6.491  10.490
    1ECLIP H64R14585   6.774   6.418  10.434
    1ECLIP H64S14586   6.798   6.554  10.537
    1ECLIP  C6514587   6.620   6.546  10.390
    1ECLIP H65R14588   6.569   6.624  10.450
    1ECLIP H65S14589   6.547   6.471  10.360
    1ECLIP  C6614590   6.666   6.602  10.256
    1ECLIP H66R14591   6.753   6.661  10.266
    1ECLIP H66S14592   6.588   6.666  10.211
    1ECLIP  C6714593   6.742   6.524  10.157
    1ECLIP H67R14594   6.832   6.472  10.194
    1ECLIP H67S14595   6.767   6.597  10.081
    1ECLIP  C6814596   6.648   6.440  10.089
    1ECLIP H68R14597   6.558   6.493  10.049
    1ECLIP H68S14598   6.623   6.365  10.167
    1ECLIP  C6914599   6.708   6.384   9.971
    1ECLIP H69R14600   6.812   6.358   9.970
    1ECLIP H69S14601   6.705   6.460   9.892
    1ECLIP C61014602   6.634   6.254   9.960
    1ECLIPH610R14603   6.526   6.258   9.965
    1ECLIPH610S14604   6.679   6.173  10.023
    1ECLIP C61114605   6.644   6.217   9.826
    1ECLIPH611R14606   6.745   6.224   9.844
    1ECLIPH611S14607   6.616   6.112   9.798
    1ECLIP C61214608   6.625   6.321   9.725
    1ECLIPH612R14609   6.541   6.268   9.685
    1ECLIPH612S14610   6.655   6.425   9.723
    1ECLIPH612T14611   6.668   6.325   9.627
    1ECLIP  C5414612   6.139   6.510  10.853
    1ECLIP H54R14613   6.135   6.617  10.824
    1ECLIP H54S14614   6.065   6.493  10.934
    1ECLIP  C5514615   6.098   6.423  10.733
    1ECLIP H55R14616   5.988   6.428  10.719
    1ECLIP H55S14617   6.120   6.317  10.756
    1ECLIP  C5614618   6.166   6.475  10.605
    1ECLIP H56R14619   6.275   6.476  10.622
    1ECLIP H56S14620   6.134   6.580  10.587
    1ECLIP  C5714621   6.147   6.395  10.477
    1ECLIP H57R14622   6.040   6.378  10.454
    1ECLIP H57S14623   6.194   6.295  10.491
    1ECLIP  C5814624   6.219   6.467  10.360
    1ECLIP H58R14625   6.194   6.575  10.358
    1ECLIP H58S14626   6.328   6.463  10.382
    1ECLIP  C5914627   6.185   6.405  10.223
    1ECLIP H59R14628   6.074   6.407  10.208
    1ECLIP H59S14629   6.216   6.299  10.232
    1ECLIP C51014630   6.244   6.481  10.102
    1ECLIPH510R14631   6.351   6.506  10.119
    1ECLIPH510S14632   6.189   6.577  10.089
    1ECLIP C51114633   6.235   6.409   9.966
    1ECLIPH511R14634   6.315   6.332   9.961
    1ECLIPH511S14635   6.139   6.354   9.958
    1ECLIP C51214636   6.249   6.508   9.847
    1ECLIPH512R14637   6.200   6.458   9.761
    1ECLIPH512S14638   6.187   6.598   9.856
    1ECLIP C51314639   6.396   6.553   9.815
    1ECLIPH513R14640   6.460   6.463   9.814
    1ECLIPH513S14641   6.447   6.603   9.898
    1ECLIP C51414642   6.414   6.639   9.685
    1ECLIPH514R14643   6.342   6.720   9.682
    1ECLIPH514S14644   6.519   6.664   9.674
    1ECLIPH514T14645   6.401   6.599   9.583
    1ECLIP  C3314646   6.725   6.510  11.189
    1ECLIP H33R14647   6.808   6.551  11.252
    1ECLIP  O3314648   6.628   6.508  11.287
    1ECLIP HO3314649   6.677   6.511  11.371
    1ECLIP  C3414650   6.672   6.578  11.059
    1ECLIP H34R14651   6.602   6.511  11.009
    1ECLIP H34S14652   6.755   6.588  10.982
    1ECLIP  C3514653   6.594   6.708  11.084
    1ECLIP H35R14654   6.647   6.800  11.101
    1ECLIP H35S14655   6.542   6.714  11.178
    1ECLIP  C3614656   6.519   6.763  10.971
    1ECLIP H36R14657   6.512   6.695  10.889
    1ECLIP H36S14658   6.596   6.820  10.936
    1ECLIP  C3714659   6.440   6.890  10.991
    1ECLIP H37R14660   6.499   6.986  10.995
    1ECLIP H37S14661   6.404   6.874  11.094
    1ECLIP  C3814662   6.334   6.902  10.882
    1ECLIP H38R14663   6.276   6.808  10.883
    1ECLIP H38S14664   6.276   6.991  10.909
    1ECLIP  C3914665   6.382   6.915  10.737
    1ECLIP H39R14666   6.443   6.823  10.720
    1ECLIP H39S14667   6.435   7.013  10.725
    1ECLIP C31014668   6.288   6.917  10.618
    1ECLIPH310R14669   6.241   7.017  10.630
    1ECLIPH310S14670   6.223   6.829  10.631
    1ECLIP C31114671   6.350   6.895  10.478
    1ECLIPH311R14672   6.428   6.970  10.455
    1ECLIPH311S14673   6.391   6.790  10.467
    1ECLIP C31214674   6.279   6.943  10.357
    1ECLIPH312R14675   6.174   6.927  10.379
    1ECLIPH312S14676   6.304   7.053  10.346
    1ECLIP C31314677   6.330   6.869  10.235
    1ECLIPH313R14678   6.425   6.918  10.214
    1ECLIPH313S14679   6.350   6.760  10.253
    1ECLIP C31414680   6.243   6.892  10.115
    1ECLIPH314R14681   6.240   7.002  10.095
    1ECLIPH314S14682   6.283   6.840  10.025
    1ECLIPH314T14683   6.142   6.855  10.138
    1ECLIP  C1114684   6.412   6.047  10.861
    1ECLIP  O1114685   6.305   6.106  10.845
    1ECLIP  C1214686   6.452   5.935  10.769
    1ECLIP H12R14687   6.391   5.846  10.791
    1ECLIP H12S14688   6.559   5.912  10.788
    1ECLIP  C1314689   6.437   5.973  10.622
    1ECLIP H13R14690   6.341   6.027  10.601
    1ECLIP  O1314691   6.435   5.851  10.548
    1ECLIP HO1314692   6.387   5.854  10.465
    1ECLIP  C1414693   6.556   6.061  10.580
    1ECLIP H14R14694   6.648   6.028  10.632
    1ECLIP H14S14695   6.531   6.164  10.614
    1ECLIP  C1514696   6.585   6.068  10.431
    1ECLIP H15R14697   6.602   5.965  10.394
    1ECLIP H15S14698   6.681   6.122  10.419
    1ECLIP  C1614699   6.473   6.138  10.353
    1ECLIP H16R14700   6.484   6.248  10.363
    1ECLIP H16S14701   6.376   6.114  10.400
    1ECLIP  C1714702   6.478   6.099  10.205
    1ECLIP H17R14703   6.585   6.106  10.177
    1ECLIP H17S14704   6.420   6.169  10.141
    1ECLIP  C1814705   6.434   5.955  10.176
    1ECLIP H18R14706   6.488   5.889  10.246
    1ECLIP H18S14707   6.327   5.950  10.204
    1ECLIP  C1914708   6.454   5.914  10.028
    1ECLIP H19R14709   6.451   5.802  10.021
    1ECLIP H19S14710   6.555   5.946   9.989
    1ECLIP C11014711   6.360   5.994   9.935
    1ECLIPH110R14712   6.247   5.984   9.938
    1ECLIPH110S14713   6.394   6.097   9.928
    1ECLIP C11114714   6.372   5.948   9.796
    1ECLIPH111R14715   6.469   5.921   9.754
    1ECLIPH111S14716   6.345   5.854   9.845
    1ECLIP C11214717   6.272   6.021   9.701
    1ECLIPH112R14718   6.164   6.017   9.732
    1ECLIPH112S14719   6.291   6.128   9.723
    1ECLIP C11314720   6.299   5.984   9.551
    1ECLIPH113R14721   6.405   6.005   9.530
    1ECLIPH113S14722   6.301   5.882   9.514
    1ECLIP C11414723   6.199   6.023   9.446
    1ECLIPH114R14724   6.102   5.998   9.489
    1ECLIPH114S14725   6.194   6.128   9.418
    1ECLIPH114T14726   6.217   5.965   9.352
    2AKDO    C114727   6.229   6.634  11.979
    2AKDO   O1114728   6.147   6.729  11.980
    2AKDO   O1214729   6.350   6.639  11.943
    2AKDO    C214730   6.178   6.493  12.023
    2AKDO    C614731   5.990   6.377  12.122
    2AKDO    H614732   5.994   6.312  12.031
    2AKDO    O614733   6.045   6.504  12.082
    2AKDO    C314734   6.268   6.428  12.129
    2AKDO   H3114735   6.282   6.497  12.215
    2AKDO   H3214736   6.367   6.410  12.082
    2AKDO    C414737   6.213   6.296  12.173
    2AKDO    H414738   6.201   6.230  12.085
    2AKDO    O414739   6.296   6.236  12.273
    2AKDO    C514740   6.076   6.311  12.233
    2AKDO    H514741   6.034   6.208  12.245
    2AKDO    O514742   6.090   6.378  12.362
    2AKDO    C714743   5.841   6.391  12.154
    2AKDO    H714744   5.831   6.454  12.244
    2AKDO    O714745   5.780   6.262  12.177
    2AKDO   HO714746   5.759   6.235  12.087
    2AKDO    C814747   5.769   6.459  12.040
    2AKDO   H8114748   5.819   6.558  12.023
    2AKDO   H8214749   5.782   6.399  11.946
    2AKDO    O814750   5.629   6.477  12.070
    2AKDO   HO814751   5.605   6.561  12.029
    3AKDO    C114752   6.383   6.071  12.116
    3AKDO   O1114753   6.425   6.111  12.003
    3AKDO   O1214754   6.312   5.970  12.140
    3AKDO    C214755   6.411   6.166  12.236
    3AKDO    C614756   6.544   6.351  12.312
    3AKDO    H614757   6.456   6.416  12.329
    3AKDO    O614758   6.522   6.254  12.207
    3AKDO    C314759   6.441   6.095  12.369
    3AKDO   H3114760   6.532   6.040  12.350
    3AKDO   H3214761   6.364   6.020  12.395
    3AKDO    C414762   6.461   6.194  12.480
    3AKDO    H414763   6.373   6.260  12.487
    3AKDO    O414764   6.484   6.130  12.604
    3AKDO   HO414765   6.426   6.169  12.672
    3AKDO    C514766   6.570   6.284  12.442
    3AKDO    H514767   6.600   6.351  12.526
    3AKDO    O514768   6.682   6.217  12.421
    3AKDO   HO514769   6.673   6.141  12.361
    3AKDO    C714770   6.658   6.437  12.268
    3AKDO    H714771   6.752   6.378  12.250
    3AKDO    O714772   6.678   6.529  12.373
    3AKDO   HO714773   6.767   6.563  12.358
    3AKDO    C814774   6.617   6.512  12.146
    3AKDO   H8114775   6.587   6.441  12.067
    3AKDO   H8214776   6.532   6.580  12.167
    3AKDO    O814777   6.728   6.586  12.097
    3AKDO   HO814778   6.783   6.521  12.053
    4AHEP    C114779   5.994   6.345  12.461
    4AHEP    H114780   5.903   6.396  12.426
    4AHEP    C514781   6.059   6.124  12.536
    4AHEP    H514782   6.157   6.144  12.487
    4AHEP    O514783   5.960   6.205  12.468
    4AHEP    C214784   6.011   6.394  12.606
    4AHEP    H214785   6.046   6.499  12.603
    4AHEP    O214786   5.883   6.399  12.671
    4AHEP   HO214787   5.885   6.471  12.732
    4AHEP    C314788   6.114   6.315  12.686
    4AHEP    H314789   6.217   6.328  12.646
    4AHEP    O314790   6.112   6.357  12.825
    4AHEP    C414791   6.073   6.169  12.682
    4AHEP    H414792   5.975   6.152  12.733
    4AHEP    O414793   6.179   6.095  12.741
    4AHEP    P414794   6.159   6.011  12.883
    4AHEP  OP4214795   6.297   6.015  12.948
    4AHEP  OP4314796   6.122   5.870  12.839
    4AHEP  OP4414797   6.053   6.087  12.962
    4AHEP    C614798   6.021   5.974  12.516
    4AHEP    H614799   6.113   5.916  12.544
    4AHEP    O614800   5.911   5.928  12.598
    4AHEP   HO614801   5.947   5.866  12.664
    4AHEP    C714802   5.986   5.937  12.370
    4AHEP   H7114803   5.989   5.826  12.358
    4AHEP   H7214804   6.062   5.982  12.303
    4AHEP    O714805   5.856   5.976  12.320
    4AHEP   HO714806   5.796   5.931  12.381
    5AHEP    C114807   6.231   6.407  12.883
    5AHEP    H114808   6.321   6.360  12.835
    5AHEP    C514809   6.127   6.616  12.932
    5AHEP    H514810   6.032   6.569  12.896
    5AHEP    O514811   6.235   6.549  12.864
    5AHEP    C214812   6.237   6.376  13.034
    5AHEP    H214813   6.226   6.265  13.045
    5AHEP    O214814   6.365   6.411  13.093
    5AHEP   HO214815   6.418   6.330  13.094
    5AHEP    C314816   6.123   6.443  13.109
    5AHEP    H314817   6.026   6.404  13.068
    5AHEP    O314818   6.124   6.423  13.253
    5AHEP    C414819   6.132   6.592  13.082
    5AHEP    H414820   6.229   6.631  13.119
    5AHEP    O414821   6.018   6.658  13.140
    5AHEP    P414822   6.047   6.767  13.266
    5AHEP  OP4214823   5.907   6.791  13.326
    5AHEP  OP4314824   6.112   6.894  13.206
    5AHEP  OP4414825   6.147   6.696  13.361
    5AHEP    C614826   6.122   6.764  12.892
    5AHEP    H614827   6.032   6.809  12.940
    5AHEP    O614828   6.238   6.838  12.936
    5AHEP   HO614829   6.317   6.813  12.886
    5AHEP    C714830   6.102   6.781  12.743
    5AHEP   H7114831   6.038   6.870  12.728
    5AHEP   H7214832   6.048   6.695  12.698
    5AHEP    O714833   6.225   6.810  12.678
    6AHEP    C114834   6.280   6.699  12.615
    6AHEP    H114835   6.228   6.605  12.640
    6AHEP    C514836   6.338   6.835  12.432
    6AHEP    H514837   6.296   6.922  12.488
    6AHEP    O514838   6.269   6.717  12.474
    6AHEP    C214839   6.421   6.684  12.660
    6AHEP    H214840   6.424   6.673  12.771
    6AHEP    O214841   6.475   6.562  12.610
    6AHEP   HO214842   6.498   6.507  12.685
    6AHEP    C314843   6.496   6.808  12.624
    6AHEP    H314844   6.457   6.898  12.677
    6AHEP    O314845   6.625   6.786  12.678
    6AHEP   HO314846   6.662   6.859  12.730
    6AHEP    C414847   6.483   6.828  12.473
    6AHEP    H414848   6.536   6.746  12.418
    6AHEP    O414849   6.529   6.953  12.428
    6AHEP   HO414850   6.488   7.029  12.464
    6AHEP    C614851   6.315   6.872  12.286
    6AHEP    H614852   6.359   6.973  12.267
    6AHEP    O614853   6.385   6.785  12.197
    6AHEP   HO614854   6.324   6.744  12.134
    6AHEP    C714855   6.168   6.890  12.254
    6AHEP   H7114856   6.157   6.929  12.150
    6AHEP   H7214857   6.126   6.965  12.324
    6AHEP    O714858   6.090   6.772  12.266
    6AHEP   HO714859   6.074   6.755  12.359
    7AGLC    C114860   6.050   6.314  13.302
    7AGLC    H114861   5.950   6.308  13.252
    7AGLC    C514862   6.246   6.185  13.346
    7AGLC    H514863   6.308   6.273  13.318
    7AGLC    O514864   6.119   6.192  13.280
    7AGLC    C214865   6.023   6.318  13.453
    7AGLC    H214866   5.977   6.220  13.480
    7AGLC    O214867   5.929   6.419  13.490
    7AGLC   HO214868   5.979   6.504  13.493
    7AGLC    C314869   6.150   6.321  13.533
    7AGLC    H314870   6.210   6.407  13.497
    7AGLC    O314871   6.127   6.337  13.676
    7AGLC    C414872   6.224   6.192  13.497
    7AGLC    H414873   6.163   6.103  13.529
    7AGLC    O414874   6.352   6.193  13.559
    7AGLC   HO414875   6.366   6.107  13.601
    7AGLC    C614876   6.319   6.065  13.288
    7AGLC   H6114877   6.327   6.080  13.177
    7AGLC   H6214878   6.423   6.055  13.325
    7AGLC    O614879   6.248   5.943  13.311
    7AGLC   HO614880   6.286   5.898  13.387
    8AGLC    C114881   6.186   6.455  13.729
    8AGLC    H114882   6.289   6.467  13.688
    8AGLC    C514883   5.984   6.589  13.757
    8AGLC    H514884   5.925   6.500  13.725
    8AGLC    O514885   6.114   6.576  13.694
    8AGLC    C214886   6.203   6.452  13.880
    8AGLC    H214887   6.258   6.544  13.907
    8AGLC    O214888   6.279   6.342  13.932
    8AGLC    C314889   6.070   6.454  13.949
    8AGLC    H314890   6.013   6.367  13.909
    8AGLC    O314891   6.094   6.435  14.091
    8AGLC    C414892   6.001   6.583  13.908
    8AGLC    H414893   6.065   6.668  13.939
    8AGLC    O414894   5.875   6.598  13.973
    8AGLC   HO414895   5.831   6.513  13.981
    8AGLC    C614896   5.898   6.709  13.710
    8AGLC   H6114897   5.903   6.721  13.599
    8AGLC   H6214898   5.792   6.692  13.737
    8AGLC    O614899   5.924   6.836  13.770
    8AGLC   HO614900   5.903   6.836  13.864
    9AGAL    C114901   6.408   6.323  13.881
    9AGAL    H114902   6.409   6.326  13.770
    9AGAL    C514903   6.521   6.418  14.064
    9AGAL    H514904   6.421   6.420  14.111
    9AGAL    O514905   6.501   6.424  13.922
    9AGAL    C214906   6.455   6.185  13.922
    9AGAL    H214907   6.555   6.178  13.877
    9AGAL    O214908   6.368   6.089  13.856
    9AGAL    C314909   6.478   6.176  14.071
    9AGAL    H314910   6.383   6.195  14.126
    9AGAL    O314911   6.518   6.045  14.111
    9AGAL   HO314912   6.466   5.986  14.056
    9AGAL    C414913   6.580   6.284  14.106
    9AGAL    H414914   6.599   6.284  14.215
    9AGAL    O414915   6.705   6.265  14.040
    9AGAL   HO414916   6.778   6.297  14.096
    9AGAL    C614917   6.590   6.540  14.120
    9AGAL   H6114918   6.537   6.634  14.096
    9AGAL   H6214919   6.596   6.533  14.230
    9AGAL    O614920   6.722   6.549  14.076
    9AGAL   HO614921   6.732   6.619  14.011
   10AGAL    C114922   6.319   5.967  13.911
   10AGAL    H114923   6.404   5.896  13.919
   10AGAL    C514924   6.135   6.057  14.041
   10AGAL    H514925   6.167   6.155  14.001
   10AGAL    O514926   6.256   5.976  14.041
   10AGAL    C214927   6.219   5.909  13.811
   10AGAL    H214928   6.190   5.809  13.849
   10AGAL    O214929   6.278   5.880  13.683
   10AGAL   HO214930   6.246   5.791  13.660
   10AGAL    C314931   6.095   5.999  13.807
   10AGAL    H314932   6.129   6.102  13.781
   10AGAL    O314933   5.997   5.962  13.710
   10AGAL   HO314934   6.001   6.023  13.635
   10AGAL    C414935   6.032   6.002  13.945
   10AGAL    H414936   5.945   6.072  13.944
   10AGAL    O414937   5.986   5.873  13.986
   10AGAL   HO414938   6.065   5.818  13.993
   10AGAL    C614939   6.075   6.090  14.179
   10AGAL   H6114940   6.155   6.124  14.247
   10AGAL   H6214941   6.006   6.177  14.164
   10AGAL    O614942   6.000   5.987  14.246
   10AGAL   HO614943   6.049   5.967  14.327
   11BGLC    C114944   6.100   6.542  14.184
   11BGLC    H114945   5.999   6.585  14.198
   11BGLC    C514946   6.219   6.746  14.248
   11BGLC    H514947   6.124   6.800  14.273
   11BGLC    O514948   6.200   6.641  14.149
   11BGLC    C214949   6.144   6.477  14.314
   11BGLC    H214950   6.242   6.428  14.298
   11BGLC    O214951   6.052   6.375  14.351
   11BGLC   HO214952   6.099   6.294  14.370
   11BGLC    C314953   6.165   6.576  14.427
   11BGLC    H314954   6.069   6.624  14.454
   11BGLC    O314955   6.223   6.509  14.541
   11BGLC    C414956   6.268   6.677  14.377
   11BGLC    H414957   6.362   6.622  14.354
   11BGLC    O414958   6.302   6.768  14.480
   11BGLC   HO414959   6.351   6.720  14.549
   11BGLC    C614960   6.313   6.852  14.188
   11BGLC   H6114961   6.361   6.916  14.265
   11BGLC   H6214962   6.393   6.803  14.129
   11BGLC    O614963   6.247   6.942  14.098
   11BGLC   HO614964   6.241   7.029  14.138
   12BGLCN   C114965   6.161   6.518  14.667
   12BGLCN   H114966   6.077   6.445  14.673
   12BGLCN   C514967   6.048   6.656  14.824
   12BGLCN   H514968   5.964   6.582  14.831
   12BGLCN   O514969   6.111   6.648  14.695
   12BGLCN   C214970   6.267   6.485  14.771
   12BGLCN   H214971   6.342   6.569  14.766
   12BGLCN    N14972   6.326   6.357  14.742
   12BGLCN   HN14973   6.261   6.283  14.730
   12BGLCN    C14974   6.458   6.342  14.727
   12BGLCN    O14975   6.535   6.436  14.744
   12BGLCN   CT14976   6.509   6.205  14.690
   12BGLCN  HT114977   6.562   6.161  14.777
   12BGLCN  HT214978   6.582   6.212  14.608
   12BGLCN  HT314979   6.423   6.142  14.660
   12BGLCN   C314980   6.211   6.487  14.912
   12BGLCN   H314981   6.131   6.409  14.916
   12BGLCN   O314982   6.310   6.452  15.014
   12BGLCN   C414983   6.152   6.626  14.932
   12BGLCN   H414984   6.232   6.703  14.924
   12BGLCN   O414985   6.095   6.643  15.060
   12BGLCN  HO414986   6.019   6.584  15.069
   12BGLCN   C614987   5.987   6.794  14.831
   12BGLCN  H6114988   5.936   6.813  14.928
   12BGLCN  H6214989   6.068   6.869  14.817
   12BGLCN   O614990   5.891   6.814  14.727
   12BGLCN  HO614991   5.803   6.790  14.752
   13AGAL    C114992   6.263   6.369  15.120
   13AGAL    H114993   6.162   6.403  15.151
   13AGAL    C514994   6.396   6.176  15.064
   13AGAL    H514995   6.443   6.246  14.991
   13AGAL    O514996   6.262   6.229  15.084
   13AGAL    C214997   6.349   6.376  15.247
   13AGAL    H214998   6.305   6.300  15.316
   13AGAL    O214999   6.338   6.504  15.310
   13AGAL    C315000   6.491   6.326  15.226
   13AGAL    H315001   6.535   6.380  15.138
   13AGAL    O315002   6.577   6.349  15.336
   13AGAL   HO315003   6.664   6.379  15.309
   13AGAL    C415004   6.484   6.180  15.189
   13AGAL    H415005   6.587   6.146  15.160
   13AGAL    O415006   6.439   6.096  15.297
   13AGAL   HO415007   6.361   6.133  15.339
   13AGAL    C615008   6.403   6.043  14.991
   13AGAL   H6115009   6.346   6.050  14.896
   13AGAL   H6215010   6.510   6.025  14.968
   13AGAL    O615011   6.359   5.930  15.065
   13AGAL   HO615012   6.423   5.913  15.135
   14ARHM    C115013   6.273   6.507  15.436
   14ARHM    H115014   6.199   6.424  15.441
   14ARHM    C515015   6.286   6.743  15.454
   14ARHM    H515016   6.341   6.743  15.357
   14ARHM    O515017   6.200   6.628  15.455
   14ARHM    C215018   6.375   6.490  15.548
   14ARHM    H215019   6.431   6.396  15.529
   14ARHM    O215020   6.323   6.489  15.682
   14ARHM    C315021   6.468   6.607  15.542
   14ARHM    H315022   6.508   6.617  15.438
   14ARHM    O315023   6.583   6.591  15.625
   14ARHM   HO315024   6.560   6.596  15.717
   14ARHM    C415025   6.388   6.734  15.568
   14ARHM    H415026   6.331   6.726  15.663
   14ARHM    O415027   6.471   6.849  15.576
   14ARHM   HO415028   6.479   6.884  15.665
   14ARHM    C615029   6.198   6.868  15.462
   14ARHM   H6115030   6.110   6.861  15.395
   14ARHM   H6215031   6.165   6.881  15.567
   14ARHM   H6315032   6.253   6.960  15.432
   15ARHM    C115033   6.219   6.399  15.711
   15ARHM    H115034   6.224   6.313  15.640
   15ARHM    C515035   6.063   6.563  15.800
   15ARHM    H515036   6.128   6.651  15.779
   15ARHM    O515037   6.087   6.459  15.704
   15ARHM    C215038   6.243   6.345  15.850
   15ARHM    H215039   6.348   6.307  15.857
   15ARHM    O215040   6.150   6.236  15.866
   15ARHM    C315041   6.227   6.456  15.950
   15ARHM    H315042   6.295   6.540  15.920
   15ARHM    O315043   6.270   6.407  16.076
   15ARHM    C415044   6.085   6.508  15.939
   15ARHM    H415045   6.015   6.422  15.953
   15ARHM    O415046   6.052   6.607  16.036
   15ARHM   HO415047   5.955   6.617  16.035
   15ARHM    C615048   5.917   6.611  15.783
   15ARHM   H6115049   5.897   6.703  15.840
   15ARHM   H6215050   5.899   6.630  15.675
   15ARHM   H6315051   5.845   6.535  15.819
   16BMANN   C115052   6.148   6.162  15.987
   16BMANN   H115053   6.107   6.227  16.068
   16BMANN   C515054   6.268   6.044  16.156
   16BMANN   H515055   6.223   6.114  16.231
   16BMANN   O515056   6.276   6.111  16.027
   16BMANN   C215057   6.052   6.044  15.967
   16BMANN   H215058   5.953   6.088  15.940
   16BMANN    N15059   6.091   5.951  15.862
   16BMANN   HN15060   6.139   5.870  15.893
   16BMANN    C15061   6.050   5.956  15.735
   16BMANN    O15062   5.976   6.045  15.693
   16BMANN   CT15063   6.104   5.849  15.643
   16BMANN  HT115064   6.027   5.772  15.622
   16BMANN  HT215065   6.192   5.798  15.689
   16BMANN  HT315066   6.137   5.894  15.548
   16BMANN   C315067   6.041   5.972  16.101
   16BMANN   H315068   6.006   6.045  16.177
   16BMANN   O315069   5.946   5.867  16.099
   16BMANN  HO315070   5.878   5.882  16.166
   16BMANN   C415071   6.177   5.923  16.148
   16BMANN   H415072   6.218   5.850  16.075
   16BMANN   O415073   6.171   5.858  16.275
   16BMANN  HO415074   6.245   5.796  16.279
   16BMANN   C615075   6.404   6.007  16.212
   16BMANN  H6115076   6.397   6.007  16.324
   16BMANN  H6215077   6.430   5.904  16.179
   16BMANN   O615078   6.510   6.093  16.172
   16BMANN  HO615079   6.575   6.042  16.122
   17BGLCN   C115080   6.345   6.498  16.151
   17BGLCN   H115081   6.304   6.600  16.135
   17BGLCN   C515082   6.563   6.588  16.193
   17BGLCN   H515083   6.531   6.693  16.172
   17BGLCN   O515084   6.482   6.498  16.115
   17BGLCN   C215085   6.328   6.452  16.295
   17BGLCN   H215086   6.375   6.352  16.312
   17BGLCN    N15087   6.187   6.437  16.325
   17BGLCN   HN15088   6.126   6.496  16.274
   17BGLCN    C15089   6.133   6.359  16.419
   17BGLCN    O15090   6.193   6.276  16.486
   17BGLCN   CT15091   5.985   6.383  16.440
   17BGLCN  HT115092   5.923   6.307  16.388
   17BGLCN  HT215093   5.960   6.485  16.404
   17BGLCN  HT315094   5.963   6.379  16.548
   17BGLCN   C315095   6.400   6.555  16.380
   17BGLCN   H315096   6.359   6.654  16.346
   17BGLCN   O315097   6.365   6.537  16.519
   17BGLCN   C415098   6.548   6.551  16.341
   17BGLCN   H415099   6.586   6.447  16.351
   17BGLCN   O415100   6.626   6.636  16.424
   17BGLCN  HO415101   6.721   6.629  16.408
   17BGLCN   C615102   6.706   6.566  16.147
   17BGLCN  H6115103   6.764   6.654  16.148
   17BGLCN  H6215104   6.767   6.506  16.218
   17BGLCN   O615105   6.722   6.525  16.013
   17BGLCN  HO615106   6.684   6.588  15.952
   18AGAL    C115107   6.355   6.654  16.599
   18AGAL    H115108   6.457   6.694  16.617
   18AGAL    C515109   6.140   6.721  16.522
   18AGAL    H515110   6.136   6.621  16.476
   18AGAL    O515111   6.279   6.756  16.535
   18AGAL    C215112   6.288   6.631  16.733
   18AGAL    H215113   6.286   6.735  16.776
   18AGAL    O215114   6.368   6.554  16.823
   18AGAL    C315115   6.142   6.588  16.721
   18AGAL    H315116   6.138   6.500  16.653
   18AGAL    O315117   6.080   6.547  16.843
   18AGAL   HO315118   6.032   6.464  16.832
   18AGAL    C415119   6.066   6.701  16.654
   18AGAL    H415120   5.962   6.671  16.630
   18AGAL    O415121   6.062   6.817  16.736
   18AGAL   HO415122   5.997   6.802  16.806
   18AGAL    C615123   6.076   6.805  16.414
   18AGAL   H6115124   6.133   6.783  16.320
   18AGAL   H6215125   5.971   6.772  16.400
   18AGAL    O615126   6.079   6.945  16.441
   18AGAL   HO615127   6.153   6.965  16.501
   19ARHM    C115128   6.363   6.609  16.953
   19ARHM    H115129   6.267   6.662  16.971
   19ARHM    C515130   6.596   6.657  16.961
   19ARHM    H515131   6.601   6.615  16.858
   19ARHM    O515132   6.464   6.708  16.978
   19ARHM    C215133   6.382   6.495  17.048
   19ARHM    H215134   6.311   6.413  17.023
   19ARHM    O215135   6.356   6.537  17.182
   19ARHM    C315136   6.521   6.439  17.032
   19ARHM    H315137   6.536   6.407  16.927
   19ARHM    O315138   6.535   6.324  17.115
   19ARHM   HO315139   6.512   6.352  17.204
   19ARHM    C415140   6.623   6.546  17.061
   19ARHM    H415141   6.607   6.583  17.165
   19ARHM    O415142   6.758   6.501  17.051
   19ARHM   HO415143   6.775   6.469  16.962
   19ARHM    C615144   6.697   6.773  16.964
   19ARHM   H6115145   6.666   6.843  16.884
   19ARHM   H6215146   6.700   6.828  17.060
   19ARHM   H6315147   6.800   6.737  16.943
   20ARHM    C115148   6.219   6.558  17.206
   20ARHM    H115149   6.157   6.518  17.123
   20ARHM    C515150   6.243   6.758  17.332
   20ARHM    H515151   6.353   6.748  17.318
   20ARHM    O515152   6.179   6.696  17.221
   20ARHM    C215153   6.186   6.482  17.331
   20ARHM    H215154   6.227   6.378  17.321
   20ARHM    O215155   6.044   6.479  17.352
   20ARHM    C315156   6.252   6.543  17.449
   20ARHM    H315157   6.363   6.544  17.433
   20ARHM    O315158   6.220   6.463  17.563
   20ARHM    C415159   6.204   6.685  17.460
   20ARHM    H415160   6.093   6.693  17.469
   20ARHM    O415161   6.261   6.746  17.575
   20ARHM   HO415162   6.271   6.838  17.549
   20ARHM    C615163   6.209   6.909  17.332
   20ARHM   H6115164   6.101   6.928  17.345
   20ARHM   H6215165   6.266   6.959  17.413
   20ARHM   H6315166   6.240   6.954  17.235
   21BMANN   C115167   5.987   6.376  17.277
   21BMANN   H115168   6.064   6.333  17.209
   21BMANN   C515169   5.844   6.314  17.101
   21BMANN   H515170   5.931   6.271  17.045
   21BMANN   O515171   5.886   6.423  17.187
   21BMANN   C215172   5.935   6.268  17.371
   21BMANN   H215173   6.025   6.234  17.429
   21BMANN    N15174   5.832   6.314  17.465
   21BMANN   HN15175   5.765   6.376  17.428
   21BMANN    C15176   5.823   6.275  17.594
   21BMANN    O15177   5.889   6.181  17.637
   21BMANN   CT15178   5.726   6.348  17.684
   21BMANN  HT115179   5.622   6.314  17.666
   21BMANN  HT215180   5.735   6.457  17.668
   21BMANN  HT315181   5.751   6.327  17.790
   21BMANN   C315182   5.890   6.155  17.282
   21BMANN   H315183   5.981   6.121  17.229
   21BMANN   O315184   5.841   6.045  17.355
   21BMANN  HO315185   5.777   6.074  17.420
   21BMANN   C415186   5.785   6.203  17.184
   21BMANN   H415187   5.695   6.241  17.238
   21BMANN   O415188   5.739   6.101  17.098
   21BMANN  HO415189   5.647   6.080  17.111
   21BMANN   C615190   5.746   6.362  16.997
   21BMANN  H6115191   5.736   6.286  16.917
   21BMANN  H6215192   5.646   6.372  17.044
   21BMANN   O615193   5.785   6.487  16.939
   21BMANN  HO615194   5.783   6.552  17.010
   22BGLCN   C115195   6.321   6.452  17.660
   22BGLCN   H115196   6.390   6.539  17.660
   22BGLCN   C515197   6.494   6.316  17.747
   22BGLCN   H515198   6.559   6.407  17.748
   22BGLCN   O515199   6.396   6.332  17.643
   22BGLCN   C215200   6.247   6.444  17.791
   22BGLCN   H215201   6.180   6.354  17.786
   22BGLCN    N15202   6.167   6.563  17.809
   22BGLCN   HN15203   6.206   6.648  17.776
   22BGLCN    C15204   6.050   6.567  17.872
   22BGLCN    O15205   5.994   6.471  17.924
   22BGLCN   CT15206   5.987   6.704  17.876
   22BGLCN  HT115207   5.916   6.708  17.791
   22BGLCN  HT215208   6.065   6.781  17.865
   22BGLCN  HT315209   5.934   6.720  17.972
   22BGLCN   C315210   6.345   6.429  17.905
   22BGLCN   H315211   6.417   6.514  17.902
   22BGLCN   O315212   6.269   6.435  18.026
   22BGLCN   C415213   6.425   6.303  17.882
   22BGLCN   H415214   6.355   6.216  17.878
   22BGLCN   O415215   6.517   6.278  17.988
   22BGLCN  HO415216   6.524   6.184  18.006
   22BGLCN   C615217   6.577   6.197  17.715
   22BGLCN  H6115218   6.634   6.165  17.805
   22BGLCN  H6215219   6.516   6.111  17.684
   22BGLCN   O615220   6.672   6.232  17.615
   22BGLCN  HO615221   6.635   6.259  17.531
   23AGAL    C115222   6.335   6.466  18.146
   23AGAL    H115223   6.392   6.377  18.181
   23AGAL    C515224   6.360   6.701  18.108
   23AGAL    H515225   6.296   6.689  18.018
   23AGAL    O515226   6.426   6.576  18.135
   23AGAL    C215227   6.234   6.495  18.255
   23AGAL    H215228   6.293   6.515  18.347
   23AGAL    O215229   6.148   6.382  18.278
   23AGAL    C315230   6.161   6.626  18.224
   23AGAL    H315231   6.117   6.619  18.122
   23AGAL    O315232   6.053   6.652  18.312
   23AGAL   HO315233   6.077   6.630  18.402
   23AGAL    C415234   6.264   6.739  18.221
   23AGAL    H415235   6.216   6.836  18.198
   23AGAL    O415236   6.332   6.753  18.345
   23AGAL   HO415237   6.418   6.792  18.320
   23AGAL    C615238   6.465   6.803  18.069
   23AGAL   H6115239   6.533   6.757  17.993
   23AGAL   H6215240   6.418   6.891  18.018
   23AGAL    O615241   6.543   6.846  18.180
   23AGAL   HO615242   6.614   6.907  18.154
   24ARHM    C115243   6.192   6.279  18.364
   24ARHM    H115244   6.302   6.285  18.375
   24ARHM    C515245   6.022   6.121  18.300
   24ARHM    H515246   5.983   6.199  18.230
   24ARHM    O515247   6.163   6.145  18.317
   24ARHM    C215248   6.122   6.302  18.496
   24ARHM    H215249   6.137   6.407  18.529
   24ARHM    O215250   6.169   6.209  18.596
   24ARHM    C315251   5.974   6.281  18.478
   24ARHM    H315252   5.939   6.352  18.399
   24ARHM    O315253   5.903   6.314  18.596
   24ARHM   HO315254   5.893   6.237  18.652
   24ARHM    C415255   5.950   6.138  18.432
   24ARHM    H415256   5.995   6.067  18.506
   24ARHM    O415257   5.813   6.103  18.418
   24ARHM   HO415258   5.795   6.012  18.440
   24ARHM    C615259   5.998   5.985  18.232
   24ARHM   H6115260   5.901   5.987  18.177
   24ARHM   H6215261   6.077   5.966  18.157
   24ARHM   H6315262   6.000   5.900  18.303
   25ARHM    C115263   6.293   6.242  18.650
   25ARHM    H115264   6.345   6.314  18.583
   25ARHM    C515265   6.333   6.032  18.755
   25ARHM    H515266   6.234   5.994  18.719
   25ARHM    O515267   6.382   6.130  18.663
   25ARHM    C215268   6.271   6.310  18.782
   25ARHM    H215269   6.193   6.389  18.773
   25ARHM    O215270   6.394   6.368  18.826
   25ARHM    C315271   6.218   6.209  18.880
   25ARHM    H315272   6.122   6.166  18.844
   25ARHM    O315273   6.204   6.274  19.006
   25ARHM    C415274   6.312   6.094  18.891
   25ARHM    H415275   6.409   6.132  18.920
   25ARHM    O415276   6.268   6.002  18.989
   25ARHM   HO415277   6.342   5.967  19.039
   25ARHM    C615278   6.429   5.912  18.760
   25ARHM   H6115279   6.448   5.879  18.656
   25ARHM   H6215280   6.526   5.938  18.806
   25ARHM   H6315281   6.384   5.829  18.818
   26BMANN   C115282   6.421   6.489  18.763
   26BMANN   H115283   6.330   6.539  18.722
   26BMANN   C515284   6.543   6.599  18.591
   26BMANN   H515285   6.448   6.644  18.552
   26BMANN   O515286   6.514   6.476  18.656
   26BMANN   C215287   6.472   6.575  18.871
   26BMANN   H215288   6.391   6.580  18.949
   26BMANN    N15289   6.597   6.525  18.929
   26BMANN   HN15290   6.669   6.505  18.863
   26BMANN    C15291   6.620   6.510  19.061
   26BMANN    O15292   6.532   6.522  19.145
   26BMANN   CT15293   6.762   6.477  19.102
   26BMANN  HT115294   6.815   6.424  19.020
   26BMANN  HT215295   6.768   6.418  19.196
   26BMANN  HT315296   6.814   6.573  19.121
   26BMANN   C315297   6.490   6.709  18.814
   26BMANN   H315298   6.397   6.752  18.771
   26BMANN   O315299   6.512   6.777  18.942
   26BMANN  HO315300   6.436   6.832  18.967
   26BMANN   C415301   6.600   6.689  18.693
   26BMANN   H415302   6.693   6.655  18.740
   26BMANN   O415303   6.654   6.785  18.601
   26BMANN  HO415304   6.690   6.860  18.652
   26BMANN   C615305   6.637   6.577  18.470
   26BMANN  H6115306   6.608   6.484  18.421
   26BMANN  H6215307   6.623   6.662  18.397
   26BMANN   O615308   6.776   6.572  18.507
   26BMANN  HO615309   6.795   6.659  18.547
   27BGLCN   C115310   6.093   6.241  19.084
   27BGLCN   H115311   6.069   6.133  19.079
   27BGLCN   C515312   5.866   6.289  19.128
   27BGLCN   H515313   5.851   6.178  19.129
   27BGLCN   O515314   5.978   6.316  19.043
   27BGLCN   C215315   6.134   6.284  19.223
   27BGLCN   H215316   6.151   6.395  19.219
   27BGLCN    N15317   6.258   6.222  19.266
   27BGLCN   HN15318   6.269   6.126  19.242
   27BGLCN    C15319   6.353   6.292  19.332
   27BGLCN    O15320   6.330   6.398  19.387
   27BGLCN   CT15321   6.493   6.233  19.337
   27BGLCN  HT115322   6.499   6.143  19.274
   27BGLCN  HT215323   6.521   6.207  19.441
   27BGLCN  HT315324   6.564   6.310  19.302
   27BGLCN   C315325   6.022   6.259  19.319
   27BGLCN   H315326   5.998   6.150  19.313
   27BGLCN   O315327   6.072   6.295  19.450
   27BGLCN   C415328   5.899   6.334  19.270
   27BGLCN   H415329   5.920   6.444  19.268
   27BGLCN   O415330   5.788   6.312  19.355
   27BGLCN  HO415331   5.761   6.221  19.340
   27BGLCN   C615332   5.740   6.347  19.067
   27BGLCN  H6115333   5.651   6.310  19.123
   27BGLCN  H6215334   5.746   6.457  19.078
   27BGLCN   O615335   5.722   6.308  18.930
   27BGLCN  HO615336   5.658   6.367  18.885
   28AGAL    C115337   6.005   6.244  19.561
   28AGAL    H115338   5.908   6.299  19.570
   28AGAL    C515339   6.095   6.023  19.548
   28AGAL    H515340   6.173   6.064  19.479
   28AGAL    O515341   5.976   6.105  19.541
   28AGAL    C215342   6.074   6.261  19.698
   28AGAL    H215343   5.999   6.216  19.766
   28AGAL    O215344   6.098   6.394  19.746
   28AGAL    C315345   6.200   6.176  19.705
   28AGAL    H315346   6.267   6.205  19.621
   28AGAL    O315347   6.280   6.188  19.822
   28AGAL   HO315348   6.366   6.228  19.801
   28AGAL    C415349   6.160   6.033  19.685
   28AGAL    H415350   6.252   5.971  19.685
   28AGAL    O415351   6.073   5.983  19.786
   28AGAL   HO415352   6.124   5.929  19.847
   28AGAL    C615353   6.069   5.880  19.500
   28AGAL   H6115354   6.044   5.884  19.392
   28AGAL   H6215355   6.159   5.816  19.511
   28AGAL    O615356   5.964   5.815  19.569
   28AGAL   HO615357   5.877   5.839  19.535
   29ARHM    C115358   6.067   6.400  19.884
   29ARHM    H115359   6.079   6.301  19.933
   29ARHM    C515360   5.910   6.573  19.848
   29ARHM    H515361   5.938   6.569  19.740
   29ARHM    O515362   5.933   6.444  19.906
   29ARHM    C215363   6.162   6.493  19.953
   29ARHM    H215364   6.266   6.460  19.929
   29ARHM    O215365   6.141   6.492  20.096
   29ARHM    C315366   6.143   6.631  19.895
   29ARHM    H315367   6.164   6.630  19.786
   29ARHM    O315368   6.239   6.718  19.952
   29ARHM   HO315369   6.195   6.803  19.960
   29ARHM    C415370   5.999   6.676  19.914
   29ARHM    H415371   5.971   6.669  20.020
   29ARHM    O415372   5.972   6.809  19.869
   29ARHM   HO415373   6.009   6.827  19.782
   29ARHM    C615374   5.759   6.593  19.858
   29ARHM   H6115375   5.711   6.503  19.814
   29ARHM   H6215376   5.725   6.602  19.963
   29ARHM   H6315377   5.727   6.682  19.801
   30ARHM    C115378   6.226   6.409  20.173
   30ARHM    H115379   6.333   6.435  20.152
   30ARHM    C515380   6.073   6.227  20.186
   30ARHM    H515381   6.003   6.291  20.127
   30ARHM    O515382   6.206   6.269  20.152
   30ARHM    C215383   6.197   6.438  20.319
   30ARHM    H215384   6.209   6.547  20.339
   30ARHM    O215385   6.287   6.359  20.396
   30ARHM    C315386   6.057   6.396  20.358
   30ARHM    H315387   5.988   6.448  20.288
   30ARHM    O315388   6.024   6.442  20.491
   30ARHM    C415389   6.042   6.248  20.332
   30ARHM    H415390   6.116   6.189  20.391
   30ARHM    O415391   5.915   6.195  20.367
   30ARHM   HO415392   5.843   6.223  20.309
   30ARHM    C615393   6.050   6.082  20.142
   30ARHM   H6115394   5.944   6.054  20.160
   30ARHM   H6215395   6.070   6.072  20.034
   30ARHM   H6315396   6.115   6.012  20.199
   31BMANN   C115397   6.408   6.421  20.425
   31BMANN   H115398   6.391   6.527  20.452
   31BMANN   C515399   6.630   6.465  20.356
   31BMANN   H515400   6.608   6.571  20.386
   31BMANN   O515401   6.504   6.406  20.321
   31BMANN   C215402   6.457   6.346  20.545
   31BMANN   H215403   6.384   6.366  20.628
   31BMANN    N15404   6.459   6.203  20.518
   31BMANN   HN15405   6.461   6.175  20.422
   31BMANN    C15406   6.446   6.111  20.614
   31BMANN    O15407   6.428   6.143  20.731
   31BMANN   CT15408   6.453   5.969  20.569
   31BMANN  HT115409   6.532   5.959  20.493
   31BMANN  HT215410   6.354   5.940  20.527
   31BMANN  HT315411   6.474   5.902  20.656
   31BMANN   C315412   6.587   6.408  20.587
   31BMANN   H315413   6.573   6.518  20.604
   31BMANN   O315414   6.629   6.359  20.712
   31BMANN  HO315415   6.554   6.310  20.749
   31BMANN   C415416   6.685   6.395  20.476
   31BMANN   H415417   6.708   6.288  20.450
   31BMANN   O415418   6.804   6.463  20.504
   31BMANN  HO415419   6.794   6.539  20.563
   31BMANN   C615420   6.731   6.471  20.242
   31BMANN  H6115421   6.816   6.538  20.268
   31BMANN  H6215422   6.774   6.370  20.224
   31BMANN   O615423   6.673   6.514  20.119
   31BMANN  HO615424   6.655   6.609  20.117
   32BGLCN   C115425   6.067   6.361  20.598
   32BGLCN   H115426   6.168   6.321  20.577
   32BGLCN   C515427   6.034   6.166  20.729
   32BGLCN   H515428   6.135   6.132  20.695
   32BGLCN   O515429   5.981   6.251  20.627
   32BGLCN   C215430   6.078   6.447  20.722
   32BGLCN   H215431   5.973   6.474  20.751
   32BGLCN    N15432   6.151   6.567  20.695
   32BGLCN   HN15433   6.220   6.556  20.625
   32BGLCN    C15434   6.127   6.689  20.747
   32BGLCN    O15435   6.040   6.712  20.830
   32BGLCN   CT15436   6.220   6.795  20.695
   32BGLCN  HT115437   6.265   6.758  20.601
   32BGLCN  HT215438   6.301   6.823  20.764
   32BGLCN  HT315439   6.163   6.887  20.673
   32BGLCN   C315440   6.143   6.362  20.829
   32BGLCN   H315441   6.236   6.321  20.784
   32BGLCN   O315442   6.181   6.438  20.945
   32BGLCN   C415443   6.050   6.247  20.856
   32BGLCN   H415444   5.951   6.289  20.887
   32BGLCN   O415445   6.099   6.163  20.959
   32BGLCN  HO415446   6.064   6.193  21.044
   32BGLCN   C615447   5.949   6.040  20.742
   32BGLCN  H6115448   5.997   5.966  20.809
   32BGLCN  H6215449   5.851   6.067  20.785
   32BGLCN   O615450   5.928   5.975  20.616
   32BGLCN  HO615451   6.006   5.986  20.560
   33AGAL    C115452   6.302   6.393  21.004
   33AGAL    H115453   6.310   6.282  20.997
   33AGAL    C515454   6.423   6.595  20.957
   33AGAL    H515455   6.324   6.629  20.920
   33AGAL    O515456   6.419   6.451  20.942
   33AGAL    C215457   6.305   6.432  21.150
   33AGAL    H215458   6.405   6.403  21.189
   33AGAL    O215459   6.209   6.353  21.223
   33AGAL    C315460   6.300   6.584  21.167
   33AGAL    H315461   6.214   6.626  21.109
   33AGAL    O315462   6.274   6.624  21.301
   33AGAL   HO315463   6.344   6.595  21.360
   33AGAL    C415464   6.428   6.642  21.102
   33AGAL    H415465   6.423   6.754  21.103
   33AGAL    O415466   6.551   6.609  21.166
   33AGAL   HO415467   6.545   6.535  21.227
   33AGAL    C615468   6.524   6.659  20.863
   33AGAL   H6115469   6.490   6.634  20.760
   33AGAL   H6215470   6.523   6.770  20.874
   33AGAL    O615471   6.660   6.618  20.876
   33AGAL   HO615472   6.681   6.538  20.826
   34ARHM    C115473   6.260   6.294  21.341
   34ARHM    H115474   6.310   6.372  21.401
   34ARHM    C515475   6.306   6.077  21.242
   34ARHM    H515476   6.277   6.115  21.142
   34ARHM    O515477   6.357   6.188  21.320
   34ARHM    C215478   6.140   6.240  21.417
   34ARHM    H215479   6.061   6.320  21.421
   34ARHM    O215480   6.169   6.200  21.554
   34ARHM    C315481   6.081   6.125  21.338
   34ARHM    H315482   6.052   6.161  21.236
   34ARHM    O315483   5.961   6.077  21.399
   34ARHM   HO315484   5.905   6.037  21.332
   34ARHM    C415485   6.186   6.018  21.316
   34ARHM    H415486   6.224   5.981  21.414
   34ARHM    O415487   6.130   5.908  21.244
   34ARHM   HO415488   6.081   5.850  21.304
   34ARHM    C615489   6.414   5.970  21.216
   34ARHM   H6115490   6.454   5.934  21.311
   34ARHM   H6215491   6.368   5.881  21.169
   34ARHM   H6315492   6.499   6.002  21.153
   35ARHM    C115493   6.226   6.294  21.643
   35ARHM    H115494   6.182   6.395  21.623
   35ARHM    C515495   6.433   6.173  21.657
   35ARHM    H515496   6.394   6.095  21.587
   35ARHM    O515497   6.369   6.300  21.631
   35ARHM    C215498   6.194   6.256  21.787
   35ARHM    H215499   6.084   6.250  21.803
   35ARHM    O215500   6.248   6.351  21.880
   35ARHM    C315501   6.253   6.121  21.819
   35ARHM    H315502   6.211   6.048  21.746
   35ARHM    O315503   6.213   6.073  21.948
   35ARHM   HO315504   6.210   6.147  22.009
   35ARHM    C415505   6.404   6.127  21.802
   35ARHM    H415506   6.449   6.203  21.870
   35ARHM    O415507   6.463   6.002  21.836
   35ARHM   HO415508   6.416   5.930  21.793
   35ARHM    C615509   6.582   6.189  21.622
   35ARHM   H6115510   6.600   6.203  21.513
   35ARHM   H6215511   6.627   6.272  21.679
   35ARHM   H6315512   6.635   6.098  21.650
   36BMANN   C115513   6.181   6.474  21.884
   36BMANN   H115514   6.077   6.462  21.849
   36BMANN   C515515   6.164   6.698  21.808
   36BMANN   H515516   6.059   6.675  21.780
   36BMANN   O515517   6.241   6.576  21.802
   36BMANN   C215518   6.184   6.520  22.028
   36BMANN   H215519   6.129   6.440  22.084
   36BMANN    N15520   6.318   6.534  22.085
   36BMANN   HN15521   6.389   6.570  22.024
   36BMANN    C15522   6.342   6.519  22.216
   36BMANN    O15523   6.259   6.473  22.294
   36BMANN   CT15524   6.476   6.557  22.270
   36BMANN  HT115525   6.509   6.651  22.223
   36BMANN  HT215526   6.551   6.480  22.247
   36BMANN  HT315527   6.472   6.567  22.380
   36BMANN   C315528   6.102   6.646  22.038
   36BMANN   H315529   5.998   6.627  22.003
   36BMANN   O315530   6.096   6.692  22.172
   36BMANN  HO315531   6.007   6.696  22.209
   36BMANN   C415532   6.162   6.752  21.950
   36BMANN   H415533   6.266   6.777  21.982
   36BMANN   O415534   6.088   6.872  21.960
   36BMANN  HO415535   6.082   6.890  22.056
   36BMANN   C615536   6.211   6.800  21.708
   36BMANN  H6115537   6.211   6.756  21.606
   36BMANN  H6215538   6.138   6.884  21.706
   36BMANN   O615539   6.340   6.853  21.739
   36BMANN  HO615540   6.333   6.925  21.803
    1ECLIP HB6S15541   6.973   5.001  11.779
    1ECLIP  OB615542   7.078   4.885  11.908
    1ECLIP  CB615543   7.078   4.986  11.807
    1ECLIP HB6R15544   7.117   5.082  11.847
    1ECLIP  CB515545   7.155   4.954  11.680
    1ECLIP  OB515546   7.102   4.829  11.632
    1ECLIP  HB515547   7.262   4.944  11.710
    1ECLIP  CB115548   7.171   4.783  11.515
    1ECLIP  HB115549   7.281   4.774  11.533
    1ECLIP  OA615550   7.126   4.657  11.470
    1ECLIP  CA615551   6.987   4.629  11.494
    1ECLIP HA6R15552   6.928   4.721  11.512
    1ECLIP HA6S15553   6.980   4.561  11.582
    1ECLIP  CB415554   7.143   5.061  11.570
    1ECLIP  HB415555   7.036   5.079  11.541
    1ECLIP  OB415556   7.207   5.179  11.619
    1ECLIP   PB15557   7.117   5.311  11.667
    1ECLIP OPB415558   7.191   5.374  11.784
    1ECLIP OPB315559   6.978   5.254  11.704
    1ECLIP OPB215560   7.111   5.400  11.544
    1ECLIP  CB315561   7.214   5.011  11.446
    1ECLIP  OB315562   7.204   5.096  11.333
    1ECLIP  HB315563   7.321   4.990  11.471
    1ECLIP  C7115564   7.291   5.193  11.319
    1ECLIP  O7115565   7.404   5.192  11.364
    1ECLIP  C7215566   7.261   5.251  11.182
    1ECLIP H72R15567   7.263   5.177  11.100
    1ECLIP H72S15568   7.338   5.329  11.163
    1ECLIP  CB215569   7.153   4.880  11.403
    1ECLIP  HB215570   7.043   4.896  11.387
    1ECLIP  NB215571   7.218   4.830  11.282
    1ECLIP HNB215572   7.297   4.772  11.293
    1ECLIP  CA415573   7.024   4.458  11.321
    1ECLIP  HA415574   7.119   4.510  11.294
    1ECLIP  OA415575   7.049   4.360  11.422
    1ECLIP HOA415576   7.071   4.408  11.502
    1ECLIP  CA515577   6.930   4.561  11.373
    1ECLIP  HA515578   6.827   4.521  11.394
    1ECLIP  OA515579   6.919   4.664  11.276
    1ECLIP  CA115580   6.864   4.621  11.152
    1ECLIP  HA115581   6.879   4.705  11.082
    1ECLIP  OA115582   6.726   4.586  11.154
    1ECLIP OPA215583   6.568   4.649  11.341
    1ECLIP OPA315584   6.687   4.836  11.227
    1ECLIP OPA415585   6.507   4.707  11.102
    1ECLIP   PA15586   6.618   4.701  11.207
    1ECLIP  CA315587   6.974   4.402  11.194
    1ECLIP  HA315588   6.880   4.344  11.213
    1ECLIP  OA315589   7.088   4.316  11.172
    1ECLIP  C3115590   7.193   4.362  11.103
    1ECLIP  O3115591   7.206   4.361  10.982
    1ECLIP  C3215592   7.307   4.305  11.170
    1ECLIP H32R15593   7.339   4.238  11.087
    1ECLIP H32S15594   7.281   4.249  11.264
    1ECLIP  CA215595   6.953   4.520  11.093
    1ECLIP  HA215596   7.054   4.563  11.076
    1ECLIP  NA215597   6.899   4.491  10.961
    1ECLIP HNA215598   6.903   4.393  10.949
    1ECLIP  C7315599   7.114   5.294  11.185
    1ECLIP H73R15600   7.109   5.367  11.275
    1ECLIP  O7315601   7.022   5.193  11.194
    1ECLIP  C8115602   6.904   5.230  11.235
    1ECLIP  O8115603   6.872   5.332  11.295
    1ECLIP  C8215604   6.806   5.133  11.171
    1ECLIP H82R15605   6.710   5.144  11.223
    1ECLIP H82S15606   6.846   5.031  11.191
    1ECLIP  C8315607   6.789   5.150  11.018
    1ECLIP H83R15608   6.872   5.097  10.966
    1ECLIP H83S15609   6.793   5.257  10.990
    1ECLIP  C8415610   6.661   5.084  10.965
    1ECLIP H84R15611   6.571   5.141  10.996
    1ECLIP H84S15612   6.657   4.982  11.013
    1ECLIP  C8515613   6.663   5.062  10.813
    1ECLIP H85R15614   6.765   5.025  10.791
    1ECLIP H85S15615   6.651   5.158  10.760
    1ECLIP  C8615616   6.565   4.952  10.765
    1ECLIP H86R15617   6.467   4.995  10.735
    1ECLIP H86S15618   6.545   4.881  10.849
    1ECLIP  C8715619   6.625   4.866  10.652
    1ECLIP H87R15620   6.549   4.794  10.616
    1ECLIP H87S15621   6.708   4.805  10.694
    1ECLIP  C8815622   6.684   4.949  10.539
    1ECLIP H88R15623   6.781   4.991  10.572
    1ECLIP H88S15624   6.618   5.037  10.524
    1ECLIP  C8915625   6.705   4.870  10.410
    1ECLIP H89R15626   6.709   4.760  10.426
    1ECLIP H89S15627   6.802   4.897  10.363
    1ECLIP C81015628   6.597   4.906  10.311
    1ECLIPH810R15629   6.564   5.010  10.332
    1ECLIPH810S15630   6.509   4.838  10.324
    1ECLIP C81115631   6.643   4.900  10.167
    1ECLIPH811R15632   6.547   4.895  10.110
    1ECLIPH811S15633   6.704   4.808  10.154
    1ECLIP C81215634   6.729   5.017  10.115
    1ECLIPH812R15635   6.771   4.990  10.015
    1ECLIPH812S15636   6.817   5.028  10.180
    1ECLIP C81315637   6.659   5.151  10.101
    1ECLIPH813R15638   6.574   5.140  10.030
    1ECLIPH813S15639   6.617   5.182  10.199
    1ECLIP C81415640   6.752   5.260  10.050
    1ECLIPH814R15641   6.808   5.229   9.958
    1ECLIPH814S15642   6.826   5.286  10.128
    1ECLIPH814T15643   6.694   5.351  10.025
    1ECLIP  C7415644   7.061   5.359  11.065
    1ECLIP H74R15645   7.107   5.442  11.115
    1ECLIP H74S15646   6.960   5.399  11.060
    1ECLIP  C7515647   7.063   5.300  10.920
    1ECLIP H75R15648   6.990   5.354  10.854
    1ECLIP H75S15649   7.030   5.201  10.942
    1ECLIP  C7615650   7.184   5.269  10.831
    1ECLIP H76R15651   7.280   5.235  10.873
    1ECLIP H76S15652   7.205   5.370  10.838
    1ECLIP  C7715653   7.173   5.270  10.677
    1ECLIP H77R15654   7.125   5.365  10.643
    1ECLIP H77S15655   7.106   5.194  10.645
    1ECLIP  C7815656   7.311   5.234  10.616
    1ECLIP H78R15657   7.393   5.293  10.653
    1ECLIP H78S15658   7.359   5.152  10.669
    1ECLIP  C7915659   7.324   5.218  10.464
    1ECLIP H79R15660   7.329   5.110  10.446
    1ECLIP H79S15661   7.429   5.248  10.440
    1ECLIP C71015662   7.209   5.276  10.375
    1ECLIPH710R15663   7.112   5.265  10.423
    1ECLIPH710S15664   7.201   5.383  10.357
    1ECLIP C71115665   7.218   5.248  10.227
    1ECLIPH711R15666   7.318   5.280  10.187
    1ECLIPH711S15667   7.209   5.139  10.219
    1ECLIP C71215668   7.103   5.323  10.158
    1ECLIPH712R15669   7.107   5.434  10.156
    1ECLIPH712S15670   7.013   5.305  10.220
    1ECLIP C71315671   7.089   5.274  10.017
    1ECLIPH713R15672   7.065   5.165  10.021
    1ECLIPH713S15673   7.006   5.329   9.968
    1ECLIP C71415674   7.214   5.296   9.935
    1ECLIPH714R15675   7.233   5.404   9.937
    1ECLIPH714S15676   7.307   5.246   9.968
    1ECLIPH714T15677   7.192   5.258   9.833
    1ECLIP  C5115678   7.175   4.866  11.160
    1ECLIP  O5115679   7.066   4.917  11.143
    1ECLIP  C5215680   7.267   4.845  11.042
    1ECLIP H52R15681   7.334   4.933  11.029
    1ECLIP H52S15682   7.329   4.757  11.062
    1ECLIP  C5315683   7.186   4.823  10.913
    1ECLIP H53R15684   7.091   4.768  10.935
    1ECLIP  O5315685   7.271   4.753  10.822
    1ECLIP  C6115686   7.240   4.629  10.790
    1ECLIP  O6115687   7.141   4.568  10.824
    1ECLIP  C6215688   7.346   4.572  10.698
    1ECLIP H62R15689   7.428   4.534  10.762
    1ECLIP H62S15690   7.386   4.656  10.638
    1ECLIP  C6315691   7.288   4.458  10.612
    1ECLIP H63R15692   7.193   4.491  10.566
    1ECLIP H63S15693   7.270   4.365  10.672
    1ECLIP  C6415694   7.367   4.421  10.490
    1ECLIP H64R15695   7.314   4.338  10.439
    1ECLIP H64S15696   7.467   4.391  10.529
    1ECLIP  C6515697   7.376   4.536  10.393
    1ECLIP H65R15698   7.437   4.610  10.449
    1ECLIP H65S15699   7.279   4.577  10.366
    1ECLIP  C6615700   7.432   4.513  10.254
    1ECLIP H66R15701   7.510   4.441  10.273
    1ECLIP H66S15702   7.472   4.609  10.213
    1ECLIP  C6715703   7.390   4.409  10.155
    1ECLIP H67R15704   7.380   4.309  10.199
    1ECLIP H67S15705   7.462   4.389  10.075
    1ECLIP  C6815706   7.280   4.463  10.083
    1ECLIP H68R15707   7.302   4.566  10.045
    1ECLIP H68S15708   7.206   4.462  10.164
    1ECLIP  C6915709   7.258   4.371   9.968
    1ECLIP H69R15710   7.304   4.270   9.976
    1ECLIP H69S15711   7.313   4.425   9.890
    1ECLIP C61015712   7.111   4.362   9.942
    1ECLIPH610R15713   7.076   4.469   9.937
    1ECLIPH610S15714   7.061   4.309  10.022
    1ECLIP C61115715   7.087   4.272   9.823
    1ECLIPH611R15716   7.131   4.173   9.816
    1ECLIPH611S15717   6.982   4.279   9.780
    1ECLIP C61215718   7.177   4.321   9.729
    1ECLIPH612R15719   7.109   4.416   9.744
    1ECLIPH612S15720   7.278   4.360   9.731
    1ECLIPH612T15721   7.185   4.287   9.624
    1ECLIP  C5415722   7.152   4.961  10.853
    1ECLIP H54R15723   7.249   5.009  10.824
    1ECLIP H54S15724   7.108   5.022  10.934
    1ECLIP  C5515725   7.056   4.963  10.734
    1ECLIP H55R15726   7.011   5.063  10.723
    1ECLIP H55S15727   6.968   4.900  10.757
    1ECLIP  C5615728   7.131   4.924  10.606
    1ECLIP H56R15729   7.176   4.824  10.622
    1ECLIP H56S15730   7.215   4.994  10.587
    1ECLIP  C5715731   7.050   4.909  10.477
    1ECLIP H57R15732   6.992   5.001  10.454
    1ECLIP H57S15733   6.977   4.826  10.491
    1ECLIP  C5815734   7.145   4.873  10.362
    1ECLIP H58R15735   7.234   4.939  10.358
    1ECLIP H58S15736   7.185   4.771  10.383
    1ECLIP  C5915737   7.075   4.880  10.226
    1ECLIP H59R15738   7.032   4.981  10.209
    1ECLIP H59S15739   6.990   4.808  10.233
    1ECLIP C51015740   7.170   4.857  10.109
    1ECLIPH510R15741   7.234   4.767  10.121
    1ECLIPH510S15742   7.236   4.946  10.093
    1ECLIP C51115743   7.102   4.845   9.977
    1ECLIPH511R15744   7.067   4.738   9.973
    1ECLIPH511S15745   7.011   4.906   9.962
    1ECLIP C51215746   7.206   4.876   9.869
    1ECLIPH512R15747   7.161   4.908   9.773
    1ECLIPH512S15748   7.264   4.968   9.869
    1ECLIP C51315749   7.282   4.748   9.838
    1ECLIPH513R15750   7.228   4.651   9.836
    1ECLIPH513S15751   7.366   4.717   9.899
    1ECLIP C51415752   7.320   4.779   9.703
    1ECLIPH514R15753   7.363   4.878   9.703
    1ECLIPH514S15754   7.364   4.688   9.665
    1ECLIPH514T15755   7.281   4.766   9.608
    1ECLIP  C3315756   7.412   4.411  11.183
    1ECLIP H33R15757   7.507   4.365  11.213
    1ECLIP  O3315758   7.367   4.498  11.284
    1ECLIP HO3315759   7.372   4.455  11.371
    1ECLIP  C3415760   7.445   4.489  11.056
    1ECLIP H34R15761   7.355   4.536  11.015
    1ECLIP H34S15762   7.481   4.414  10.981
    1ECLIP  C3515763   7.546   4.601  11.086
    1ECLIP H35R15764   7.632   4.541  11.117
    1ECLIP H35S15765   7.520   4.659  11.175
    1ECLIP  C3615766   7.558   4.705  10.971
    1ECLIP H36R15767   7.473   4.690  10.905
    1ECLIP H36S15768   7.629   4.692  10.893
    1ECLIP  C3715769   7.619   4.842  10.997
    1ECLIP H37R15770   7.730   4.850  11.005
    1ECLIP H37S15771   7.582   4.867  11.097
    1ECLIP  C3815772   7.590   4.935  10.879
    1ECLIP H38R15773   7.482   4.954  10.877
    1ECLIP H38S15774   7.647   5.027  10.903
    1ECLIP  C3915775   7.629   4.883  10.739
    1ECLIP H39R15776   7.576   4.787  10.718
    1ECLIP H39S15777   7.741   4.869  10.735
    1ECLIP C31015778   7.593   4.971  10.622
    1ECLIPH310R15779   7.660   5.059  10.631
    1ECLIPH310S15780   7.487   5.002  10.631
    1ECLIP C31115781   7.601   4.897  10.488
    1ECLIPH311R15782   7.686   4.826  10.490
    1ECLIPH311S15783   7.509   4.836  10.473
    1ECLIP C31215784   7.613   4.988  10.366
    1ECLIPH312R15785   7.555   5.081  10.384
    1ECLIPH312S15786   7.720   5.016  10.354
    1ECLIP C31315787   7.564   4.921  10.237
    1ECLIPH313R15788   7.641   4.845  10.211
    1ECLIPH313S15789   7.468   4.868  10.254
    1ECLIP C31415790   7.548   5.016  10.118
    1ECLIPH314R15791   7.645   5.066  10.096
    1ECLIPH314S15792   7.514   4.962  10.027
    1ECLIPH314T15793   7.472   5.095  10.141
    1ECLIP  C1115794   6.835   4.560  10.862
    1ECLIP  O1115795   6.851   4.678  10.844
    1ECLIP  C1215796   6.742   4.487  10.765
    1ECLIP H12R15797   6.636   4.495  10.791
    1ECLIP H12S15798   6.732   4.381  10.780
    1ECLIP  C1315799   6.784   4.524  10.620
    1ECLIP H13R15800   6.784   4.629  10.596
    1ECLIP  O1315801   6.672   4.463  10.550
    1ECLIP HO1315802   6.653   4.481  10.458
    1ECLIP  C1415803   6.938   4.473  10.578
    1ECLIP H14R15804   6.980   4.377  10.601
    1ECLIP H14S15805   7.014   4.518  10.636
    1ECLIP  C1515806   6.980   4.444  10.435
    1ECLIP H15R15807   6.879   4.421  10.457
    1ECLIP H15S15808   7.028   4.352  10.391
    1ECLIP  C1615809   6.963   4.551  10.341
    1ECLIP H16R15810   7.070   4.576  10.350
    1ECLIP H16S15811   6.889   4.613  10.397
    1ECLIP  C1715812   6.913   4.516  10.203
    1ECLIP H17R15813   6.963   4.423  10.171
    1ECLIP H17S15814   6.962   4.587  10.136
    1ECLIP  C1815815   6.757   4.523  10.184
    1ECLIP H18R15816   6.692   4.446  10.229
    1ECLIP H18S15817   6.711   4.614  10.223
    1ECLIP  C1915818   6.720   4.498  10.042
    1ECLIP H19R15819   6.615   4.460  10.037
    1ECLIP H19S15820   6.779   4.419   9.987
    1ECLIP C11015821   6.777   4.610   9.967
    1ECLIPH110R15822   6.724   4.701   9.998
    1ECLIPH110S15823   6.887   4.603   9.969
    1ECLIP C11115824   6.765   4.582   9.827
    1ECLIPH111R15825   6.810   4.480   9.805
    1ECLIPH111S15826   6.656   4.602   9.833
    1ECLIP C11215827   6.771   4.670   9.711
    1ECLIPH112R15828   6.793   4.764   9.747
    1ECLIPH112S15829   6.851   4.610   9.698
    1ECLIP C11315830   6.755   4.647   9.557
    1ECLIPH113R15831   6.824   4.568   9.540
    1ECLIPH113S15832   6.650   4.631   9.532
    1ECLIP C11415833   6.824   4.667   9.433
    1ECLIPH114R15834   6.738   4.692   9.377
    1ECLIPH114S15835   6.862   4.760   9.425
    1ECLIPH114T15836   6.882   4.564   9.385
    2AKDO    C115837   7.302   4.930  11.979
    2AKDO   O1115838   7.354   5.044  11.979
    2AKDO   O1215839   7.357   4.821  11.944
    2AKDO    C215840   7.153   4.921  12.023
    2AKDO    C615841   6.973   5.046  12.123
    2AKDO    H615842   6.915   5.015  12.032
    2AKDO    O615843   7.110   5.046  12.082
    2AKDO    C315844   7.129   4.813  12.128
    2AKDO   H3115845   7.198   4.828  12.214
    2AKDO   H3215846   7.151   4.715  12.081
    2AKDO    C415847   6.986   4.810  12.172
    2AKDO    H415848   6.920   4.794  12.084
    2AKDO    O415849   6.964   4.711  12.272
    2AKDO    C515850   6.945   4.942  12.232
    2AKDO    H515851   6.834   4.938  12.245
    2AKDO    O515852   7.013   4.956  12.361
    2AKDO    C715853   6.925   5.186  12.153
    2AKDO    H715854   6.976   5.223  12.244
    2AKDO    O715855   6.783   5.183  12.171
    2AKDO   HO715856   6.743   5.203  12.088
    2AKDO    C815857   6.960   5.280  12.039
    2AKDO   H8115858   7.070   5.275  12.022
    2AKDO   H8215859   6.911   5.245  11.946
    2AKDO    O815860   6.922   5.415  12.068
    2AKDO   HO815861   6.990   5.471  12.027
    3AKDO    C115862   6.849   4.561  12.116
    3AKDO   O1115863   6.900   4.552  12.002
    3AKDO   O1215864   6.729   4.586  12.145
    3AKDO    C215865   6.946   4.577  12.237
    3AKDO    C615866   7.169   4.543  12.313
    3AKDO    H615867   7.195   4.649  12.323
    3AKDO    O615868   7.071   4.509  12.213
    3AKDO    C315869   6.894   4.530  12.375
    3AKDO   H3115870   6.872   4.428  12.379
    3AKDO   H3215871   6.794   4.570  12.396
    3AKDO    C415872   6.993   4.563  12.482
    3AKDO    H415873   7.015   4.668  12.492
    3AKDO    O415874   6.947   4.505  12.605
    3AKDO   HO415875   6.951   4.568  12.677
    3AKDO    C515876   7.120   4.504  12.447
    3AKDO    H515877   7.189   4.501  12.531
    3AKDO    O515878   7.124   4.379  12.445
    3AKDO   HO515879   7.076   4.357  12.362
    3AKDO    C715880   7.289   4.464  12.272
    3AKDO    H715881   7.274   4.354  12.250
    3AKDO    O715882   7.372   4.478  12.386
    3AKDO   HO715883   7.437   4.410  12.369
    3AKDO    C815884   7.334   4.533  12.145
    3AKDO   H8115885   7.252   4.533  12.072
    3AKDO   H8215886   7.369   4.635  12.168
    3AKDO    O815887   7.432   4.475  12.067
    3AKDO   HO815888   7.412   4.381  12.053
    4AHEP    C115889   6.944   5.029  12.461
    4AHEP    H115890   6.954   5.134  12.427
    4AHEP    C515891   6.766   4.883  12.536
    4AHEP    H515892   6.824   4.801  12.488
    4AHEP    O515893   6.803   5.005  12.468
    4AHEP    C215894   6.996   5.033  12.607
    4AHEP    H215895   7.106   5.045  12.604
    4AHEP    O215896   6.947   5.149  12.674
    4AHEP   HO215897   7.013   5.188  12.730
    4AHEP    C315898   6.964   4.907  12.686
    4AHEP    H315899   7.017   4.818  12.646
    4AHEP    O315900   7.002   4.926  12.824
    4AHEP    C415901   6.814   4.888  12.682
    4AHEP    H415902   6.759   4.970  12.734
    4AHEP    O415903   6.790   4.760  12.741
    4AHEP    P415904   6.708   4.744  12.884
    4AHEP  OP4215905   6.776   4.623  12.949
    4AHEP  OP4315906   6.563   4.730  12.835
    4AHEP  OP4415907   6.734   4.871  12.963
    4AHEP    C615908   6.614   4.858  12.516
    4AHEP    H615909   6.599   4.751  12.545
    4AHEP    O615910   6.526   4.937  12.600
    4AHEP   HO615911   6.484   4.875  12.663
    4AHEP    C715912   6.566   4.875  12.371
    4AHEP   H7115913   6.465   4.829  12.356
    4AHEP   H7215914   6.637   4.824  12.302
    4AHEP    O715915   6.552   5.010  12.326
    4AHEP   HO715916   6.478   5.045  12.376
    5AHEP    C115917   7.094   4.838  12.882
    5AHEP    H115918   7.087   4.737  12.834
    5AHEP    C515919   7.245   5.016  12.932
    5AHEP    H515920   7.164   5.084  12.896
    5AHEP    O515921   7.228   4.889  12.865
    5AHEP    C215922   7.068   4.820  13.032
    5AHEP    H215923   6.963   4.786  13.045
    5AHEP    O215924   7.152   4.714  13.082
    5AHEP   HO215925   7.091   4.643  13.102
    5AHEP    C315926   7.084   4.951  13.109
    5AHEP    H315927   7.011   5.024  13.068
    5AHEP    O315928   7.067   4.941  13.252
    5AHEP    C415929   7.225   5.001  13.083
    5AHEP    H415930   7.299   4.927  13.121
    5AHEP    O415931   7.240   5.129  13.142
    5AHEP    P415932   7.350   5.151  13.267
    5AHEP  OP4215933   7.313   5.285  13.326
    5AHEP  OP4315934   7.490   5.146  13.204
    5AHEP  OP4415935   7.330   5.036  13.366
    5AHEP    C615936   7.380   5.080  12.894
    5AHEP    H615937   7.385   5.181  12.942
    5AHEP    O615938   7.491   5.000  12.941
    5AHEP   HO615939   7.503   4.925  12.886
    5AHEP    C715940   7.387   5.104  12.744
    5AHEP   H7115941   7.442   5.200  12.728
    5AHEP   H7215942   7.287   5.119  12.699
    5AHEP    O715943   7.463   5.002  12.681
    6AHEP    C115944   7.381   4.909  12.616
    6AHEP    H115945   7.274   4.919  12.641
    6AHEP    C515946   7.522   4.915  12.430
    6AHEP    H515947   7.587   4.987  12.487
    6AHEP    O515948   7.389   4.929  12.476
    6AHEP    C215949   7.424   4.773  12.660
    6AHEP    H215950   7.415   4.766  12.771
    6AHEP    O215951   7.337   4.673  12.610
    6AHEP   HO215952   7.288   4.631  12.681
    6AHEP    C315953   7.566   4.753  12.623
    6AHEP    H315954   7.635   4.824  12.674
    6AHEP    O315955   7.596   4.623  12.669
    6AHEP   HO315956   7.670   4.613  12.729
    6AHEP    C415957   7.563   4.777  12.471
    6AHEP    H415958   7.518   4.691  12.417
    6AHEP    O415959   7.677   4.794  12.403
    6AHEP   HO415960   7.753   4.839  12.445
    6AHEP    C615961   7.548   4.951  12.280
    6AHEP    H615962   7.658   4.960  12.256
    6AHEP    O615963   7.501   4.848  12.193
    6AHEP   HO615964   7.437   4.886  12.130
    6AHEP    C715965   7.509   5.092  12.250
    6AHEP   H7115966   7.544   5.117  12.147
    6AHEP   H7215967   7.561   5.155  12.325
    6AHEP    O715968   7.371   5.116  12.265
    6AHEP   HO715969   7.351   5.119  12.357
    7AGLC    C115970   6.938   4.968  13.302
    7AGLC    H115971   6.892   5.057  13.252
    7AGLC    C515972   6.899   4.736  13.346
    7AGLC    H515973   7.004   4.715  13.319
    7AGLC    O515974   6.855   4.855  13.279
    7AGLC    C215975   6.930   4.992  13.453
    7AGLC    H215976   6.822   4.996  13.479
    7AGLC    O215977   6.981   5.119  13.496
    7AGLC   HO215978   7.078   5.114  13.490
    7AGLC    C315979   6.984   4.877  13.534
    7AGLC    H315980   7.087   4.855  13.497
    7AGLC    O315981   6.990   4.906  13.676
    7AGLC    C415982   6.895   4.758  13.498
    7AGLC    H415983   6.789   4.779  13.529
    7AGLC    O415984   6.942   4.642  13.565
    7AGLC   HO415985   6.869   4.587  13.599
    7AGLC    C615986   6.816   4.623  13.289
    7AGLC   H6115987   6.831   4.619  13.178
    7AGLC   H6215988   6.846   4.522  13.327
    7AGLC    O615989   6.678   4.644  13.318
    7AGLC   HO615990   6.650   4.575  13.377
    8AGLC    C115991   7.122   4.898  13.728
    8AGLC    H115992   7.173   4.808  13.686
    8AGLC    C515993   7.162   5.138  13.757
    8AGLC    H515994   7.058   5.156  13.725
    8AGLC    O515995   7.205   5.013  13.697
    8AGLC    C215996   7.125   4.881  13.879
    8AGLC    H215997   7.232   4.867  13.906
    8AGLC    O215998   7.057   4.767  13.930
    8AGLC    C315999   7.074   5.004  13.948
    8AGLC    H316000   6.971   5.021  13.908
    8AGLC    O316001   7.065   4.976  14.090
    8AGLC    C416002   7.164   5.119  13.909
    8AGLC    H416003   7.268   5.094  13.939
    8AGLC    O416004   7.126   5.239  13.975
    8AGLC   HO416005   7.030   5.243  13.980
    8AGLC    C616006   7.240   5.263  13.710
    8AGLC   H6116007   7.251   5.265  13.599
    8AGLC   H6216008   7.185   5.356  13.737
    8AGLC    O616009   7.368   5.279  13.770
    8AGLC   HO616010   7.362   5.320  13.857
    9AGAL    C116011   7.092   4.642  13.877
    9AGAL    H116012   7.094   4.643  13.766
    9AGAL    C516013   7.222   4.576  14.064
    9AGAL    H516014   7.185   4.670  14.111
    9AGAL    O516015   7.221   4.596  13.921
    9AGAL    C216016   6.984   4.547  13.918
    9AGAL    H216017   7.009   4.448  13.873
    9AGAL    O216018   6.858   4.588  13.857
    9AGAL    C316019   6.994   4.533  14.068
    9AGAL    H316020   6.977   4.629  14.119
    9AGAL    O316021   6.890   4.478  14.128
    9AGAL   HO316022   6.833   4.460  14.052
    9AGAL    C416023   7.124   4.472  14.108
    9AGAL    H416024   7.130   4.454  14.218
    9AGAL    O416025   7.142   4.344  14.047
    9AGAL   HO416026   7.212   4.297  14.096
    9AGAL    C616027   7.357   4.555  14.120
    9AGAL   H6116028   7.423   4.641  14.096
    9AGAL   H6216029   7.358   4.547  14.231
    9AGAL    O616030   7.405   4.433  14.067
    9AGAL   HO616031   7.482   4.452  14.011
   10AGAL    C116032   6.726   4.582  13.911
   10AGAL    H116033   6.695   4.475  13.918
   10AGAL    C516034   6.735   4.786  14.041
   10AGAL    H516035   6.839   4.796  14.001
   10AGAL    O516036   6.708   4.644  14.041
   10AGAL    C216037   6.633   4.651  13.812
   10AGAL    H216038   6.530   4.636  13.849
   10AGAL    O216039   6.633   4.589  13.685
   10AGAL   HO216040   6.541   4.568  13.661
   10AGAL    C316041   6.666   4.800  13.806
   10AGAL    H316042   6.774   4.809  13.781
   10AGAL    O316043   6.592   4.872  13.707
   10AGAL   HO316044   6.653   4.896  13.636
   10AGAL    C416045   6.645   4.859  13.943
   10AGAL    H416046   6.672   4.967  13.944
   10AGAL    O416047   6.509   4.847  13.980
   10AGAL   HO416048   6.493   4.754  13.998
   10AGAL    C616049   6.743   4.853  14.180
   10AGAL   H6116050   6.808   4.793  14.246
   10AGAL   H6216051   6.794   4.952  14.164
   10AGAL    O616052   6.620   4.879  14.250
   10AGAL   HO616053   6.612   4.826  14.330
   11BGLC    C116054   7.167   5.010  14.184
   11BGLC    H116055   7.166   5.120  14.198
   11BGLC    C516056   7.402   4.982  14.248
   11BGLC    H516057   7.415   5.090  14.272
   11BGLC    O516058   7.297   4.958  14.148
   11BGLC    C216059   7.123   4.943  14.315
   11BGLC    H216060   7.114   4.832  14.301
   11BGLC    O216061   6.994   4.991  14.353
   11BGLC   HO216062   6.937   4.914  14.368
   11BGLC    C316063   7.223   4.964  14.427
   11BGLC    H316064   7.227   5.071  14.455
   11BGLC    O316065   7.183   4.885  14.541
   11BGLC    C416066   7.357   4.911  14.378
   11BGLC    H416067   7.345   4.803  14.354
   11BGLC    O416068   7.456   4.918  14.480
   11BGLC   HO416069   7.433   4.856  14.552
   11BGLC    C616070   7.537   4.938  14.188
   11BGLC   H6116071   7.614   4.921  14.266
   11BGLC   H6216072   7.522   4.845  14.130
   11BGLC    O616073   7.595   5.031  14.097
   11BGLC   HO616074   7.669   5.078  14.137
   12BGLCN   C116075   7.168   4.947  14.668
   12BGLCN   H116076   7.068   4.993  14.674
   12BGLCN   C516077   7.250   5.106  14.824
   12BGLCN   H516078   7.149   5.154  14.833
   12BGLCN   O516079   7.265   5.047  14.694
   12BGLCN   C216080   7.182   4.836  14.772
   12BGLCN   H216081   7.288   4.801  14.767
   12BGLCN    N16082   7.088   4.731  14.742
   12BGLCN   HN16083   6.994   4.759  14.733
   12BGLCN    C16084   7.128   4.604  14.728
   12BGLCN    O16085   7.244   4.570  14.744
   12BGLCN   CT16086   7.022   4.503  14.693
   12BGLCN  HT116087   7.002   4.435  14.778
   12BGLCN  HT216088   7.055   4.439  14.609
   12BGLCN  HT316089   6.931   4.558  14.665
   12BGLCN   C316090   7.160   4.888  14.912
   12BGLCN   H316091   7.057   4.931  14.916
   12BGLCN   O316092   7.166   4.782  15.012
   12BGLCN   C416093   7.264   4.998  14.932
   12BGLCN   H416094   7.367   4.955  14.926
   12BGLCN   O416095   7.251   5.054  15.061
   12BGLCN  HO416096   7.173   5.110  15.065
   12BGLCN   C616097   7.354   5.217  14.831
   12BGLCN  H6116098   7.351   5.269  14.928
   12BGLCN  H6216099   7.455   5.172  14.819
   12BGLCN   O616100   7.335   5.313  14.727
   12BGLCN  HO616101   7.273   5.381  14.755
   13AGAL    C116102   7.074   4.792  15.120
   13AGAL    H116103   7.066   4.899  15.151
   13AGAL    C516104   6.949   4.593  15.063
   13AGAL    H516105   7.032   4.577  14.990
   13AGAL    O516106   6.944   4.737  15.084
   13AGAL    C216107   7.113   4.717  15.248
   13AGAL    H216108   7.026   4.727  15.317
   13AGAL    O216109   7.226   4.777  15.312
   13AGAL    C316110   7.124   4.567  15.226
   13AGAL    H316111   7.191   4.554  15.139
   13AGAL    O316112   7.179   4.498  15.337
   13AGAL   HO316113   7.244   4.433  15.308
   13AGAL    C416114   6.989   4.515  15.187
   13AGAL    H416115   6.998   4.407  15.159
   13AGAL    O416116   6.893   4.522  15.293
   13AGAL   HO416117   6.897   4.607  15.339
   13AGAL    C616118   6.829   4.533  14.992
   13AGAL   H6116119   6.813   4.588  14.897
   13AGAL   H6216120   6.855   4.427  14.967
   13AGAL    O616121   6.709   4.532  15.069
   13AGAL   HO616122   6.717   4.459  15.133
   14ARHM    C116123   7.202   4.840  15.437
   14ARHM    H116124   7.097   4.877  15.441
   14ARHM    C516125   7.424   4.921  15.454
   14ARHM    H516126   7.446   4.871  15.357
   14ARHM    O516127   7.285   4.955  15.458
   14ARHM    C216128   7.228   4.739  15.548
   14ARHM    H216129   7.164   4.651  15.529
   14ARHM    O216130   7.208   4.785  15.683
   14ARHM    C316131   7.373   4.700  15.542
   14ARHM    H316132   7.398   4.667  15.438
   14ARHM    O316133   7.401   4.587  15.624
   14ARHM   HO316134   7.400   4.615  15.715
   14ARHM    C416135   7.457   4.823  15.568
   14ARHM    H416136   7.428   4.873  15.664
   14ARHM    O416137   7.596   4.795  15.576
   14ARHM   HO416138   7.629   4.796  15.666
   14ARHM    C616139   7.503   5.052  15.462
   14ARHM   H6116140   7.463   5.129  15.394
   14ARHM   H6216141   7.502   5.087  15.567
   14ARHM   H6316142   7.607   5.037  15.430
   15ARHM    C116143   7.084   4.844  15.711
   15ARHM    H116144   7.006   4.806  15.641
   15ARHM    C516145   7.171   5.054  15.800
   15ARHM    H516146   7.279   5.029  15.781
   15ARHM    O516147   7.085   4.989  15.704
   15ARHM    C216148   7.043   4.801  15.850
   15ARHM    H216149   7.049   4.690  15.857
   15ARHM    O216150   6.905   4.842  15.866
   15ARHM    C316151   7.138   4.860  15.950
   15ARHM    H316152   7.243   4.832  15.920
   15ARHM    O316153   7.110   4.800  16.076
   15ARHM    C416154   7.128   5.011  15.939
   15ARHM    H416155   7.021   5.040  15.952
   15ARHM    O416156   7.200   5.080  16.039
   15ARHM   HO416157   7.179   5.174  16.031
   15ARHM    C616158   7.156   5.207  15.782
   15ARHM   H6116159   7.232   5.262  15.840
   15ARHM   H6216160   7.165   5.231  15.674
   15ARHM   H6316161   7.057   5.241  15.819
   16BMANN   C116162   6.837   4.816  15.987
   16BMANN   H116163   6.881   4.881  16.067
   16BMANN   C516164   6.779   4.660  16.160
   16BMANN   H516165   6.825   4.729  16.234
   16BMANN   O516166   6.844   4.679  16.031
   16BMANN   C216167   6.691   4.855  15.967
   16BMANN   H216168   6.692   4.965  15.941
   16BMANN    N16169   6.622   4.787  15.860
   16BMANN   HN16170   6.567   4.710  15.889
   16BMANN    C16171   6.611   4.825  15.733
   16BMANN    O16172   6.661   4.927  15.687
   16BMANN   CT16173   6.533   4.731  15.645
   16BMANN  HT116174   6.433   4.771  15.622
   16BMANN  HT216175   6.523   4.631  15.690
   16BMANN  HT316176   6.589   4.720  15.551
   16BMANN   C316177   6.619   4.833  16.098
   16BMANN   H316178   6.664   4.888  16.178
   16BMANN   O316179   6.485   4.879  16.092
   16BMANN  HO316180   6.472   4.946  16.161
   16BMANN   C416181   6.632   4.691  16.149
   16BMANN   H416182   6.590   4.621  16.079
   16BMANN   O416183   6.566   4.667  16.273
   16BMANN  HO416184   6.549   4.572  16.284
   16BMANN   C616185   6.798   4.519  16.214
   16BMANN  H6116186   6.794   4.525  16.325
   16BMANN  H6216187   6.714   4.454  16.180
   16BMANN   O616188   6.920   4.456  16.177
   16BMANN  HO616189   6.896   4.382  16.120
   17BGLCN   C116190   7.224   4.769  16.150
   17BGLCN   H116191   7.301   4.848  16.134
   17BGLCN   C516192   7.396   4.607  16.192
   17BGLCN   H516193   7.478   4.679  16.171
   17BGLCN   O516194   7.280   4.642  16.114
   17BGLCN   C216195   7.175   4.767  16.293
   17BGLCN   H216196   7.103   4.683  16.310
   17BGLCN    N16197   7.106   4.891  16.324
   17BGLCN   HN16198   7.136   4.970  16.272
   17BGLCN    C16199   7.013   4.909  16.418
   17BGLCN    O16200   6.960   4.819  16.483
   17BGLCN   CT16201   6.979   5.052  16.444
   17BGLCN  HT116202   6.885   5.083  16.399
   17BGLCN  HT216203   7.060   5.117  16.405
   17BGLCN  HT316204   6.965   5.071  16.551
   17BGLCN   C316205   7.296   4.744  16.378
   17BGLCN   H316206   7.371   4.820  16.345
   17BGLCN   O316207   7.268   4.767  16.519
   17BGLCN   C416208   7.352   4.610  16.339
   17BGLCN   H416209   7.278   4.528  16.353
   17BGLCN   O416210   7.465   4.592  16.420
   17BGLCN  HO416211   7.492   4.502  16.400
   17BGLCN   C616212   7.449   4.469  16.148
   17BGLCN  H6116213   7.560   4.466  16.154
   17BGLCN  H6216214   7.410   4.390  16.216
   17BGLCN   O616215   7.413   4.430  16.015
   17BGLCN  HO616216   7.439   4.496  15.952
   18AGAL    C116217   7.372   4.823  16.598
   18AGAL    H116218   7.448   4.745  16.618
   18AGAL    C516219   7.347   5.047  16.521
   18AGAL    H516220   7.253   5.010  16.476
   18AGAL    O516221   7.435   4.934  16.534
   18AGAL    C216222   7.325   4.875  16.733
   18AGAL    H216223   7.418   4.919  16.776
   18AGAL    O216224   7.287   4.771  16.822
   18AGAL    C316225   7.226   4.992  16.721
   18AGAL    H316226   7.143   4.960  16.653
   18AGAL    O316227   7.166   5.031  16.844
   18AGAL   HO316228   7.071   5.041  16.835
   18AGAL    C416229   7.299   5.106  16.653
   18AGAL    H416230   7.229   5.190  16.630
   18AGAL    O416231   7.404   5.159  16.734
   18AGAL   HO416232   7.364   5.205  16.808
   18AGAL    C616233   7.397   5.138  16.413
   18AGAL   H6116234   7.399   5.077  16.319
   18AGAL   H6216235   7.326   5.222  16.400
   18AGAL    O616236   7.527   5.189  16.435
   18AGAL   HO616237   7.568   5.139  16.505
   19ARHM    C116238   7.334   4.797  16.953
   19ARHM    H116239   7.343   4.906  16.971
   19ARHM    C516240   7.471   4.603  16.961
   19ARHM    H516241   7.434   4.581  16.858
   19ARHM    O516242   7.466   4.745  16.978
   19ARHM    C216243   7.237   4.734  17.048
   19ARHM    H216244   7.132   4.766  17.023
   19ARHM    O216245   7.265   4.776  17.182
   19ARHM    C316246   7.241   4.584  17.032
   19ARHM    H316247   7.216   4.557  16.926
   19ARHM    O316248   7.147   4.520  17.115
   19ARHM   HO316249   7.152   4.561  17.201
   19ARHM    C416250   7.380   4.534  17.060
   19ARHM    H416251   7.407   4.563  17.165
   19ARHM    O416252   7.393   4.392  17.049
   19ARHM   HO416253   7.371   4.367  16.959
   19ARHM    C616254   7.617   4.556  16.963
   19ARHM   H6116255   7.669   4.612  16.884
   19ARHM   H6216256   7.668   4.576  17.060
   19ARHM   H6316257   7.624   4.447  16.943
   20ARHM    C116258   7.228   4.910  17.206
   20ARHM    H116259   7.166   4.950  17.123
   20ARHM    C516260   7.419   4.969  17.332
   20ARHM    H516261   7.446   4.864  17.317
   20ARHM    O516262   7.338   5.001  17.220
   20ARHM    C216263   7.144   4.909  17.331
   20ARHM    H216264   7.065   4.830  17.321
   20ARHM    O216265   7.086   5.038  17.352
   20ARHM    C316266   7.226   4.874  17.449
   20ARHM    H316267   7.267   4.772  17.430
   20ARHM    O316268   7.142   4.871  17.564
   20ARHM    C416269   7.339   4.972  17.460
   20ARHM    H416270   7.302   5.075  17.468
   20ARHM    O416271   7.419   4.944  17.573
   20ARHM   HO416272   7.507   4.975  17.549
   20ARHM    C616273   7.545   5.058  17.332
   20ARHM   H6116274   7.522   5.166  17.345
   20ARHM   H6216275   7.614   5.026  17.413
   20ARHM   H6316276   7.599   5.048  17.235
   21BMANN   C116277   6.969   5.048  17.277
   21BMANN   H116278   6.960   4.961  17.209
   21BMANN   C516279   6.854   5.154  17.102
   21BMANN   H516280   6.851   5.058  17.046
   21BMANN   O516281   6.971   5.159  17.188
   21BMANN   C216282   6.849   5.053  17.371
   21BMANN   H216283   6.853   4.957  17.428
   21BMANN    N16284   6.849   5.166  17.465
   21BMANN   HN16285   6.877   5.253  17.428
   21BMANN    C16286   6.808   5.156  17.594
   21BMANN    O16287   6.750   5.059  17.638
   21BMANN   CT16288   6.835   5.274  17.685
   21BMANN  HT116289   6.765   5.358  17.665
   21BMANN  HT216290   6.939   5.306  17.665
   21BMANN  HT316291   6.829   5.248  17.792
   21BMANN   C316292   6.726   5.049  17.283
   21BMANN   H316293   6.733   4.953  17.228
   21BMANN   O316294   6.604   5.047  17.356
   21BMANN  HO316295   6.609   5.121  17.417
   21BMANN   C416296   6.729   5.164  17.185
   21BMANN   H416297   6.727   5.263  17.237
   21BMANN   O416298   6.618   5.160  17.097
   21BMANN  HO416299   6.567   5.241  17.108
   21BMANN   C616300   6.860   5.261  16.998
   21BMANN  H6116301   6.786   5.241  16.917
   21BMANN  H6216302   6.829   5.357  17.044
   21BMANN   O616303   6.991   5.268  16.942
   21BMANN  HO616304   7.050   5.303  17.011
   22BGLCN   C116305   7.172   4.773  17.660
   22BGLCN   H116306   7.279   4.746  17.662
   22BGLCN   C516307   7.119   4.559  17.747
   22BGLCN   H516308   7.228   4.536  17.747
   22BGLCN   O516309   7.094   4.654  17.642
   22BGLCN   C216310   7.136   4.837  17.791
   22BGLCN   H216311   7.026   4.863  17.786
   22BGLCN    N16312   7.213   4.958  17.809
   22BGLCN   HN16313   7.306   4.957  17.775
   22BGLCN    C16314   7.169   5.067  17.872
   22BGLCN    O16315   7.058   5.079  17.921
   22BGLCN   CT16316   7.269   5.179  17.877
   22BGLCN  HT116317   7.245   5.246  17.793
   22BGLCN  HT216318   7.372   5.140  17.864
   22BGLCN  HT316319   7.263   5.234  17.973
   22BGLCN   C316320   7.161   4.741  17.905
   22BGLCN   H316321   7.268   4.711  17.901
   22BGLCN   O316322   7.136   4.812  18.026
   22BGLCN   C416323   7.078   4.617  17.882
   22BGLCN   H416324   6.971   4.647  17.877
   22BGLCN   O416325   7.095   4.520  17.985
   22BGLCN  HO416326   7.008   4.486  18.011
   22BGLCN   C616327   7.040   4.434  17.714
   22BGLCN  H6116328   7.032   4.371  17.805
   22BGLCN  H6216329   6.937   4.460  17.683
   22BGLCN   O616330   7.104   4.354  17.615
   22BGLCN  HO616331   7.116   4.405  17.534
   23AGAL    C116332   7.190   4.765  18.146
   23AGAL    H116333   7.131   4.678  18.181
   23AGAL    C516334   7.415   4.837  18.109
   23AGAL    H516335   7.379   4.890  18.018
   23AGAL    O516336   7.328   4.725  18.135
   23AGAL    C216337   7.176   4.870  18.255
   23AGAL    H216338   7.219   4.824  18.347
   23AGAL    O216339   7.038   4.906  18.279
   23AGAL    C316340   7.266   4.988  18.224
   23AGAL    H316341   7.243   5.026  18.122
   23AGAL    O316342   7.243   5.099  18.309
   23AGAL   HO316343   7.240   5.071  18.401
   23AGAL    C416344   7.409   4.940  18.223
   23AGAL    H416345   7.475   5.023  18.196
   23AGAL    O416346   7.455   4.887  18.348
   23AGAL   HO416347   7.519   4.818  18.324
   23AGAL    C616348   7.554   4.789  18.073
   23AGAL   H6116349   7.545   4.715  17.995
   23AGAL   H6216350   7.615   4.866  18.021
   23AGAL    O616351   7.621   4.729  18.182
   23AGAL   HO616352   7.704   4.685  18.158
   24ARHM    C116353   6.962   4.824  18.365
   24ARHM    H116354   7.013   4.725  18.375
   24ARHM    C516355   6.750   4.914  18.300
   24ARHM    H516356   6.805   4.981  18.230
   24ARHM    O516357   6.829   4.795  18.319
   24ARHM    C216358   6.955   4.896  18.497
   24ARHM    H216359   7.058   4.924  18.529
   24ARHM    O216360   6.890   4.816  18.596
   24ARHM    C316361   6.875   5.024  18.479
   24ARHM    H316362   6.927   5.083  18.399
   24ARHM    O316363   6.876   5.105  18.596
   24ARHM   HO316364   6.806   5.077  18.655
   24ARHM    C416365   6.735   4.989  18.432
   24ARHM    H416366   6.688   4.919  18.506
   24ARHM    O416367   6.651   5.104  18.416
   24ARHM   HO416368   6.559   5.084  18.435
   24ARHM    C616369   6.616   4.881  18.232
   24ARHM   H6116370   6.580   4.973  18.180
   24ARHM   H6216371   6.629   4.802  18.156
   24ARHM   H6316372   6.539   4.849  18.305
   25ARHM    C116373   6.969   4.715  18.651
   25ARHM    H116374   7.055   4.695  18.583
   25ARHM    C516375   6.794   4.591  18.756
   25ARHM    H516376   6.720   4.667  18.722
   25ARHM    O516377   6.903   4.589  18.662
   25ARHM    C216378   7.023   4.761  18.783
   25ARHM    H216379   7.063   4.865  18.773
   25ARHM    O216380   7.128   4.674  18.826
   25ARHM    C316381   6.910   4.767  18.882
   25ARHM    H316382   6.832   4.838  18.845
   25ARHM    O316383   6.964   4.809  19.006
   25ARHM    C416384   6.844   4.632  18.893
   25ARHM    H416385   6.919   4.555  18.926
   25ARHM    O416386   6.738   4.639  18.988
   25ARHM   HO416387   6.739   4.560  19.042
   25ARHM    C616388   6.720   4.455  18.758
   25ARHM   H6116389   6.696   4.425  18.654
   25ARHM   H6216390   6.784   4.377  18.802
   25ARHM   H6316391   6.626   4.464  18.816
   26BMANN   C116392   7.252   4.696  18.764
   26BMANN   H116393   7.258   4.799  18.722
   26BMANN   C516394   7.408   4.634  18.595
   26BMANN   H516395   7.403   4.737  18.554
   26BMANN   O516396   7.282   4.604  18.658
   26BMANN   C216397   7.355   4.683  18.871
   26BMANN   H216398   7.329   4.760  18.949
   26BMANN    N16399   7.354   4.548  18.929
   26BMANN   HN16400   7.360   4.473  18.864
   26BMANN    C16401   7.344   4.521  19.059
   26BMANN    O16402   7.320   4.609  19.140
   26BMANN   CT16403   7.371   4.379  19.102
   26BMANN  HT116404   7.344   4.309  19.021
   26BMANN  HT216405   7.320   4.349  19.196
   26BMANN  HT316406   7.479   4.371  19.121
   26BMANN   C316407   7.488   4.722  18.811
   26BMANN   H316408   7.482   4.826  18.770
   26BMANN   O316409   7.587   4.726  18.913
   26BMANN  HO316410   7.579   4.808  18.964
   26BMANN   C416411   7.521   4.627  18.698
   26BMANN   H416412   7.527   4.522  18.735
   26BMANN   O416413   7.645   4.658  18.638
   26BMANN  HO416414   7.718   4.629  18.694
   26BMANN   C616415   7.423   4.538  18.478
   26BMANN  H6116416   7.323   4.526  18.430
   26BMANN  H6216417   7.491   4.581  18.401
   26BMANN   O616418   7.471   4.410  18.519
   26BMANN  HO616419   7.561   4.424  18.546
   27BGLCN   C116420   6.888   4.898  19.083
   27BGLCN   H116421   6.780   4.877  19.079
   27BGLCN   C516422   6.841   5.125  19.128
   27BGLCN   H516423   6.734   5.096  19.130
   27BGLCN   O516424   6.911   5.033  19.043
   27BGLCN   C216425   6.944   4.877  19.223
   27BGLCN   H216426   7.052   4.907  19.220
   27BGLCN    N16427   6.935   4.738  19.266
   27BGLCN   HN16428   6.850   4.692  19.243
   27BGLCN    C16429   7.037   4.679  19.332
   27BGLCN    O16430   7.124   4.744  19.388
   27BGLCN   CT16431   7.039   4.528  19.337
   27BGLCN  HT116432   6.960   4.485  19.273
   27BGLCN  HT216433   7.032   4.492  19.441
   27BGLCN  HT316434   7.139   4.493  19.302
   27BGLCN   C316435   6.875   4.970  19.318
   27BGLCN   H316436   6.766   4.948  19.313
   27BGLCN   O316437   6.929   4.939  19.449
   27BGLCN   C416438   6.895   5.113  19.270
   27BGLCN   H416439   7.004   5.138  19.269
   27BGLCN   O416440   6.827   5.204  19.353
   27BGLCN  HO416441   6.732   5.193  19.341
   27BGLCN   C616442   6.846   5.265  19.067
   27BGLCN  H6116443   6.773   5.330  19.121
   27BGLCN  H6216444   6.947   5.310  19.081
   27BGLCN   O616445   6.811   5.262  18.928
   27BGLCN  HO616446   6.820   5.350  18.889
   28AGAL    C116447   6.855   4.980  19.561
   28AGAL    H116448   6.868   5.090  19.570
   28AGAL    C516449   6.689   4.809  19.549
   28AGAL    H516450   6.757   4.754  19.479
   28AGAL    O516451   6.715   4.951  19.541
   28AGAL    C216452   6.899   4.922  19.698
   28AGAL    H216453   6.827   4.975  19.766
   28AGAL    O216454   7.030   4.953  19.747
   28AGAL    C316455   6.871   4.773  19.705
   28AGAL    H316456   6.924   4.724  19.621
   28AGAL    O316457   6.915   4.705  19.823
   28AGAL   HO316458   6.980   4.640  19.795
   28AGAL    C416459   6.723   4.753  19.685
   28AGAL    H416460   6.703   4.644  19.685
   28AGAL    O416461   6.646   4.815  19.788
   28AGAL   HO416462   6.613   4.746  19.845
   28AGAL    C616463   6.548   4.776  19.502
   28AGAL   H6116464   6.541   4.799  19.393
   28AGAL   H6216465   6.524   4.669  19.515
   28AGAL    O616466   6.445   4.845  19.572
   28AGAL   HO616467   6.434   4.932  19.536
   29ARHM    C116468   7.023   4.984  19.885
   29ARHM    H116469   6.936   4.934  19.933
   29ARHM    C516470   7.120   5.198  19.851
   29ARHM    H516471   7.128   5.172  19.743
   29ARHM    O516472   7.011   5.125  19.907
   29ARHM    C216473   7.146   4.935  19.953
   29ARHM    H216474   7.158   4.827  19.928
   29ARHM    O216475   7.135   4.954  20.097
   29ARHM    C316476   7.266   5.008  19.898
   29ARHM    H316477   7.274   4.988  19.788
   29ARHM    O316478   7.381   4.957  19.962
   29ARHM   HO316479   7.448   5.025  19.955
   29ARHM    C416480   7.251   5.158  19.918
   29ARHM    H416481   7.244   5.180  20.027
   29ARHM    O416482   7.365   5.231  19.870
   29ARHM   HO416483   7.389   5.207  19.779
   29ARHM    C616484   7.076   5.343  19.860
   29ARHM   H6116485   6.975   5.352  19.813
   29ARHM   H6216486   7.071   5.380  19.964
   29ARHM   H6316487   7.145   5.407  19.801
   30ARHM    C116488   7.095   4.842  20.173
   30ARHM    H116489   7.162   4.755  20.152
   30ARHM    C516490   6.867   4.911  20.186
   30ARHM    H516491   6.897   5.000  20.127
   30ARHM    O516492   6.958   4.805  20.153
   30ARHM    C216493   7.110   4.880  20.319
   30ARHM    H216494   7.215   4.913  20.339
   30ARHM    O216495   7.074   4.766  20.397
   30ARHM    C316496   7.016   4.991  20.358
   30ARHM    H316497   7.037   5.074  20.287
   30ARHM    O316498   7.044   5.042  20.490
   30ARHM    C416499   6.875   4.947  20.333
   30ARHM    H416500   6.848   4.857  20.392
   30ARHM    O416501   6.782   5.048  20.370
   30ARHM   HO416502   6.758   5.108  20.300
   30ARHM    C616503   6.725   4.874  20.142
   30ARHM   H6116504   6.659   4.962  20.158
   30ARHM   H6216505   6.724   4.852  20.033
   30ARHM   H6316506   6.686   4.786  20.199
   31BMANN   C116507   7.180   4.681  20.426
   31BMANN   H116508   7.270   4.740  20.452
   31BMANN   C516509   7.308   4.493  20.356
   31BMANN   H516510   7.396   4.555  20.386
   31BMANN   O516511   7.204   4.586  20.321
   31BMANN   C216512   7.131   4.606  20.545
   31BMANN   H216513   7.119   4.680  20.628
   31BMANN    N16514   7.003   4.547  20.517
   31BMANN   HN16515   6.978   4.534  20.422
   31BMANN    C16516   6.914   4.525  20.612
   31BMANN    O16517   6.934   4.549  20.729
   31BMANN   CT16518   6.785   4.469  20.565
   31BMANN  HT116519   6.804   4.383  20.496
   31BMANN  HT216520   6.718   4.543  20.520
   31BMANN  HT316521   6.734   4.440  20.659
   31BMANN   C316522   7.240   4.511  20.586
   31BMANN   H316523   7.334   4.567  20.602
   31BMANN   O316524   7.214   4.459  20.714
   31BMANN  HO316525   7.135   4.503  20.749
   31BMANN   C416526   7.267   4.412  20.476
   31BMANN   H416527   7.176   4.353  20.449
   31BMANN   O416528   7.371   4.321  20.508
   31BMANN  HO416529   7.440   4.362  20.560
   31BMANN   C616530   7.354   4.405  20.241
   31BMANN  H6116531   7.449   4.352  20.268
   31BMANN  H6216532   7.279   4.325  20.223
   31BMANN   O616533   7.373   4.477  20.118
   31BMANN  HO616534   7.451   4.532  20.121
   32BGLCN   C116535   6.989   4.970  20.598
   32BGLCN   H116536   6.992   4.861  20.577
   32BGLCN   C516537   6.795   4.922  20.729
   32BGLCN   H516538   6.804   4.816  20.695
   32BGLCN   O516539   6.854   5.004  20.627
   32BGLCN   C216540   7.072   4.994  20.721
   32BGLCN   H216541   7.053   5.100  20.751
   32BGLCN    N16542   7.212   4.975  20.692
   32BGLCN   HN16543   7.228   4.907  20.623
   32BGLCN    C16544   7.315   5.044  20.744
   32BGLCN    O16545   7.302   5.133  20.827
   32BGLCN   CT16546   7.449   5.003  20.690
   32BGLCN  HT116547   7.432   4.948  20.596
   32BGLCN  HT216548   7.506   4.940  20.760
   32BGLCN  HT316549   7.509   5.095  20.670
   32BGLCN   C316550   7.019   4.901  20.829
   32BGLCN   H316551   7.018   4.799  20.784
   32BGLCN   O316552   7.103   4.896  20.946
   32BGLCN   C416553   6.876   4.940  20.857
   32BGLCN   H416554   6.873   5.047  20.888
   32BGLCN   O416555   6.821   4.861  20.960
   32BGLCN  HO416556   6.828   4.908  21.044
   32BGLCN   C616557   6.647   4.950  20.742
   32BGLCN  H6116558   6.597   4.876  20.808
   32BGLCN  H6216559   6.631   5.051  20.787
   32BGLCN   O616560   6.581   4.944  20.615
   32BGLCN  HO616561   6.619   4.874  20.561
   33AGAL    C116562   7.110   4.767  21.005
   33AGAL    H116563   7.012   4.715  20.997
   33AGAL    C516564   7.341   4.737  20.958
   33AGAL    H516565   7.335   4.842  20.921
   33AGAL    O516566   7.209   4.684  20.943
   33AGAL    C216567   7.148   4.781  21.151
   33AGAL    H216568   7.160   4.677  21.189
   33AGAL    O216569   7.037   4.837  21.224
   33AGAL    C316570   7.286   4.844  21.166
   33AGAL    H316571   7.290   4.940  21.108
   33AGAL    O316572   7.315   4.885  21.299
   33AGAL   HO316573   7.311   4.810  21.359
   33AGAL    C416574   7.389   4.751  21.102
   33AGAL    H416575   7.489   4.801  21.103
   33AGAL    O416576   7.407   4.625  21.166
   33AGAL   HO416577   7.337   4.601  21.229
   33AGAL    C616578   7.435   4.670  20.861
   33AGAL   H6116579   7.403   4.690  20.758
   33AGAL   H6216580   7.530   4.720  20.872
   33AGAL    O616581   7.459   4.530  20.878
   33AGAL   HO616582   7.396   4.478  20.825
   34ARHM    C116583   7.002   4.766  21.341
   34ARHM    H116584   7.094   4.752  21.402
   34ARHM    C516585   6.822   4.635  21.243
   34ARHM    H516586   6.845   4.676  21.143
   34ARHM    O516587   6.944   4.634  21.320
   34ARHM    C216588   6.904   4.854  21.417
   34ARHM    H216589   6.946   4.958  21.422
   34ARHM    O216590   6.880   4.809  21.553
   34ARHM    C316591   6.775   4.862  21.337
   34ARHM    H316592   6.797   4.903  21.236
   34ARHM    O316593   6.679   4.948  21.400
   34ARHM   HO316594   6.627   4.996  21.333
   34ARHM    C416595   6.720   4.722  21.317
   34ARHM    H416596   6.703   4.673  21.415
   34ARHM    O416597   6.596   4.726  21.247
   34ARHM   HO416598   6.526   4.757  21.306
   34ARHM    C616599   6.766   4.491  21.221
   34ARHM   H6116600   6.744   4.437  21.315
   34ARHM   H6216601   6.668   4.500  21.170
   34ARHM   H6316602   6.830   4.429  21.156
   35ARHM    C116603   6.990   4.797  21.641
   35ARHM    H116604   7.064   4.879  21.622
   35ARHM    C516605   6.958   4.561  21.656
   35ARHM    H516606   6.872   4.564  21.586
   35ARHM    O516607   7.051   4.668  21.630
   35ARHM    C216608   6.943   4.809  21.785
   35ARHM    H216609   6.895   4.909  21.791
   35ARHM    O216610   7.049   4.799  21.881
   35ARHM    C316611   6.840   4.704  21.819
   35ARHM    H316612   6.755   4.711  21.748
   35ARHM    O316613   6.782   4.722  21.948
   35ARHM   HO316614   6.847   4.755  22.012
   35ARHM    C416615   6.906   4.569  21.800
   35ARHM    H416616   6.994   4.558  21.868
   35ARHM    O416617   6.815   4.465  21.832
   35ARHM   HO416618   6.727   4.482  21.796
   35ARHM    C616619   7.029   4.432  21.616
   35ARHM   H6116620   7.054   4.423  21.510
   35ARHM   H6216621   7.121   4.425  21.672
   35ARHM   H6316622   6.968   4.345  21.637
   36BMANN   C116623   7.136   4.911  21.884
   36BMANN   H116624   7.083   5.002  21.849
   36BMANN   C516625   7.333   5.018  21.806
   36BMANN   H516626   7.269   5.105  21.778
   36BMANN   O516627   7.252   4.897  21.801
   36BMANN   C216628   7.180   4.927  22.028
   36BMANN   H216629   7.085   4.945  22.085
   36BMANN    N16630   7.248   4.811  22.086
   36BMANN   HN16631   7.305   4.759  22.023
   36BMANN    C16632   7.240   4.785  22.218
   36BMANN    O16633   7.164   4.841  22.295
   36BMANN   CT16634   7.327   4.676  22.271
   36BMANN  HT116635   7.423   4.681  22.222
   36BMANN  HT216636   7.289   4.578  22.246
   36BMANN  HT316637   7.339   4.682  22.381
   36BMANN   C316638   7.262   5.054  22.038
   36BMANN   H316639   7.201   5.141  22.002
   36BMANN   O316640   7.304   5.080  22.172
   36BMANN  HO316641   7.267   5.161  22.206
   36BMANN   C416642   7.380   5.043  21.947
   36BMANN   H416643   7.436   4.952  21.973
   36BMANN   O416644   7.465   5.155  21.961
   36BMANN  HO416645   7.481   5.160  22.057
   36BMANN   C616646   7.447   5.012  21.708
   36BMANN  H6116647   7.409   4.995  21.605
   36BMANN  H6216648   7.496   5.112  21.706
   36BMANN   O616649   7.543   4.913  21.746
   36BMANN  HO616650   7.616   4.954  21.794
    1ECLIP HB6S16651   1.608   5.571  11.779
    1ECLIP  OB616652   1.551   5.422  11.908
    1ECLIP  CB616653   1.641   5.469  11.806
    1ECLIP HB6R16654   1.745   5.476  11.846
    1ECLIP  CB516655   1.647   5.384  11.681
    1ECLIP  OB516656   1.512   5.375  11.633
    1ECLIP  HB516657   1.686   5.284  11.711
    1ECLIP  CB116658   1.503   5.294  11.516
    1ECLIP  HB116659   1.541   5.191  11.533
    1ECLIP  OA616660   1.373   5.279  11.477
    1ECLIP  CA616661   1.289   5.393  11.499
    1ECLIP HA6R16662   1.343   5.488  11.517
    1ECLIP HA6S16663   1.219   5.370  11.582
    1ECLIP  CB416664   1.737   5.442  11.570
    1ECLIP  HB416665   1.706   5.546  11.541
    1ECLIP  OB416666   1.872   5.435  11.619
    1ECLIP   PB16667   1.951   5.572  11.667
    1ECLIP OPB416668   2.039   5.537  11.786
    1ECLIP OPB316669   1.836   5.669  11.703
    1ECLIP OPB216670   2.031   5.615  11.543
    1ECLIP  CB316671   1.724   5.355  11.447
    1ECLIP  OB316672   1.794   5.402  11.334
    1ECLIP  HB316673   1.752   5.250  11.472
    1ECLIP  C7116674   1.918   5.367  11.318
    1ECLIP  O7116675   1.968   5.265  11.365
    1ECLIP  C7216676   1.951   5.414  11.177
    1ECLIP H72R16677   1.886   5.380  11.097
    1ECLIP H72S16678   2.051   5.369  11.161
    1ECLIP  CB216679   1.580   5.353  11.403
    1ECLIP  HB216680   1.546   5.460  11.387
    1ECLIP  NB216681   1.563   5.274  11.281
    1ECLIP HNB216682   1.545   5.177  11.292
    1ECLIP  CA416683   1.182   5.268  11.329
    1ECLIP  HA416684   1.271   5.213  11.301
    1ECLIP  OA416685   1.112   5.197  11.433
    1ECLIP HOA416686   1.135   5.223  11.522
    1ECLIP  CA516687   1.215   5.409  11.373
    1ECLIP  HA516688   1.129   5.480  11.396
    1ECLIP  OA516689   1.301   5.474  11.275
    1ECLIP  CA116690   1.237   5.491  11.148
    1ECLIP  HA116691   1.322   5.507  11.077
    1ECLIP  OA116692   1.180   5.620  11.130
    1ECLIP OPA216693   1.113   5.763  11.332
    1ECLIP OPA316694   1.348   5.765  11.232
    1ECLIP OPA416695   1.149   5.865  11.103
    1ECLIP   PA16696   1.200   5.764  11.205
    1ECLIP  CA316697   1.113   5.269  11.204
    1ECLIP  HA316698   1.016   5.276  11.261
    1ECLIP  OA316699   1.111   5.138  11.176
    1ECLIP  C3116700   1.112   5.066  11.079
    1ECLIP  O3116701   1.104   5.085  10.959
    1ECLIP  C3216702   1.117   4.941  11.160
    1ECLIP H32R16703   1.061   4.866  11.104
    1ECLIP H32S16704   1.068   4.954  11.261
    1ECLIP  CA216705   1.198   5.349  11.091
    1ECLIP  HA216706   1.284   5.285  11.071
    1ECLIP  NA216707   1.138   5.377  10.951
    1ECLIP HNA216708   1.040   5.354  10.937
    1ECLIP  C7316709   1.934   5.569  11.166
    1ECLIP H73R16710   2.002   5.606  11.250
    1ECLIP  O7316711   1.804   5.612  11.184
    1ECLIP  C8116712   1.780   5.728  11.237
    1ECLIP  O8116713   1.854   5.800  11.302
    1ECLIP  C8216714   1.653   5.777  11.171
    1ECLIP H82R16715   1.620   5.868  11.223
    1ECLIP H82S16716   1.578   5.697  11.191
    1ECLIP  C8316717   1.662   5.799  11.017
    1ECLIP H83R16718   1.653   5.700  10.966
    1ECLIP H83S16719   1.761   5.842  10.990
    1ECLIP  C8416720   1.547   5.885  10.965
    1ECLIP H84R16721   1.559   5.991  10.996
    1ECLIP H84S16722   1.454   5.845  11.012
    1ECLIP  C8516723   1.528   5.874  10.813
    1ECLIP H85R16724   1.539   5.765  10.791
    1ECLIP H85S16725   1.610   5.927  10.760
    1ECLIP  C8616726   1.387   5.913  10.765
    1ECLIP H86R16727   1.382   6.020  10.736
    1ECLIP H86S16728   1.314   5.900  10.849
    1ECLIP  C8716729   1.335   5.822  10.652
    1ECLIP H87R16730   1.237   5.859  10.616
    1ECLIP H87S16731   1.316   5.720  10.694
    1ECLIP  C8816732   1.436   5.805  10.538
    1ECLIP H88R16733   1.516   5.736  10.571
    1ECLIP H88S16734   1.487   5.903  10.524
    1ECLIP  C8916735   1.374   5.752  10.408
    1ECLIP H89R16736   1.277   5.700  10.426
    1ECLIP H89S16737   1.441   5.676  10.362
    1ECLIP C81016738   1.358   5.866  10.306
    1ECLIPH810R16739   1.438   5.939  10.330
    1ECLIPH810S16740   1.259   5.914  10.323
    1ECLIP C81116741   1.372   5.822  10.160
    1ECLIPH811R16742   1.324   5.894  10.090
    1ECLIPH811S16743   1.321   5.724  10.155
    1ECLIP C81216744   1.514   5.794  10.110
    1ECLIPH812R16745   1.504   5.750  10.008
    1ECLIPH812S16746   1.563   5.721  10.177
    1ECLIP C81316747   1.606   5.916  10.101
    1ECLIPH813R16748   1.559   5.989  10.031
    1ECLIPH813S16749   1.616   5.967  10.199
    1ECLIP C81416750   1.746   5.880  10.051
    1ECLIPH814R16751   1.743   5.816   9.960
    1ECLIPH814S16752   1.802   5.825  10.129
    1ECLIPH814T16753   1.802   5.973  10.025
    1ECLIP  C7416754   1.966   5.641  11.032
    1ECLIP H74R16755   2.056   5.620  10.979
    1ECLIP H74S16756   1.959   5.749  11.051
    1ECLIP  C7516757   1.928   5.617  10.888
    1ECLIP H75R16758   1.958   5.715  10.841
    1ECLIP H75S16759   1.826   5.599  10.916
    1ECLIP  C7616760   1.996   5.505  10.808
    1ECLIP H76R16761   1.973   5.407  10.856
    1ECLIP H76S16762   2.107   5.514  10.791
    1ECLIP  C7716763   1.968   5.505  10.664
    1ECLIP H77R16764   2.026   5.592  10.625
    1ECLIP H77S16765   1.861   5.523  10.654
    1ECLIP  C7816766   2.003   5.367  10.611
    1ECLIP H78R16767   2.105   5.347  10.638
    1ECLIP H78S16768   1.947   5.291  10.669
    1ECLIP  C7916769   1.979   5.345  10.463
    1ECLIP H79R16770   1.880   5.299  10.452
    1ECLIP H79S16771   2.055   5.276  10.418
    1ECLIP C71016772   1.989   5.470  10.380
    1ECLIPH710R16773   1.927   5.553  10.421
    1ECLIPH710S16774   2.096   5.499  10.389
    1ECLIP C71116775   1.948   5.446  10.234
    1ECLIPH711R16776   2.021   5.375  10.189
    1ECLIPH711S16777   1.844   5.410  10.230
    1ECLIP C71216778   1.945   5.572  10.151
    1ECLIPH712R16779   2.053   5.577  10.128
    1ECLIPH712S16780   1.905   5.658  10.211
    1ECLIP C71316781   1.902   5.577  10.008
    1ECLIPH713R16782   1.794   5.553  10.011
    1ECLIPH713S16783   1.917   5.680   9.966
    1ECLIP C71416784   1.986   5.484   9.921
    1ECLIPH714R16785   2.093   5.516   9.916
    1ECLIPH714S16786   1.980   5.379   9.957
    1ECLIPH714T16787   1.945   5.491   9.819
    1ECLIP  C5116788   1.578   5.328  11.159
    1ECLIP  O5116789   1.578   5.448  11.143
    1ECLIP  C5216790   1.598   5.234  11.042
    1ECLIP H52R16791   1.707   5.213  11.029
    1ECLIP H52S16792   1.546   5.139  11.061
    1ECLIP  C5316793   1.544   5.298  10.912
    1ECLIP H53R16794   1.453   5.359  10.934
    1ECLIP  O5316795   1.521   5.189  10.821
    1ECLIP  C6116796   1.395   5.161  10.787
    1ECLIP  O6116797   1.298   5.224  10.815
    1ECLIP  C6216798   1.388   5.040  10.694
    1ECLIP H62R16799   1.391   4.949  10.758
    1ECLIP H62S16800   1.481   5.043  10.636
    1ECLIP  C6316801   1.259   5.041  10.607
    1ECLIP H63R16802   1.247   5.143  10.563
    1ECLIP H63S16803   1.168   5.020  10.669
    1ECLIP  C6416804   1.259   4.944  10.487
    1ECLIP H64R16805   1.160   4.948  10.435
    1ECLIP H64S16806   1.274   4.842  10.528
    1ECLIP  C6516807   1.371   4.980  10.390
    1ECLIP H65R16808   1.464   4.969  10.450
    1ECLIP H65S16809   1.363   5.087  10.358
    1ECLIP  C6616810   1.390   4.893  10.264
    1ECLIP H66R16811   1.404   4.787  10.292
    1ECLIP H66S16812   1.484   4.931  10.216
    1ECLIP  C6716813   1.282   4.899  10.157
    1ECLIP H67R16814   1.179   4.881  10.195
    1ECLIP H67S16815   1.302   4.825  10.075
    1ECLIP  C6816816   1.274   5.033  10.092
    1ECLIP H68R16817   1.367   5.077  10.049
    1ECLIP H68S16818   1.230   5.105  10.165
    1ECLIP  C6916819   1.192   5.009   9.972
    1ECLIP H69R16820   1.101   4.943   9.980
    1ECLIP H69S16821   1.255   4.974   9.887
    1ECLIP C61016822   1.155   5.139   9.926
    1ECLIPH610R16823   1.214   5.229   9.942
    1ECLIPH610S16824   1.079   5.163  10.004
    1ECLIP C61116825   1.118   5.102   9.782
    1ECLIPH611R16826   1.042   5.023   9.784
    1ECLIPH611S16827   1.094   5.198   9.731
    1ECLIP C61216828   1.192   5.107   9.664
    1ECLIPH612R16829   1.254   5.193   9.699
    1ECLIPH612S16830   1.257   5.025   9.675
    1ECLIPH612T16831   1.121   5.116   9.572
    1ECLIP  C5416832   1.654   5.390  10.853
    1ECLIP H54R16833   1.738   5.324  10.825
    1ECLIP H54S16834   1.688   5.457  10.934
    1ECLIP  C5516835   1.614   5.478  10.733
    1ECLIP H55R16836   1.688   5.559  10.719
    1ECLIP H55S16837   1.519   5.529  10.756
    1ECLIP  C5616838   1.610   5.392  10.605
    1ECLIP H56R16839   1.540   5.308  10.622
    1ECLIP H56S16840   1.710   5.348  10.587
    1ECLIP  C5716841   1.561   5.458  10.477
    1ECLIP H57R16842   1.617   5.551  10.454
    1ECLIP H57S16843   1.454   5.488  10.491
    1ECLIP  C5816844   1.569   5.357  10.360
    1ECLIP H58R16845   1.668   5.306  10.358
    1ECLIP H58S16846   1.495   5.277  10.382
    1ECLIP  C5916847   1.544   5.423  10.223
    1ECLIP H59R16848   1.617   5.506  10.208
    1ECLIP H59S16849   1.443   5.468  10.232
    1ECLIP C51016850   1.563   5.329  10.101
    1ECLIPH510R16851   1.513   5.231  10.119
    1ECLIPH510S16852   1.672   5.309  10.088
    1ECLIP C51116853   1.511   5.382   9.966
    1ECLIPH511R16854   1.401   5.372   9.964
    1ECLIPH511S16855   1.534   5.491   9.958
    1ECLIP C51216856   1.567   5.305   9.846
    1ECLIPH512R16857   1.540   5.358   9.751
    1ECLIPH512S16858   1.678   5.298   9.850
    1ECLIP C51316859   1.504   5.172   9.816
    1ECLIPH513R16860   1.397   5.190   9.802
    1ECLIPH513S16861   1.513   5.098   9.895
    1ECLIP C51416862   1.563   5.113   9.691
    1ECLIPH514R16863   1.672   5.106   9.684
    1ECLIPH514S16864   1.513   5.018   9.661
    1ECLIPH514T16865   1.550   5.192   9.617
    1ECLIP  C3316866   1.264   4.905  11.182
    1ECLIP H33R16867   1.263   4.803  11.225
    1ECLIP  O3316868   1.326   4.988  11.278
    1ECLIP HO3316869   1.293   4.974  11.368
    1ECLIP  C3416870   1.353   4.910  11.055
    1ECLIP H34R16871   1.358   5.015  11.018
    1ECLIP H34S16872   1.303   4.850  10.976
    1ECLIP  C3516873   1.496   4.858  11.079
    1ECLIP H35R16874   1.492   4.752  11.111
    1ECLIP H35S16875   1.541   4.918  11.162
    1ECLIP  C3616876   1.587   4.869  10.956
    1ECLIP H36R16877   1.549   4.958  10.903
    1ECLIP H36S16878   1.576   4.780  10.889
    1ECLIP  C3716879   1.735   4.894  10.989
    1ECLIP H37R16880   1.784   4.795  11.003
    1ECLIP H37S16881   1.743   4.949  11.085
    1ECLIP  C3816882   1.812   4.973  10.880
    1ECLIP H38R16883   1.785   5.081  10.879
    1ECLIP H38S16884   1.920   4.968  10.904
    1ECLIP  C3916885   1.785   4.919  10.739
    1ECLIP H39R16886   1.675   4.919  10.719
    1ECLIP H39S16887   1.824   4.815  10.734
    1ECLIP C31016888   1.851   4.995  10.624
    1ECLIPH310R16889   1.959   4.975  10.633
    1ECLIPH310S16890   1.834   5.105  10.632
    1ECLIP C31116891   1.789   4.956  10.488
    1ECLIPH311R16892   1.762   4.848  10.489
    1ECLIPH311S16893   1.695   5.014  10.473
    1ECLIP C31216894   1.877   4.988  10.366
    1ECLIPH312R16895   1.936   5.080  10.385
    1ECLIPH312S16896   1.948   4.903  10.354
    1ECLIP C31316897   1.796   5.002  10.237
    1ECLIPH313R16898   1.762   4.900  10.211
    1ECLIPH313S16899   1.706   5.065  10.254
    1ECLIP C31416900   1.875   5.059  10.118
    1ECLIPH314R16901   1.962   4.993  10.096
    1ECLIPH314S16902   1.812   5.065  10.027
    1ECLIPH314T16903   1.913   5.160  10.141
    1ECLIP  C1116904   1.156   5.481  10.866
    1ECLIP  O1116905   1.261   5.536  10.843
    1ECLIP  C1216906   1.039   5.529  10.793
    1ECLIP H12R16907   1.007   5.631  10.826
    1ECLIP H12S16908   0.951   5.469  10.821
    1ECLIP  C1316909   1.091   5.524  10.651
    1ECLIP H13R16910   1.185   5.559  10.615
    1ECLIP  O1316911   1.010   5.648  10.620
    1ECLIP HO1316912   0.969   5.659  10.532
    1ECLIP  C1416913   1.072   5.360  10.581
    1ECLIP H14R16914   1.000   5.285  10.623
    1ECLIP H14S16915   1.163   5.315  10.619
    1ECLIP  C1516916   1.060   5.306  10.428
    1ECLIP H15R16917   0.963   5.322  10.370
    1ECLIP H15S16918   1.057   5.200  10.423
    1ECLIP  C1616919   1.176   5.366  10.351
    1ECLIP H16R16920   1.253   5.289  10.365
    1ECLIP H16S16921   1.204   5.459  10.405
    1ECLIP  C1716922   1.153   5.399  10.204
    1ECLIP H17R16923   1.073   5.326  10.178
    1ECLIP H17S16924   1.236   5.380  10.136
    1ECLIP  C1816925   1.130   5.553  10.183
    1ECLIP H18R16926   1.063   5.543  10.264
    1ECLIP H18S16927   1.155   5.643  10.236
    1ECLIP  C1916928   1.076   5.609  10.051
    1ECLIP H19R16929   0.982   5.659  10.009
    1ECLIP H19S16930   1.021   5.533  10.015
    1ECLIP C11016931   1.164   5.592   9.967
    1ECLIPH110R16932   1.235   5.666  10.002
    1ECLIPH110S16933   1.197   5.481   9.964
    1ECLIP C11116934   1.078   5.641   9.848
    1ECLIPH111R16935   0.995   5.569   9.829
    1ECLIPH111S16936   1.031   5.738   9.838
    1ECLIP C11216937   1.181   5.674   9.770
    1ECLIPH112R16938   1.256   5.733   9.819
    1ECLIPH112S16939   1.206   5.556   9.793
    1ECLIP C11316940   1.172   5.745   9.609
    1ECLIPH113R16941   1.188   5.670   9.533
    1ECLIPH113S16942   1.067   5.756   9.615
    1ECLIP C11416943   1.229   5.713   9.457
    1ECLIPH114R16944   1.263   5.805   9.430
    1ECLIPH114S16945   1.296   5.613   9.416
    1ECLIPH114T16946   1.177   5.745   9.374
    2AKDO    C116947   1.689   5.241  11.979
    2AKDO   O1116948   1.814   5.243  11.976
    2AKDO   O1216949   1.616   5.144  11.944
    2AKDO    C216950   1.616   5.371  12.023
    2AKDO    C616951   1.648   5.588  12.123
    2AKDO    H616952   1.596   5.626  12.032
    2AKDO    O616953   1.710   5.465  12.082
    2AKDO    C316954   1.508   5.345  12.129
    2AKDO   H3116955   1.551   5.289  12.215
    2AKDO   H3216956   1.430   5.281  12.081
    2AKDO    C416957   1.443   5.472  12.173
    2AKDO    H416958   1.401   5.524  12.085
    2AKDO    O416959   1.345   5.447  12.274
    2AKDO    C516960   1.543   5.566  12.233
    2AKDO    H516961   1.492   5.665  12.246
    2AKDO    O516962   1.587   5.512  12.362
    2AKDO    C716963   1.751   5.693  12.154
    2AKDO    H716964   1.810   5.663  12.243
    2AKDO    O716965   1.686   5.820  12.174
    2AKDO   HO716966   1.689   5.858  12.086
    2AKDO    C816967   1.841   5.706  12.034
    2AKDO   H8116968   1.895   5.610  12.019
    2AKDO   H8216969   1.789   5.727  11.940
    2AKDO    O816970   1.929   5.815  12.051
    2AKDO   HO816971   2.010   5.768  12.023
    3AKDO    C116972   1.166   5.487  12.119
    3AKDO   O1116973   1.165   5.433  12.005
    3AKDO   O1216974   1.152   5.610  12.146
    3AKDO    C216975   1.216   5.403  12.239
    3AKDO    C616976   1.277   5.181  12.313
    3AKDO    H616977   1.381   5.210  12.330
    3AKDO    O616978   1.211   5.262  12.210
    3AKDO    C316979   1.146   5.425  12.375
    3AKDO   H3116980   1.046   5.386  12.380
    3AKDO   H3216981   1.138   5.534  12.398
    3AKDO    C416982   1.209   5.344  12.481
    3AKDO    H416983   1.314   5.372  12.489
    3AKDO    O416984   1.143   5.368  12.604
    3AKDO   HO416985   1.206   5.393  12.674
    3AKDO    C516986   1.209   5.197  12.443
    3AKDO    H516987   1.241   5.140  12.530
    3AKDO    O516988   1.099   5.125  12.412
    3AKDO   HO516989   1.040   5.197  12.380
    3AKDO    C716990   1.269   5.035  12.267
    3AKDO    H716991   1.164   5.003  12.241
    3AKDO    O716992   1.316   4.952  12.373
    3AKDO   HO716993   1.300   4.861  12.350
    3AKDO    C816994   1.350   5.020  12.146
    3AKDO   H8116995   1.315   5.093  12.069
    3AKDO   H8216996   1.456   5.043  12.167
    3AKDO    O816997   1.327   4.886  12.100
    3AKDO   HO816998   1.250   4.902  12.049
    4AHEP    C116999   1.622   5.606  12.462
    4AHEP    H117000   1.721   5.643  12.428
    4AHEP    C517001   1.413   5.702  12.536
    4AHEP    H517002   1.364   5.614  12.488
    4AHEP    O517003   1.538   5.723  12.467
    4AHEP    C217004   1.648   5.562  12.607
    4AHEP    H217005   1.707   5.468  12.605
    4AHEP    O217006   1.730   5.658  12.674
    4AHEP   HO217007   1.797   5.614  12.726
    4AHEP    C317008   1.521   5.534  12.686
    4AHEP    H317009   1.464   5.448  12.646
    4AHEP    O317010   1.555   5.509  12.824
    4AHEP    C417011   1.437   5.661  12.682
    4AHEP    H417012   1.488   5.747  12.733
    4AHEP    O417013   1.312   5.628  12.742
    4AHEP    P417014   1.263   5.697  12.885
    4AHEP  OP4217015   1.179   5.586  12.951
    4AHEP  OP4317016   1.185   5.821  12.840
    4AHEP  OP4417017   1.390   5.730  12.964
    4AHEP    C617018   1.322   5.827  12.516
    4AHEP    H617019   1.219   5.794  12.545
    4AHEP    O617020   1.353   5.944  12.597
    4AHEP   HO617021   1.288   5.951  12.669
    4AHEP    C717022   1.315   5.877  12.369
    4AHEP   H7117023   1.230   5.947  12.356
    4AHEP   H7217024   1.301   5.791  12.302
    4AHEP    O717025   1.427   5.951  12.318
    4AHEP   HO717026   1.432   6.027  12.378
    5AHEP    C117027   1.516   5.387  12.882
    5AHEP    H117028   1.424   5.351  12.832
    5AHEP    C517029   1.741   5.331  12.931
    5AHEP    H517030   1.768   5.433  12.896
    5AHEP    O517031   1.620   5.290  12.865
    5AHEP    C217032   1.489   5.403  13.033
    5AHEP    H217033   1.412   5.483  13.044
    5AHEP    O217034   1.433   5.281  13.087
    5AHEP   HO217035   1.341   5.299  13.095
    5AHEP    C317036   1.614   5.447  13.109
    5AHEP    H317037   1.647   5.545  13.067
    5AHEP    O317038   1.597   5.459  13.252
    5AHEP    C417039   1.720   5.343  13.082
    5AHEP    H417040   1.687   5.244  13.121
    5AHEP    O417041   1.842   5.387  13.142
    5AHEP    P417042   1.915   5.304  13.265
    5AHEP  OP4217043   2.025   5.397  13.314
    5AHEP  OP4317044   1.965   5.178  13.197
    5AHEP  OP4417045   1.803   5.282  13.366
    5AHEP    C617046   1.852   5.237  12.890
    5AHEP    H617047   1.942   5.272  12.938
    5AHEP    O617048   1.833   5.103  12.938
    5AHEP   HO617049   1.771   5.056  12.884
    5AHEP    C717050   1.882   5.241  12.742
    5AHEP   H7117051   1.993   5.234  12.729
    5AHEP   H7217052   1.853   5.338  12.697
    5AHEP    O717053   1.825   5.127  12.678
    6AHEP    C117054   1.704   5.156  12.614
    6AHEP    H117055   1.668   5.258  12.639
    6AHEP    C517056   1.770   5.021  12.431
    6AHEP    H517057   1.864   4.998  12.487
    6AHEP    O517058   1.723   5.150  12.474
    6AHEP    C217059   1.600   5.056  12.659
    6AHEP    H217060   1.592   5.064  12.770
    6AHEP    O217061   1.472   5.093  12.611
    6AHEP   HO217062   1.415   5.123  12.683
    6AHEP    C317063   1.645   4.915  12.620
    6AHEP    H317064   1.740   4.892  12.674
    6AHEP    O317065   1.549   4.815  12.657
    6AHEP   HO317066   1.569   4.761  12.734
    6AHEP    C417067   1.669   4.913  12.468
    6AHEP    H417068   1.572   4.931  12.416
    6AHEP    O417069   1.721   4.789  12.422
    6AHEP   HO417070   1.810   4.778  12.455
    6AHEP    C617071   1.814   5.018  12.285
    6AHEP    H617072   1.863   4.920  12.268
    6AHEP    O617073   1.703   5.020  12.195
    6AHEP   HO617074   1.710   5.097  12.136
    6AHEP    C717075   1.922   5.120  12.254
    6AHEP   H7117076   1.961   5.104  12.150
    6AHEP   H7217077   2.007   5.106  12.325
    6AHEP    O717078   1.875   5.253  12.267
    6AHEP   HO717079   1.889   5.283  12.357
    7AGLC    C117080   1.563   5.586  13.302
    7AGLC    H117081   1.623   5.665  13.252
    7AGLC    C517082   1.338   5.519  13.346
    7AGLC    H517083   1.366   5.415  13.318
    7AGLC    O517084   1.425   5.611  13.279
    7AGLC    C217085   1.582   5.603  13.453
    7AGLC    H217086   1.538   5.702  13.479
    7AGLC    O217087   1.719   5.612  13.491
    7AGLC   HO217088   1.753   5.521  13.494
    7AGLC    C317089   1.501   5.503  13.534
    7AGLC    H317090   1.528   5.401  13.497
    7AGLC    O317091   1.529   5.510  13.676
    7AGLC    C417092   1.355   5.531  13.497
    7AGLC    H417093   1.329   5.636  13.529
    7AGLC    O417094   1.268   5.436  13.559
    7AGLC   HO417095   1.197   5.482  13.607
    7AGLC    C617096   1.199   5.539  13.287
    7AGLC   H6117097   1.206   5.526  13.177
    7AGLC   H6217098   1.124   5.468  13.326
    7AGLC    O617099   1.149   5.670  13.309
    7AGLC   HO617100   1.098   5.677  13.389
    8AGLC    C117101   1.581   5.389  13.729
    8AGLC    H117102   1.523   5.303  13.687
    8AGLC    C517103   1.815   5.459  13.758
    8AGLC    H517104   1.786   5.561  13.725
    8AGLC    O517105   1.720   5.367  13.696
    8AGLC    C217106   1.568   5.379  13.880
    8AGLC    H217107   1.602   5.276  13.906
    8AGLC    O217108   1.435   5.391  13.930
    8AGLC    C317109   1.656   5.478  13.949
    8AGLC    H317110   1.626   5.579  13.909
    8AGLC    O317111   1.626   5.474  14.091
    8AGLC    C417112   1.799   5.449  13.910
    8AGLC    H417113   1.822   5.344  13.940
    8AGLC    O417114   1.890   5.534  13.979
    8AGLC   HO417115   1.856   5.624  13.975
    8AGLC    C617116   1.961   5.443  13.710
    8AGLC   H6117117   1.968   5.434  13.599
    8AGLC   H6217118   2.021   5.533  13.738
    8AGLC    O617119   2.027   5.331  13.770
    8AGLC   HO617120   2.063   5.357  13.855
    9AGAL    C117121   1.337   5.304  13.879
    9AGAL    H117122   1.338   5.303  13.768
    9AGAL    C517123   1.337   5.155  14.065
    9AGAL    H517124   1.404   5.231  14.112
    9AGAL    O517125   1.353   5.168  13.923
    9AGAL    C217126   1.202   5.360  13.920
    9AGAL    H217127   1.125   5.294  13.875
    9AGAL    O217128   1.192   5.489  13.855
    9AGAL    C317129   1.192   5.347  14.071
    9AGAL    H317130   1.271   5.404  14.121
    9AGAL    O317131   1.087   5.414  14.132
    9AGAL   HO317132   1.046   5.476  14.067
    9AGAL    C417133   1.200   5.198  14.108
    9AGAL    H417134   1.185   5.186  14.217
    9AGAL    O417135   1.111   5.110  14.039
    9AGAL   HO417136   1.074   5.045  14.100
    9AGAL    C617137   1.383   5.020  14.123
    9AGAL   H6117138   1.490   5.007  14.098
    9AGAL   H6217139   1.374   5.024  14.233
    9AGAL    O617140   1.314   4.902  14.083
    9AGAL   HO617141   1.352   4.871  14.001
   10AGAL    C117142   1.129   5.605  13.907
   10AGAL    H117143   1.021   5.585  13.901
   10AGAL    C517144   1.313   5.687  14.041
   10AGAL    H517145   1.366   5.598  14.001
   10AGAL    O517146   1.174   5.649  14.039
   10AGAL    C217147   1.148   5.720  13.810
   10AGAL    H217148   1.088   5.806  13.849
   10AGAL    O217149   1.092   5.695  13.681
   10AGAL   HO217150   1.029   5.768  13.665
   10AGAL    C317151   1.295   5.756  13.807
   10AGAL    H317152   1.350   5.663  13.781
   10AGAL    O317153   1.327   5.854  13.709
   10AGAL   HO317154   1.373   5.812  13.636
   10AGAL    C417155   1.338   5.800  13.944
   10AGAL    H417156   1.447   5.821  13.945
   10AGAL    O417157   1.270   5.918  13.986
   10AGAL   HO417158   1.177   5.894  13.998
   10AGAL    C617159   1.377   5.709  14.178
   10AGAL   H6117160   1.350   5.626  14.244
   10AGAL   H6217161   1.488   5.706  14.163
   10AGAL    O617162   1.349   5.832  14.246
   10AGAL   HO617163   1.295   5.813  14.324
   11BGLC    C117164   1.702   5.398  14.185
   11BGLC    H117165   1.800   5.447  14.198
   11BGLC    C517166   1.780   5.176  14.249
   11BGLC    H517167   1.882   5.214  14.273
   11BGLC    O517168   1.713   5.259  14.148
   11BGLC    C217169   1.622   5.408  14.315
   11BGLC    H217170   1.519   5.367  14.300
   11BGLC    O217171   1.608   5.545  14.354
   11BGLC   HO217172   1.514   5.562  14.366
   11BGLC    C317173   1.685   5.328  14.427
   11BGLC    H317174   1.785   5.370  14.453
   11BGLC    O317175   1.597   5.329  14.541
   11BGLC    C417176   1.696   5.185  14.378
   11BGLC    H417177   1.594   5.147  14.354
   11BGLC    O417178   1.746   5.102  14.481
   11BGLC   HO417179   1.679   5.090  14.551
   11BGLC    C617180   1.800   5.036  14.189
   11BGLC   H6117181   1.818   4.958  14.266
   11BGLC   H6217182   1.711   5.007  14.129
   11BGLC    O617183   1.911   5.030  14.100
   11BGLC   HO617184   1.983   4.973  14.131
   12BGLCN   C117185   1.646   5.368  14.668
   12BGLCN   H117186   1.644   5.479  14.675
   12BGLCN   C517187   1.825   5.365  14.825
   12BGLCN   H517188   1.824   5.476  14.833
   12BGLCN   O517189   1.778   5.323  14.695
   12BGLCN   C217190   1.552   5.308  14.772
   12BGLCN   H217191   1.568   5.196  14.767
   12BGLCN    N17192   1.417   5.344  14.742
   12BGLCN   HN17193   1.403   5.442  14.735
   12BGLCN    C17194   1.319   5.255  14.728
   12BGLCN    O17195   1.337   5.136  14.744
   12BGLCN   CT17196   1.182   5.307  14.691
   12BGLCN  HT117197   1.113   5.294  14.777
   12BGLCN  HT217198   1.139   5.246  14.608
   12BGLCN  HT317199   1.188   5.413  14.661
   12BGLCN   C317200   1.590   5.351  14.912
   12BGLCN   H317201   1.582   5.461  14.917
   12BGLCN   O317202   1.498   5.298  15.012
   12BGLCN   C417203   1.733   5.306  14.933
   12BGLCN   H417204   1.740   5.195  14.924
   12BGLCN   O417205   1.778   5.340  15.063
   12BGLCN  HO417206   1.797   5.435  15.066
   12BGLCN   C617207   1.969   5.319  14.830
   12BGLCN  H6117208   2.015   5.344  14.928
   12BGLCN  H6217209   1.973   5.209  14.819
   12BGLCN   O617210   2.045   5.378  14.725
   12BGLCN  HO617211   2.084   5.461  14.754
   13AGAL    C117212   1.465   5.387  15.120
   13AGAL    H117213   1.558   5.441  15.151
   13AGAL    C517214   1.233   5.410  15.063
   13AGAL    H517215   1.255   5.329  14.991
   13AGAL    O517216   1.359   5.478  15.083
   13AGAL    C217217   1.415   5.317  15.247
   13AGAL    H217218   1.386   5.400  15.316
   13AGAL    O217219   1.519   5.243  15.312
   13AGAL    C317220   1.285   5.241  15.226
   13AGAL    H317221   1.298   5.172  15.139
   13AGAL    O317222   1.248   5.161  15.337
   13AGAL   HO317223   1.214   5.075  15.308
   13AGAL    C417224   1.179   5.341  15.188
   13AGAL    H417225   1.087   5.285  15.159
   13AGAL    O417226   1.143   5.433  15.293
   13AGAL   HO417227   1.222   5.470  15.335
   13AGAL    C617228   1.126   5.490  14.991
   13AGAL   H6117229   1.168   5.530  14.897
   13AGAL   H6217230   1.041   5.421  14.967
   13AGAL    O617231   1.072   5.597  15.067
   13AGAL   HO617232   1.012   5.565  15.136
   14ARHM    C117233   1.564   5.291  15.437
   14ARHM    H117234   1.551   5.402  15.440
   14ARHM    C517235   1.734   5.127  15.451
   14ARHM    H517236   1.699   5.085  15.354
   14ARHM    O517237   1.704   5.267  15.454
   14ARHM    C217238   1.486   5.223  15.548
   14ARHM    H217239   1.378   5.242  15.530
   14ARHM    O217240   1.518   5.262  15.684
   14ARHM    C317241   1.514   5.075  15.541
   14ARHM    H317242   1.494   5.039  15.438
   14ARHM    O317243   1.429   4.998  15.626
   14ARHM   HO317244   1.452   5.016  15.716
   14ARHM    C417245   1.662   5.054  15.564
   14ARHM    H417246   1.699   5.106  15.655
   14ARHM    O417247   1.698   4.915  15.573
   14ARHM   HO417248   1.716   4.891  15.664
   14ARHM    C617249   1.887   5.113  15.461
   14ARHM   H6117250   1.939   5.184  15.394
   14ARHM   H6217251   1.917   5.129  15.566
   14ARHM   H6317252   1.920   5.011  15.431
   15ARHM    C117253   1.517   5.400  15.711
   15ARHM    H117254   1.448   5.452  15.640
   15ARHM    C517255   1.743   5.413  15.800
   15ARHM    H517256   1.769   5.306  15.782
   15ARHM    O517257   1.648   5.461  15.703
   15ARHM    C217258   1.459   5.420  15.850
   15ARHM    H217259   1.362   5.365  15.857
   15ARHM    O217260   1.437   5.561  15.864
   15ARHM    C317261   1.553   5.363  15.952
   15ARHM    H317262   1.570   5.261  15.923
   15ARHM    O317263   1.489   5.358  16.079
   15ARHM    C417264   1.686   5.435  15.940
   15ARHM    H417265   1.667   5.543  15.952
   15ARHM    O417266   1.781   5.396  16.038
   15ARHM   HO417267   1.852   5.462  16.035
   15ARHM    C617268   1.874   5.493  15.783
   15ARHM   H6117269   1.959   5.449  15.841
   15ARHM   H6217270   1.900   5.496  15.675
   15ARHM   H6317271   1.862   5.597  15.818
   16BMANN   C117272   1.386   5.612  15.985
   16BMANN   H117273   1.461   5.598  16.065
   16BMANN   C517274   1.235   5.594  16.158
   16BMANN   H517275   1.316   5.588  16.233
   16BMANN   O517276   1.273   5.543  16.031
   16BMANN   C217277   1.356   5.759  15.966
   16BMANN   H217278   1.454   5.806  15.939
   16BMANN    N17279   1.259   5.791  15.861
   16BMANN   HN17280   1.166   5.803  15.891
   16BMANN    C17281   1.291   5.818  15.734
   16BMANN    O17282   1.405   5.817  15.691
   16BMANN   CT17283   1.173   5.846  15.645
   16BMANN  HT117284   1.165   5.954  15.622
   16BMANN  HT217285   1.078   5.811  15.691
   16BMANN  HT317286   1.190   5.792  15.550
   16BMANN   C317287   1.312   5.815  16.100
   16BMANN   H317288   1.391   5.797  16.176
   16BMANN   O317289   1.294   5.954  16.089
   16BMANN  HO317290   1.334   6.001  16.165
   16BMANN   C417291   1.190   5.742  16.148
   16BMANN   H417292   1.108   5.758  16.074
   16BMANN   O417293   1.137   5.786  16.274
   16BMANN  HO417294   1.042   5.769  16.279
   16BMANN   C617295   1.137   5.504  16.221
   16BMANN  H6117296   1.108   5.523  16.326
   16BMANN  H6217297   1.079   5.562  16.155
   16BMANN   O617298   1.105   5.373  16.174
   16BMANN  HO617299   1.021   5.372  16.123
   17BGLCN   C117300   1.510   5.240  16.151
   17BGLCN   H117301   1.615   5.207  16.135
   17BGLCN   C517302   1.439   5.014  16.192
   17BGLCN   H517303   1.541   4.974  16.172
   17BGLCN   O517304   1.421   5.134  16.114
   17BGLCN   C217305   1.487   5.283  16.294
   17BGLCN   H217306   1.380   5.311  16.311
   17BGLCN    N17307   1.568   5.399  16.325
   17BGLCN   HN17308   1.652   5.407  16.273
   17BGLCN    C17309   1.543   5.492  16.418
   17BGLCN    O17310   1.439   5.500  16.482
   17BGLCN   CT17311   1.656   5.589  16.441
   17BGLCN  HT117312   1.639   5.686  16.391
   17BGLCN  HT217313   1.750   5.543  16.404
   17BGLCN  HT317314   1.668   5.608  16.549
   17BGLCN   C317315   1.519   5.161  16.379
   17BGLCN   H317316   1.620   5.129  16.345
   17BGLCN   O317317   1.527   5.199  16.519
   17BGLCN   C417318   1.421   5.051  16.340
   17BGLCN   H417319   1.316   5.089  16.351
   17BGLCN   O417320   1.438   4.934  16.422
   17BGLCN  HO417321   1.364   4.875  16.407
   17BGLCN   C617322   1.341   4.905  16.147
   17BGLCN  H6117323   1.388   4.805  16.153
   17BGLCN  H6217324   1.254   4.902  16.216
   17BGLCN   O617325   1.292   4.917  16.014
   17BGLCN  HO617326   1.365   4.930  15.953
   18AGAL    C117327   1.623   5.131  16.598
   18AGAL    H117328   1.586   5.028  16.618
   18AGAL    C517329   1.814   5.252  16.521
   18AGAL    H517330   1.740   5.321  16.476
   18AGAL    O517331   1.751   5.123  16.535
   18AGAL    C217332   1.650   5.197  16.733
   18AGAL    H217333   1.730   5.132  16.776
   18AGAL    O217334   1.539   5.186  16.823
   18AGAL    C317335   1.711   5.336  16.721
   18AGAL    H317336   1.646   5.397  16.653
   18AGAL    O317337   1.717   5.406  16.845
   18AGAL   HO317338   1.688   5.498  16.835
   18AGAL    C417339   1.846   5.321  16.653
   18AGAL    H417340   1.890   5.421  16.630
   18AGAL    O417341   1.939   5.250  16.733
   18AGAL   HO417342   1.966   5.305  16.807
   18AGAL    C617343   1.918   5.246  16.413
   18AGAL   H6117344   1.864   5.220  16.319
   18AGAL   H6217345   1.963   5.347  16.400
   18AGAL    O617346   2.018   5.148  16.435
   18AGAL   HO617347   1.991   5.090  16.507
   19ARHM    C117348   1.584   5.154  16.952
   19ARHM    H117349   1.687   5.193  16.971
   19ARHM    C517350   1.469   4.947  16.961
   19ARHM    H517351   1.433   4.970  16.858
   19ARHM    O517352   1.594   5.013  16.977
   19ARHM    C217353   1.485   5.214  17.048
   19ARHM    H217354   1.468   5.322  17.023
   19ARHM    O217355   1.534   5.207  17.182
   19ARHM    C317356   1.352   5.145  17.032
   19ARHM    H317357   1.317   5.155  16.927
   19ARHM    O317358   1.255   5.208  17.114
   19ARHM   HO317359   1.289   5.212  17.204
   19ARHM    C417360   1.367   4.998  17.061
   19ARHM    H417361   1.405   4.986  17.165
   19ARHM    O417362   1.246   4.926  17.050
   19ARHM   HO417363   1.213   4.933  16.960
   19ARHM    C617364   1.492   4.795  16.964
   19ARHM   H6117365   1.564   4.773  16.884
   19ARHM   H6217366   1.532   4.759  17.061
   19ARHM   H6317367   1.397   4.740  16.944
   20ARHM    C117368   1.638   5.298  17.206
   20ARHM    H117369   1.648   5.372  17.123
   20ARHM    C517370   1.773   5.150  17.331
   20ARHM    H517371   1.695   5.071  17.317
   20ARHM    O517372   1.767   5.237  17.220
   20ARHM    C217373   1.601   5.373  17.331
   20ARHM    H217374   1.496   5.410  17.321
   20ARHM    O217375   1.691   5.482  17.353
   20ARHM    C317376   1.605   5.283  17.449
   20ARHM    H317377   1.534   5.198  17.432
   20ARHM    O317378   1.566   5.358  17.563
   20ARHM    C417379   1.744   5.227  17.459
   20ARHM    H417380   1.823   5.306  17.469
   20ARHM    O417381   1.751   5.143  17.572
   20ARHM   HO417382   1.823   5.081  17.553
   20ARHM    C617383   1.910   5.081  17.325
   20ARHM   H6117384   1.996   5.149  17.343
   20ARHM   H6217385   1.910   5.003  17.400
   20ARHM   H6317386   1.926   5.028  17.230
   21BMANN   C117387   1.650   5.592  17.278
   21BMANN   H117388   1.568   5.562  17.209
   21BMANN   C517389   1.690   5.741  17.101
   21BMANN   H517390   1.603   5.701  17.045
   21BMANN   O517391   1.748   5.639  17.187
   21BMANN   C217392   1.603   5.701  17.372
   21BMANN   H217393   1.518   5.656  17.429
   21BMANN    N17394   1.705   5.747  17.467
   21BMANN   HN17395   1.793   5.765  17.427
   21BMANN    C17396   1.681   5.781  17.595
   21BMANN    O17397   1.568   5.790  17.640
   21BMANN   CT17398   1.801   5.809  17.685
   21BMANN  HT117399   1.841   5.910  17.665
   21BMANN  HT217400   1.877   5.731  17.668
   21BMANN  HT317401   1.770   5.806  17.791
   21BMANN   C317402   1.544   5.809  17.283
   21BMANN   H317403   1.459   5.761  17.231
   21BMANN   O317404   1.491   5.915  17.360
   21BMANN  HO317405   1.564   5.951  17.412
   21BMANN   C417406   1.645   5.858  17.181
   21BMANN   H417407   1.738   5.896  17.223
   21BMANN   O417408   1.598   5.958  17.092
   21BMANN  HO417409   1.643   6.040  17.115
   21BMANN   C617410   1.789   5.785  17.000
   21BMANN  H6117411   1.743   5.847  16.922
   21BMANN  H6217412   1.870   5.843  17.049
   21BMANN   O617413   1.836   5.671  16.936
   21BMANN  HO617414   1.901   5.637  17.001
   22BGLCN   C117415   1.492   5.290  17.661
   22BGLCN   H117416   1.514   5.181  17.660
   22BGLCN   C517417   1.280   5.247  17.751
   22BGLCN   H517418   1.309   5.140  17.753
   22BGLCN   O517419   1.353   5.310  17.645
   22BGLCN   C217420   1.534   5.351  17.791
   22BGLCN   H217421   1.509   5.460  17.786
   22BGLCN    N17422   1.676   5.334  17.809
   22BGLCN   HN17423   1.715   5.250  17.774
   22BGLCN    C17424   1.755   5.421  17.871
   22BGLCN    O17425   1.717   5.524  17.923
   22BGLCN   CT17426   1.899   5.380  17.875
   22BGLCN  HT117427   1.949   5.430  17.789
   22BGLCN  HT217428   1.907   5.271  17.863
   22BGLCN  HT317429   1.945   5.410  17.972
   22BGLCN   C317430   1.459   5.285  17.906
   22BGLCN   H317431   1.477   5.175  17.902
   22BGLCN   O317432   1.514   5.339  18.027
   22BGLCN   C417433   1.313   5.306  17.885
   22BGLCN   H417434   1.292   5.413  17.881
   22BGLCN   O417435   1.232   5.253  17.989
   22BGLCN  HO417436   1.157   5.311  18.003
   22BGLCN   C617437   1.138   5.255  17.714
   22BGLCN  H6117438   1.073   5.236  17.802
   22BGLCN  H6217439   1.109   5.357  17.676
   22BGLCN   O617440   1.123   5.148  17.619
   22BGLCN  HO617441   1.138   5.178  17.529
   23AGAL    C117442   1.494   5.270  18.147
   23AGAL    H117443   1.389   5.284  18.182
   23AGAL    C517444   1.656   5.098  18.110
   23AGAL    H517445   1.687   5.154  18.018
   23AGAL    O517446   1.518   5.129  18.136
   23AGAL    C217447   1.582   5.328  18.255
   23AGAL    H217448   1.558   5.270  18.348
   23AGAL    O217449   1.552   5.467  18.279
   23AGAL    C317450   1.728   5.298  18.225
   23AGAL    H317451   1.751   5.336  18.123
   23AGAL    O317452   1.818   5.366  18.311
   23AGAL   HO317453   1.784   5.358  18.400
   23AGAL    C417454   1.748   5.147  18.222
   23AGAL    H417455   1.853   5.120  18.198
   23AGAL    O417456   1.717   5.084  18.346
   23AGAL   HO417457   1.681   4.997  18.322
   23AGAL    C617458   1.665   4.952  18.072
   23AGAL   H6117459   1.584   4.931  17.998
   23AGAL   H6217460   1.760   4.932  18.018
   23AGAL    O617461   1.653   4.863  18.183
   23AGAL   HO617462   1.641   4.773  18.149
   24ARHM    C117463   1.445   5.500  18.365
   24ARHM    H117464   1.378   5.411  18.375
   24ARHM    C517465   1.433   5.731  18.300
   24ARHM    H517466   1.518   5.710  18.231
   24ARHM    O517467   1.360   5.607  18.318
   24ARHM    C217468   1.507   5.538  18.496
   24ARHM    H217469   1.578   5.457  18.529
   24ARHM    O217470   1.406   5.560  18.596
   24ARHM    C317471   1.586   5.665  18.479
   24ARHM    H317472   1.663   5.646  18.400
   24ARHM    O317473   1.659   5.694  18.599
   24ARHM   HO317474   1.605   5.750  18.655
   24ARHM    C417475   1.492   5.776  18.433
   24ARHM    H417476   1.410   5.788  18.507
   24ARHM    O417477   1.556   5.902  18.419
   24ARHM   HO417478   1.500   5.976  18.444
   24ARHM    C617479   1.343   5.837  18.232
   24ARHM   H6117480   1.407   5.909  18.178
   24ARHM   H6217481   1.278   5.789  18.157
   24ARHM   H6317482   1.280   5.892  18.304
   25ARHM    C117483   1.351   5.444  18.650
   25ARHM    H117484   1.370   5.359  18.582
   25ARHM    C517485   1.171   5.548  18.758
   25ARHM    H517486   1.200   5.650  18.722
   25ARHM    O517487   1.209   5.449  18.664
   25ARHM    C217488   1.416   5.417  18.782
   25ARHM    H217489   1.527   5.427  18.772
   25ARHM    O217490   1.383   5.285  18.826
   25ARHM    C317491   1.374   5.521  18.881
   25ARHM    H317492   1.403   5.624  18.844
   25ARHM    O317493   1.434   5.491  19.007
   25ARHM    C417494   1.228   5.521  18.894
   25ARHM    H417495   1.189   5.421  18.926
   25ARHM    O417496   1.191   5.620  18.989
   25ARHM   HO417497   1.112   5.590  19.036
   25ARHM    C617498   1.024   5.545  18.772
   25ARHM   H6117499   0.974   5.550  18.678
   25ARHM   H6217500   0.980   5.452  18.809
   25ARHM   H6317501   0.995   5.634  18.834
   26BMANN   C117502   1.457   5.184  18.764
   26BMANN   H117503   1.552   5.223  18.722
   26BMANN   C517504   1.470   5.017  18.595
   26BMANN   H517505   1.560   5.067  18.554
   26BMANN   O517506   1.388   5.117  18.658
   26BMANN   C217507   1.490   5.085  18.871
   26BMANN   H217508   1.548   5.142  18.949
   26BMANN    N17509   1.368   5.027  18.929
   26BMANN   HN17510   1.304   4.987  18.863
   26BMANN    C17511   1.340   5.024  19.060
   26BMANN    O17512   1.409   5.085  19.140
   26BMANN   CT17513   1.221   4.941  19.103
   26BMANN  HT117514   1.148   4.932  19.021
   26BMANN  HT217515   1.173   4.975  19.197
   26BMANN  HT317516   1.255   4.841  19.131
   26BMANN   C317517   1.584   4.983  18.810
   26BMANN   H317518   1.674   5.036  18.768
   26BMANN   O317519   1.635   4.895  18.908
   26BMANN  HO317520   1.698   4.941  18.964
   26BMANN   C417521   1.513   4.912  18.697
   26BMANN   H417522   1.422   4.862  18.735
   26BMANN   O417523   1.596   4.813  18.635
   26BMANN  HO417524   1.596   4.737  18.695
   26BMANN   C617525   1.391   4.962  18.476
   26BMANN  H6117526   1.335   5.046  18.428
   26BMANN  H6217527   1.459   4.920  18.400
   26BMANN   O617528   1.298   4.860  18.512
   26BMANN  HO617529   1.348   4.786  18.546
   27BGLCN   C117530   1.480   5.599  19.083
   27BGLCN   H117531   1.413   5.688  19.079
   27BGLCN   C517532   1.662   5.740  19.127
   27BGLCN   H517533   1.589   5.825  19.130
   27BGLCN   O517534   1.611   5.637  19.042
   27BGLCN   C217535   1.485   5.540  19.223
   27BGLCN   H217536   1.559   5.456  19.220
   27BGLCN    N17537   1.355   5.488  19.266
   27BGLCN   HN17538   1.276   5.544  19.242
   27BGLCN    C17539   1.347   5.370  19.332
   27BGLCN    O17540   1.444   5.320  19.387
   27BGLCN   CT17541   1.213   5.301  19.336
   27BGLCN  HT117542   1.141   5.353  19.271
   27BGLCN  HT217543   1.172   5.297  19.438
   27BGLCN  HT317544   1.226   5.196  19.303
   27BGLCN   C317545   1.539   5.642  19.318
   27BGLCN   H317546   1.472   5.732  19.313
   27BGLCN   O317547   1.532   5.580  19.449
   27BGLCN   C417548   1.675   5.686  19.270
   27BGLCN   H417549   1.746   5.599  19.269
   27BGLCN   O417550   1.731   5.784  19.354
   27BGLCN  HO417551   1.680   5.865  19.345
   27BGLCN   C617552   1.789   5.794  19.065
   27BGLCN  H6117553   1.814   5.885  19.119
   27BGLCN  H6217554   1.872   5.722  19.079
   27BGLCN   O617555   1.774   5.832  18.928
   27BGLCN  HO617556   1.858   5.855  18.888
   28AGAL    C117557   1.540   5.664  19.560
   28AGAL    H117558   1.644   5.702  19.569
   28AGAL    C517559   1.313   5.742  19.548
   28AGAL    H517560   1.293   5.655  19.480
   28AGAL    O517561   1.453   5.778  19.539
   28AGAL    C217562   1.508   5.601  19.698
   28AGAL    H217563   1.523   5.688  19.766
   28AGAL    O217564   1.593   5.497  19.748
   28AGAL    C317565   1.363   5.560  19.706
   28AGAL    H317566   1.340   5.491  19.621
   28AGAL    O317567   1.320   5.492  19.824
   28AGAL   HO317568   1.292   5.403  19.798
   28AGAL    C417569   1.285   5.686  19.686
   28AGAL    H417570   1.183   5.656  19.689
   28AGAL    O417571   1.303   5.782  19.790
   28AGAL   HO417572   1.220   5.784  19.840
   28AGAL    C617573   1.218   5.852  19.501
   28AGAL   H6117574   1.237   5.867  19.392
   28AGAL   H6217575   1.111   5.824  19.513
   28AGAL    O617576   1.233   5.979  19.565
   28AGAL   HO617577   1.314   6.018  19.533
   29ARHM    C117578   1.617   5.516  19.886
   29ARHM    H117579   1.534   5.572  19.933
   29ARHM    C517580   1.851   5.522  19.851
   29ARHM    H517581   1.830   5.504  19.742
   29ARHM    O517582   1.738   5.589  19.908
   29ARHM    C217583   1.626   5.383  19.953
   29ARHM    H217584   1.534   5.325  19.928
   29ARHM    O217585   1.639   5.399  20.097
   29ARHM    C317586   1.744   5.307  19.897
   29ARHM    H317587   1.729   5.292  19.787
   29ARHM    O317588   1.749   5.179  19.958
   29ARHM   HO317589   1.841   5.150  19.955
   29ARHM    C417590   1.871   5.387  19.917
   29ARHM    H417591   1.888   5.402  20.026
   29ARHM    O417592   1.989   5.322  19.868
   29ARHM   HO417593   1.977   5.277  19.784
   29ARHM    C617594   1.964   5.625  19.858
   29ARHM   H6117595   1.925   5.720  19.813
   29ARHM   H6217596   1.993   5.646  19.963
   29ARHM   H6317597   2.052   5.592  19.800
   30ARHM    C117598   1.520   5.389  20.173
   30ARHM    H117599   1.470   5.292  20.152
   30ARHM    C517600   1.482   5.625  20.186
   30ARHM    H517601   1.576   5.636  20.127
   30ARHM    O517602   1.427   5.497  20.152
   30ARHM    C217603   1.560   5.393  20.318
   30ARHM    H217604   1.635   5.315  20.339
   30ARHM    O217605   1.441   5.376  20.396
   30ARHM    C317606   1.619   5.526  20.358
   30ARHM    H317607   1.704   5.544  20.288
   30ARHM    O317608   1.676   5.520  20.490
   30ARHM    C417609   1.517   5.633  20.332
   30ARHM    H417610   1.425   5.616  20.392
   30ARHM    O417611   1.558   5.764  20.368
   30ARHM   HO417612   1.620   5.802  20.305
   30ARHM    C617613   1.385   5.736  20.142
   30ARHM   H6117614   1.434   5.835  20.158
   30ARHM   H6217615   1.366   5.727  20.033
   30ARHM   H6317616   1.290   5.731  20.198
   31BMANN   C117617   1.408   5.246  20.428
   31BMANN   H117618   1.497   5.193  20.461
   31BMANN   C517619   1.299   5.045  20.357
   31BMANN   H517620   1.393   4.995  20.387
   31BMANN   O517621   1.335   5.180  20.323
   31BMANN   C217622   1.322   5.256  20.548
   31BMANN   H217623   1.388   5.294  20.629
   31BMANN    N17624   1.224   5.360  20.535
   31BMANN   HN17625   1.191   5.368  20.439
   31BMANN    C17626   1.176   5.431  20.646
   31BMANN    O17627   1.202   5.390  20.756
   31BMANN   CT17628   1.089   5.561  20.638
   31BMANN  HT117629   1.082   5.534  20.541
   31BMANN  HT217630   1.093   5.639  20.561
   31BMANN  HT317631   0.985   5.546  20.675
   31BMANN   C317632   1.282   5.115  20.587
   31BMANN   H317633   1.375   5.055  20.603
   31BMANN   O317634   1.221   5.114  20.713
   31BMANN  HO317635   1.231   5.204  20.748
   31BMANN   C417636   1.206   5.046  20.476
   31BMANN   H417637   1.114   5.103  20.449
   31BMANN   O417638   1.168   4.912  20.508
   31BMANN  HO417639   1.237   4.871  20.561
   31BMANN   C617640   1.239   4.966  20.242
   31BMANN  H6117641   1.234   4.858  20.269
   31BMANN  H6217642   1.135   4.999  20.225
   31BMANN   O617643   1.311   4.980  20.120
   31BMANN  HO617644   1.398   4.940  20.119
   32BGLCN   C117645   1.587   5.540  20.598
   32BGLCN   H117646   1.491   5.490  20.577
   32BGLCN   C517647   1.461   5.694  20.729
   32BGLCN   H517648   1.369   5.639  20.695
   32BGLCN   O517649   1.560   5.677  20.626
   32BGLCN   C217650   1.646   5.476  20.722
   32BGLCN   H217651   1.734   5.540  20.751
   32BGLCN    N17652   1.692   5.342  20.693
   32BGLCN   HN17653   1.636   5.299  20.625
   32BGLCN    C17654   1.800   5.281  20.745
   32BGLCN    O17655   1.872   5.333  20.829
   32BGLCN   CT17656   1.822   5.141  20.691
   32BGLCN  HT117657   1.763   5.132  20.597
   32BGLCN  HT217658   1.790   5.062  20.761
   32BGLCN  HT317659   1.930   5.125  20.668
   32BGLCN   C317660   1.540   5.483  20.829
   32BGLCN   H317661   1.448   5.439  20.784
   32BGLCN   O317662   1.572   5.405  20.946
   32BGLCN   C417663   1.512   5.629  20.857
   32BGLCN   H417664   1.608   5.678  20.887
   32BGLCN   O417665   1.419   5.647  20.962
   32BGLCN  HO417666   1.464   5.656  21.046
   32BGLCN   C617667   1.420   5.840  20.741
   32BGLCN  H6117668   1.333   5.852  20.808
   32BGLCN  H6217669   1.504   5.898  20.786
   32BGLCN   O617670   1.385   5.895  20.613
   32BGLCN  HO617671   1.339   5.828  20.563
   33AGAL    C117672   1.459   5.341  21.004
   33AGAL    H117673   1.369   5.407  20.997
   33AGAL    C517674   1.534   5.119  20.957
   33AGAL    H517675   1.624   5.172  20.920
   33AGAL    O517676   1.428   5.215  20.942
   33AGAL    C217677   1.487   5.314  21.151
   33AGAL    H217678   1.400   5.257  21.189
   33AGAL    O217679   1.489   5.439  21.223
   33AGAL    C317680   1.605   5.218  21.167
   33AGAL    H317681   1.693   5.257  21.109
   33AGAL    O317682   1.655   5.210  21.300
   33AGAL   HO317683   1.587   5.180  21.361
   33AGAL    C417684   1.566   5.084  21.102
   33AGAL    H417685   1.655   5.016  21.104
   33AGAL    O417686   1.459   5.012  21.162
   33AGAL   HO417687   1.409   5.062  21.228
   33AGAL    C617688   1.516   5.000  20.863
   33AGAL   H6117689   1.520   5.042  20.760
   33AGAL   H6217690   1.602   4.930  20.874
   33AGAL    O617691   1.397   4.921  20.875
   33AGAL   HO617692   1.323   4.962  20.827
   34ARHM    C117693   1.411   5.439  21.341
   34ARHM    H117694   1.437   5.349  21.401
   34ARHM    C517695   1.214   5.544  21.243
   34ARHM    H517696   1.261   5.541  21.142
   34ARHM    O517697   1.266   5.434  21.320
   34ARHM    C217698   1.448   5.565  21.417
   34ARHM    H217699   1.559   5.573  21.422
   34ARHM    O217700   1.396   5.568  21.553
   34ARHM    C317701   1.398   5.684  21.337
   34ARHM    H317702   1.445   5.683  21.235
   34ARHM    O317703   1.433   5.807  21.400
   34ARHM   HO317704   1.452   5.875  21.334
   34ARHM    C417705   1.248   5.673  21.316
   34ARHM    H417706   1.197   5.668  21.415
   34ARHM    O417707   1.197   5.787  21.246
   34ARHM   HO417708   1.196   5.864  21.305
   34ARHM    C617709   1.060   5.532  21.221
   34ARHM   H6117710   1.002   5.529  21.315
   34ARHM   H6217711   1.025   5.624  21.169
   34ARHM   H6317712   1.032   5.447  21.155
   35ARHM    C117713   1.433   5.465  21.642
   35ARHM    H117714   1.539   5.433  21.624
   35ARHM    C517715   1.208   5.387  21.657
   35ARHM    H517716   1.172   5.466  21.587
   35ARHM    O517717   1.344   5.352  21.630
   35ARHM    C217718   1.424   5.513  21.787
   35ARHM    H217719   1.492   5.601  21.802
   35ARHM    O217720   1.460   5.407  21.879
   35ARHM    C317721   1.283   5.558  21.820
   35ARHM    H317722   1.254   5.639  21.749
   35ARHM    O317723   1.277   5.615  21.951
   35ARHM   HO317724   1.331   5.564  22.012
   35ARHM    C417725   1.191   5.438  21.801
   35ARHM    H417726   1.218   5.355  21.870
   35ARHM    O417727   1.054   5.475  21.828
   35ARHM   HO417728   1.037   5.564  21.798
   35ARHM    C617729   1.123   5.264  21.621
   35ARHM   H6117730   1.121   5.240  21.513
   35ARHM   H6217731   1.154   5.175  21.679
   35ARHM   H6317732   1.021   5.291  21.648
   36BMANN   C117733   1.596   5.378  21.884
   36BMANN   H117734   1.647   5.465  21.846
   36BMANN   C517735   1.780   5.248  21.808
   36BMANN   H517736   1.832   5.340  21.776
   36BMANN   O517737   1.637   5.267  21.803
   36BMANN   C217738   1.632   5.348  22.030
   36BMANN   H217739   1.606   5.442  22.085
   36BMANN    N17740   1.557   5.238  22.087
   36BMANN   HN17741   1.536   5.163  22.025
   36BMANN    C17742   1.527   5.231  22.219
   36BMANN    O17743   1.550   5.323  22.296
   36BMANN   CT17744   1.468   5.102  22.270
   36BMANN  HT117745   1.520   5.016  22.224
   36BMANN  HT217746   1.360   5.097  22.250
   36BMANN  HT317747   1.482   5.098  22.381
   36BMANN   C317748   1.782   5.327  22.042
   36BMANN   H317749   1.836   5.417  22.010
   36BMANN   O317750   1.826   5.306  22.176
   36BMANN  HO317751   1.883   5.377  22.204
   36BMANN   C417752   1.823   5.215  21.950
   36BMANN   H417753   1.776   5.120  21.982
   36BMANN   O417754   1.964   5.200  21.959
   36BMANN  HO417755   1.978   5.176  22.052
   36BMANN   C617756   1.826   5.145  21.709
   36BMANN  H6117757   1.793   5.173  21.606
   36BMANN  H6217758   1.938   5.145  21.707
   36BMANN   O617759   1.779   5.015  21.748
   36BMANN  HO617760   1.850   4.970  21.796
    1ECLIP HB6S17761   5.311   1.089  11.779
    1ECLIP  OB617762   5.245   0.943  11.909
    1ECLIP  CB617763   5.338   0.985  11.806
    1ECLIP HB6R17764   5.442   0.986  11.846
    1ECLIP  CB517765   5.339   0.900  11.680
    1ECLIP  OB517766   5.203   0.898  11.632
    1ECLIP  HB517767   5.372   0.798  11.710
    1ECLIP  CB117768   5.189   0.817  11.515
    1ECLIP  HB117769   5.223   0.712  11.533
    1ECLIP  OA617770   5.056   0.809  11.469
    1ECLIP  CA617771   4.976   0.926  11.493
    1ECLIP HA6R17772   5.037   1.017  11.512
    1ECLIP HA6S17773   4.910   0.906  11.581
    1ECLIP  CB417774   5.434   0.953  11.569
    1ECLIP  HB417775   5.408   1.058  11.541
    1ECLIP  OB417776   5.568   0.939  11.618
    1ECLIP   PB17777   5.656   1.072  11.665
    1ECLIP OPB417778   5.743   1.028  11.784
    1ECLIP OPB317779   5.550   1.173  11.705
    1ECLIP OPB217780   5.737   1.112  11.542
    1ECLIP  CB317781   5.417   0.867  11.445
    1ECLIP  OB317782   5.491   0.912  11.331
    1ECLIP  HB317783   5.439   0.760  11.470
    1ECLIP  C7117784   5.615   0.870  11.313
    1ECLIP  O7117785   5.659   0.767  11.362
    1ECLIP  C7217786   5.662   0.921  11.174
    1ECLIP H72R17787   5.589   0.891  11.096
    1ECLIP H72S17788   5.761   0.877  11.153
    1ECLIP  CB217789   5.272   0.872  11.403
    1ECLIP  HB217790   5.243   0.980  11.388
    1ECLIP  NB217791   5.251   0.793  11.282
    1ECLIP HNB217792   5.229   0.697  11.294
    1ECLIP  CA417793   4.831   0.828  11.317
    1ECLIP  HA417794   4.914   0.759  11.290
    1ECLIP  OA417795   4.752   0.768  11.417
    1ECLIP HOA417796   4.796   0.760  11.502
    1ECLIP  CA517797   4.890   0.953  11.371
    1ECLIP  HA517798   4.814   1.031  11.394
    1ECLIP  OA517799   4.978   1.001  11.270
    1ECLIP  CA117800   4.911   1.035  11.146
    1ECLIP  HA117801   4.997   1.053  11.078
    1ECLIP  OA117802   4.830   1.151  11.150
    1ECLIP OPA217803   4.820   1.310  11.337
    1ECLIP OPA317804   5.045   1.274  11.220
    1ECLIP OPA417805   4.857   1.398  11.100
    1ECLIP   PA17806   4.894   1.293  11.205
    1ECLIP  CA317807   4.753   0.852  11.191
    1ECLIP  HA317808   4.663   0.916  11.210
    1ECLIP  OA317809   4.717   0.716  11.167
    1ECLIP  C3117810   4.797   0.637  11.094
    1ECLIP  O3117811   4.795   0.638  10.972
    1ECLIP  C3217812   4.811   0.503  11.166
    1ECLIP H32R17813   4.759   0.425  11.105
    1ECLIP H32S17814   4.760   0.515  11.264
    1ECLIP  CA217815   4.847   0.912  11.087
    1ECLIP  HA217816   4.930   0.841  11.070
    1ECLIP  NA217817   4.779   0.940  10.959
    1ECLIP HNA217818   4.688   0.902  10.949
    1ECLIP  C7317819   5.668   1.076  11.173
    1ECLIP H73R17820   5.724   1.108  11.264
    1ECLIP  O7317821   5.534   1.124  11.168
    1ECLIP  C8117822   5.503   1.235  11.234
    1ECLIP  O8117823   5.585   1.311  11.285
    1ECLIP  C8217824   5.372   1.288  11.171
    1ECLIP H82R17825   5.342   1.380  11.224
    1ECLIP H82S17826   5.292   1.214  11.192
    1ECLIP  C8317827   5.378   1.312  11.018
    1ECLIP H83R17828   5.363   1.214  10.966
    1ECLIP H83S17829   5.478   1.350  10.989
    1ECLIP  C8417830   5.266   1.404  10.965
    1ECLIP H84R17831   5.284   1.509  10.996
    1ECLIP H84S17832   5.171   1.369  11.013
    1ECLIP  C8517833   5.247   1.394  10.813
    1ECLIP H85R17834   5.253   1.286  10.791
    1ECLIP H85S17835   5.331   1.443  10.760
    1ECLIP  C8617836   5.108   1.441  10.765
    1ECLIP H86R17837   5.109   1.548  10.736
    1ECLIP H86S17838   5.035   1.432  10.849
    1ECLIP  C8717839   5.051   1.352  10.652
    1ECLIP H87R17840   4.955   1.395  10.616
    1ECLIP H87S17841   5.027   1.252  10.694
    1ECLIP  C8817842   5.151   1.331  10.538
    1ECLIP H88R17843   5.228   1.258  10.571
    1ECLIP H88S17844   5.207   1.426  10.524
    1ECLIP  C8917845   5.086   1.281  10.408
    1ECLIP H89R17846   4.987   1.234  10.426
    1ECLIP H89S17847   5.149   1.202  10.362
    1ECLIP C81017848   5.076   1.395  10.306
    1ECLIPH810R17849   5.160   1.465  10.329
    1ECLIPH810S17850   4.980   1.448  10.323
    1ECLIP C81117851   5.086   1.349  10.160
    1ECLIPH811R17852   5.044   1.425  10.090
    1ECLIPH811S17853   5.027   1.255  10.152
    1ECLIP C81217854   5.227   1.314  10.110
    1ECLIPH812R17855   5.216   1.271  10.008
    1ECLIPH812S17856   5.274   1.240  10.177
    1ECLIP C81317857   5.322   1.431  10.101
    1ECLIPH813R17858   5.283   1.506  10.030
    1ECLIPH813S17859   5.338   1.483  10.199
    1ECLIP C81417860   5.458   1.386  10.052
    1ECLIPH814R17861   5.456   1.326   9.958
    1ECLIPH814S17862   5.516   1.331  10.130
    1ECLIPH814T17863   5.506   1.481  10.033
    1ECLIP  C7417864   5.736   1.141  11.051
    1ECLIP H74R17865   5.840   1.122  11.051
    1ECLIP H74S17866   5.739   1.250  11.069
    1ECLIP  C7517867   5.669   1.116  10.914
    1ECLIP H75R17868   5.687   1.209  10.854
    1ECLIP H75S17869   5.560   1.107  10.932
    1ECLIP  C7617870   5.713   0.993  10.833
    1ECLIP H76R17871   5.669   0.901  10.875
    1ECLIP H76S17872   5.821   0.979  10.844
    1ECLIP  C7717873   5.679   1.000  10.682
    1ECLIP H77R17874   5.734   1.085  10.636
    1ECLIP H77S17875   5.572   1.023  10.667
    1ECLIP  C7817876   5.707   0.864  10.617
    1ECLIP H78R17877   5.811   0.834  10.643
    1ECLIP H78S17878   5.640   0.792  10.668
    1ECLIP  C7917879   5.677   0.848  10.466
    1ECLIP H79R17880   5.574   0.807  10.453
    1ECLIP H79S17881   5.747   0.774  10.419
    1ECLIP C71017882   5.692   0.974  10.382
    1ECLIPH710R17883   5.629   1.056  10.423
    1ECLIPH710S17884   5.799   1.006  10.385
    1ECLIP C71117885   5.652   0.955  10.236
    1ECLIPH711R17886   5.715   0.876  10.190
    1ECLIPH711S17887   5.545   0.925  10.229
    1ECLIP C71217888   5.668   1.089  10.163
    1ECLIPH712R17889   5.777   1.115  10.162
    1ECLIPH712S17890   5.615   1.166  10.222
    1ECLIP C71317891   5.609   1.085  10.024
    1ECLIPH713R17892   5.499   1.067  10.025
    1ECLIPH713S17893   5.629   1.181   9.969
    1ECLIP C71417894   5.671   0.976   9.945
    1ECLIPH714R17895   5.780   1.004   9.948
    1ECLIPH714S17896   5.664   0.870   9.973
    1ECLIPH714T17897   5.626   0.983   9.844
    1ECLIP  C5117898   5.267   0.846  11.159
    1ECLIP  O5117899   5.272   0.966  11.143
    1ECLIP  C5217900   5.283   0.752  11.042
    1ECLIP H52R17901   5.390   0.726  11.029
    1ECLIP H52S17902   5.226   0.660  11.061
    1ECLIP  C5317903   5.232   0.819  10.913
    1ECLIP H53R17904   5.144   0.885  10.935
    1ECLIP  O5317905   5.201   0.712  10.822
    1ECLIP  C6117906   5.075   0.692  10.789
    1ECLIP  O6117907   4.980   0.761  10.821
    1ECLIP  C6217908   5.066   0.572  10.696
    1ECLIP H62R17909   5.062   0.480  10.758
    1ECLIP H62S17910   5.159   0.569  10.637
    1ECLIP  C6317911   4.941   0.582  10.606
    1ECLIP H63R17912   4.930   0.683  10.562
    1ECLIP H63S17913   4.857   0.571  10.677
    1ECLIP  C6417914   4.935   0.483  10.489
    1ECLIP H64R17915   4.841   0.500  10.434
    1ECLIP H64S17916   4.939   0.379  10.529
    1ECLIP  C6517917   5.046   0.511  10.389
    1ECLIP H65R17918   5.138   0.495  10.449
    1ECLIP H65S17919   5.041   0.617  10.358
    1ECLIP  C6617920   5.057   0.424  10.262
    1ECLIP H66R17921   5.065   0.317  10.291
    1ECLIP H66S17922   5.153   0.456  10.215
    1ECLIP  C6717923   4.949   0.437  10.153
    1ECLIP H67R17924   4.846   0.422  10.194
    1ECLIP H67S17925   4.965   0.361  10.074
    1ECLIP  C6817926   4.946   0.573  10.087
    1ECLIP H68R17927   5.044   0.609  10.047
    1ECLIP H68S17928   4.909   0.644  10.164
    1ECLIP  C6917929   4.858   0.570   9.964
    1ECLIP H69R17930   4.781   0.492   9.973
    1ECLIP H69S17931   4.918   0.531   9.880
    1ECLIP C61017932   4.804   0.708   9.935
    1ECLIPH610R17933   4.880   0.787   9.944
    1ECLIPH610S17934   4.722   0.734  10.007
    1ECLIP C61117935   4.750   0.713   9.795
    1ECLIPH611R17936   4.680   0.632   9.791
    1ECLIPH611S17937   4.698   0.809   9.790
    1ECLIP C61217938   4.839   0.693   9.676
    1ECLIPH612R17939   4.898   0.786   9.667
    1ECLIPH612S17940   4.903   0.606   9.696
    1ECLIPH612T17941   4.781   0.675   9.582
    1ECLIP  C5417942   5.347   0.905  10.853
    1ECLIP H54R17943   5.428   0.835  10.824
    1ECLIP H54S17944   5.386   0.970  10.934
    1ECLIP  C5517945   5.312   0.994  10.733
    1ECLIP H55R17946   5.392   1.071  10.719
    1ECLIP H55S17947   5.220   1.051  10.756
    1ECLIP  C5617948   5.303   0.909  10.605
    1ECLIP H56R17949   5.229   0.829  10.622
    1ECLIP H56S17950   5.401   0.860  10.587
    1ECLIP  C5717951   5.258   0.978  10.477
    1ECLIP H57R17952   5.319   1.068  10.454
    1ECLIP H57S17953   5.153   1.013  10.491
    1ECLIP  C5817954   5.261   0.876  10.361
    1ECLIP H58R17955   5.357   0.820  10.358
    1ECLIP H58S17956   5.183   0.800  10.382
    1ECLIP  C5917957   5.240   0.944  10.224
    1ECLIP H59R17958   5.316   1.023  10.208
    1ECLIP H59S17959   5.141   0.994  10.233
    1ECLIP C51017960   5.253   0.849  10.103
    1ECLIPH510R17961   5.198   0.754  10.119
    1ECLIPH510S17962   5.361   0.823  10.089
    1ECLIP C51117963   5.205   0.908   9.970
    1ECLIPH511R17964   5.094   0.902   9.965
    1ECLIPH511S17965   5.233   1.015   9.959
    1ECLIP C51217966   5.259   0.829   9.852
    1ECLIPH512R17967   5.250   0.880   9.762
    1ECLIPH512S17968   5.368   0.811   9.855
    1ECLIP C51317969   5.164   0.721   9.801
    1ECLIPH513R17970   5.057   0.738   9.805
    1ECLIPH513S17971   5.187   0.643   9.878
    1ECLIP C51417972   5.184   0.686   9.652
    1ECLIPH514R17973   5.287   0.679   9.672
    1ECLIPH514S17974   5.142   0.591   9.616
    1ECLIPH514T17975   5.194   0.750   9.564
    1ECLIP  C3317976   4.944   0.445  11.185
    1ECLIP H33R17977   4.929   0.342  11.225
    1ECLIP  O3317978   5.006   0.522  11.284
    1ECLIP HO3317979   4.966   0.512  11.372
    1ECLIP  C3417980   5.025   0.441  11.056
    1ECLIP H34R17981   5.034   0.545  11.018
    1ECLIP H34S17982   4.970   0.385  10.977
    1ECLIP  C3517983   5.164   0.381  11.079
    1ECLIP H35R17984   5.154   0.275  11.111
    1ECLIP H35S17985   5.211   0.439  11.162
    1ECLIP  C3617986   5.253   0.388  10.956
    1ECLIP H36R17987   5.220   0.479  10.903
    1ECLIP H36S17988   5.237   0.300  10.888
    1ECLIP  C3717989   5.403   0.406  10.988
    1ECLIP H37R17990   5.447   0.304  11.004
    1ECLIP H37S17991   5.413   0.460  11.085
    1ECLIP  C3817992   5.483   0.480  10.880
    1ECLIP H38R17993   5.463   0.590  10.880
    1ECLIP H38S17994   5.591   0.470  10.905
    1ECLIP  C3917995   5.454   0.427  10.739
    1ECLIP H39R17996   5.344   0.433  10.719
    1ECLIP H39S17997   5.487   0.321  10.734
    1ECLIP C31017998   5.523   0.500  10.623
    1ECLIPH310R17999   5.631   0.474  10.633
    1ECLIPH310S18000   5.512   0.610  10.632
    1ECLIP C31118001   5.460   0.464  10.488
    1ECLIPH311R18002   5.427   0.358  10.489
    1ECLIPH311S18003   5.369   0.527  10.473
    1ECLIP C31218004   5.550   0.490  10.366
    1ECLIPH312R18005   5.612   0.581  10.385
    1ECLIPH312S18006   5.617   0.403  10.354
    1ECLIP C31318007   5.469   0.510  10.237
    1ECLIPH313R18008   5.429   0.409  10.211
    1ECLIPH313S18009   5.382   0.578  10.254
    1ECLIP C31418010   5.550   0.565  10.119
    1ECLIPH314R18011   5.635   0.499  10.099
    1ECLIPH314S18012   5.488   0.572  10.027
    1ECLIPH314T18013   5.592   0.665  10.142
    1ECLIP  C1118014   4.823   1.024  10.862
    1ECLIP  O1118015   4.938   1.061  10.846
    1ECLIP  C1218016   4.714   1.073  10.769
    1ECLIP H12R18017   4.692   1.179  10.792
    1ECLIP H12S18018   4.624   1.011  10.787
    1ECLIP  C1318019   4.752   1.059  10.622
    1ECLIP H13R18020   4.857   1.090  10.601
    1ECLIP  O1318021   4.665   1.143  10.548
    1ECLIP HO1318022   4.701   1.176  10.465
    1ECLIP  C1418023   4.734   0.911  10.580
    1ECLIP H14R18024   4.646   0.867  10.632
    1ECLIP H14S18025   4.826   0.858  10.614
    1ECLIP  C1518026   4.720   0.886  10.431
    1ECLIP H15R18027   4.633   0.944  10.393
    1ECLIP H15S18028   4.694   0.779  10.419
    1ECLIP  C1618029   4.848   0.917  10.354
    1ECLIP H16R18030   4.920   0.833  10.364
    1ECLIP H16S18031   4.897   1.005  10.401
    1ECLIP  C1718032   4.818   0.942  10.207
    1ECLIP H17R18033   4.747   0.862  10.175
    1ECLIP H17S18034   4.909   0.934  10.143
    1ECLIP  C1818035   4.754   1.079  10.185
    1ECLIP H18R18036   4.662   1.083  10.247
    1ECLIP H18S18037   4.824   1.159  10.216
    1ECLIP  C1918038   4.713   1.102  10.042
    1ECLIP H19R18039   4.654   1.195  10.031
    1ECLIP H19S18040   4.652   1.017  10.002
    1ECLIP C11018041   4.836   1.114   9.956
    1ECLIPH110R18042   4.908   1.193   9.986
    1ECLIPH110S18043   4.888   1.016   9.950
    1ECLIP C11118044   4.784   1.149   9.822
    1ECLIPH111R18045   4.703   1.081   9.786
    1ECLIPH111S18046   4.745   1.253   9.822
    1ECLIP C11218047   4.894   1.141   9.726
    1ECLIPH112R18048   4.966   1.225   9.748
    1ECLIPH112S18049   4.956   1.048   9.729
    1ECLIP C11318050   4.807   1.145   9.603
    1ECLIPH113R18051   4.776   1.046   9.558
    1ECLIPH113S18052   4.732   1.224   9.593
    1ECLIP C11418053   4.883   1.204   9.510
    1ECLIPH114R18054   4.947   1.293   9.538
    1ECLIPH114S18055   4.938   1.106   9.502
    1ECLIPH114T18056   4.848   1.221   9.407
    2AKDO    C118057   5.376   0.754  11.979
    2AKDO   O1118058   5.502   0.749  11.981
    2AKDO   O1218059   5.298   0.660  11.947
    2AKDO    C218060   5.309   0.887  12.023
    2AKDO    C618061   5.353   1.103  12.123
    2AKDO    H618062   5.303   1.144  12.031
    2AKDO    O618063   5.407   0.976  12.083
    2AKDO    C318064   5.199   0.868  12.129
    2AKDO   H3118065   5.239   0.810  12.215
    2AKDO   H3218066   5.118   0.808  12.082
    2AKDO    C418067   5.140   0.998  12.173
    2AKDO    H418068   5.101   1.053  12.085
    2AKDO    O418069   5.039   0.979  12.273
    2AKDO    C518070   5.246   1.087  12.233
    2AKDO    H518071   5.200   1.188  12.245
    2AKDO    O518072   5.286   1.031  12.362
    2AKDO    C718073   5.464   1.203  12.153
    2AKDO    H718074   5.517   1.169  12.244
    2AKDO    O718075   5.408   1.334  12.172
    2AKDO   HO718076   5.404   1.373  12.084
    2AKDO    C818077   5.564   1.208  12.039
    2AKDO   H8118078   5.602   1.104  12.022
    2AKDO   H8218079   5.512   1.240  11.946
    2AKDO    O818080   5.675   1.297  12.070
    2AKDO   HO818081   5.751   1.255  12.027
    3AKDO    C118082   4.860   1.028  12.115
    3AKDO   O1118083   4.870   0.975  12.001
    3AKDO   O1218084   4.820   1.144  12.143
    3AKDO    C218085   4.907   0.942  12.238
    3AKDO    C618086   4.944   0.716  12.315
    3AKDO    H618087   5.052   0.738  12.334
    3AKDO    O618088   4.896   0.801  12.209
    3AKDO    C318089   4.828   0.969  12.369
    3AKDO   H3118090   4.721   0.946  12.351
    3AKDO   H3218091   4.835   1.076  12.396
    3AKDO    C418092   4.884   0.883  12.479
    3AKDO    H418093   4.994   0.900  12.484
    3AKDO    O418094   4.832   0.911  12.608
    3AKDO   HO418095   4.902   0.932  12.671
    3AKDO    C518096   4.864   0.739  12.442
    3AKDO    H518097   4.904   0.676  12.525
    3AKDO    O518098   4.728   0.703  12.421
    3AKDO   HO518099   4.696   0.767  12.357
    3AKDO    C718100   4.935   0.573  12.271
    3AKDO    H718101   4.828   0.548  12.248
    3AKDO    O718102   4.979   0.488  12.378
    3AKDO   HO718103   4.962   0.398  12.349
    3AKDO    C818104   5.019   0.552  12.148
    3AKDO   H8118105   4.988   0.624  12.069
    3AKDO   H8218106   5.127   0.571  12.168
    3AKDO    O818107   4.997   0.419  12.100
    3AKDO   HO818108   4.915   0.433  12.050
    4AHEP    C118109   5.326   1.123  12.462
    4AHEP    H118110   5.427   1.155  12.428
    4AHEP    C518111   5.122   1.229  12.536
    4AHEP    H518112   5.069   1.143  12.488
    4AHEP    O518113   5.248   1.244  12.467
    4AHEP    C218114   5.350   1.077  12.607
    4AHEP    H218115   5.404   0.980  12.604
    4AHEP    O218116   5.438   1.167  12.674
    4AHEP   HO218117   5.502   1.119  12.727
    4AHEP    C318118   5.221   1.056  12.686
    4AHEP    H318119   5.160   0.972  12.646
    4AHEP    O318120   5.253   1.029  12.825
    4AHEP    C418121   5.145   1.187  12.682
    4AHEP    H418122   5.200   1.270  12.733
    4AHEP    O418123   5.018   1.161  12.742
    4AHEP    P418124   4.971   1.230  12.884
    4AHEP  OP4218125   4.884   1.121  12.947
    4AHEP  OP4318126   4.893   1.353  12.836
    4AHEP  OP4418127   5.098   1.263  12.963
    4AHEP    C618128   5.039   1.359  12.515
    4AHEP    H618129   4.934   1.331  12.544
    4AHEP    O618130   5.077   1.472  12.598
    4AHEP   HO618131   5.011   1.483  12.668
    4AHEP    C718132   5.035   1.410  12.370
    4AHEP   H7118133   4.954   1.485  12.356
    4AHEP   H7218134   5.017   1.324  12.302
    4AHEP    O718135   5.154   1.475  12.323
    4AHEP   HO718136   5.161   1.554  12.379
    5AHEP    C118137   5.208   0.909  12.882
    5AHEP    H118138   5.113   0.876  12.834
    5AHEP    C518139   5.432   0.842  12.932
    5AHEP    H518140   5.463   0.942  12.895
    5AHEP    O518141   5.309   0.807  12.865
    5AHEP    C218142   5.181   0.926  13.033
    5AHEP    H218143   5.109   1.011  13.045
    5AHEP    O218144   5.118   0.808  13.086
    5AHEP   HO218145   5.024   0.826  13.100
    5AHEP    C318146   5.309   0.963  13.109
    5AHEP    H318147   5.348   1.059  13.067
    5AHEP    O318148   5.294   0.977  13.253
    5AHEP    C418149   5.411   0.854  13.083
    5AHEP    H418150   5.373   0.756  13.120
    5AHEP    O418151   5.536   0.892  13.141
    5AHEP    P418152   5.598   0.800  13.266
    5AHEP  OP4218153   5.706   0.891  13.325
    5AHEP  OP4318154   5.655   0.671  13.207
    5AHEP  OP4418155   5.487   0.775  13.367
    5AHEP    C618156   5.543   0.743  12.894
    5AHEP    H618157   5.638   0.777  12.941
    5AHEP    O618158   5.516   0.610  12.940
    5AHEP   HO618159   5.449   0.572  12.885
    5AHEP    C718160   5.565   0.744  12.745
    5AHEP   H7118161   5.673   0.732  12.731
    5AHEP   H7218162   5.543   0.842  12.698
    5AHEP    O718163   5.502   0.633  12.681
    6AHEP    C118164   5.384   0.669  12.616
    6AHEP    H118165   5.354   0.773  12.640
    6AHEP    C518166   5.441   0.534  12.436
    6AHEP    H518167   5.537   0.503  12.487
    6AHEP    O518168   5.404   0.665  12.476
    6AHEP    C218169   5.275   0.575  12.659
    6AHEP    H218170   5.267   0.583  12.770
    6AHEP    O218171   5.150   0.620  12.610
    6AHEP   HO218172   5.096   0.647  12.685
    6AHEP    C318173   5.312   0.432  12.621
    6AHEP    H318174   5.406   0.404  12.674
    6AHEP    O318175   5.210   0.338  12.660
    6AHEP   HO318176   5.231   0.282  12.736
    6AHEP    C418177   5.335   0.429  12.471
    6AHEP    H418178   5.240   0.452  12.416
    6AHEP    O418179   5.379   0.301  12.428
    6AHEP   HO418180   5.473   0.292  12.446
    6AHEP    C618181   5.474   0.540  12.290
    6AHEP    H618182   5.486   0.437  12.276
    6AHEP    O618183   5.368   0.542  12.197
    6AHEP   HO618184   5.386   0.611  12.132
    6AHEP    C718185   5.599   0.623  12.256
    6AHEP   H7118186   5.635   0.602  12.153
    6AHEP   H7218187   5.682   0.600  12.326
    6AHEP    O718188   5.573   0.762  12.266
    6AHEP   HO718189   5.569   0.783  12.359
    7AGLC    C118190   5.268   1.106  13.302
    7AGLC    H118191   5.332   1.182  13.252
    7AGLC    C518192   5.039   1.050  13.346
    7AGLC    H518193   5.060   0.945  13.318
    7AGLC    O518194   5.131   1.138  13.279
    7AGLC    C218195   5.288   1.121  13.453
    7AGLC    H218196   5.249   1.223  13.479
    7AGLC    O218197   5.425   1.120  13.493
    7AGLC   HO218198   5.453   1.027  13.494
    7AGLC    C318199   5.202   1.027  13.533
    7AGLC    H318200   5.222   0.923  13.497
    7AGLC    O318201   5.230   1.031  13.676
    7AGLC    C418202   5.058   1.062  13.497
    7AGLC    H418203   5.036   1.168  13.529
    7AGLC    O418204   4.971   0.971  13.562
    7AGLC   HO418205   4.897   1.018  13.601
    7AGLC    C618206   4.901   1.078  13.288
    7AGLC   H6118207   4.906   1.064  13.177
    7AGLC   H6218208   4.822   1.010  13.325
    7AGLC    O618209   4.861   1.212  13.311
    7AGLC   HO618210   4.804   1.221  13.385
    8AGLC    C118211   5.276   0.908  13.729
    8AGLC    H118212   5.214   0.825  13.688
    8AGLC    C518213   5.512   0.966  13.759
    8AGLC    H518214   5.488   1.069  13.726
    8AGLC    O518215   5.414   0.879  13.697
    8AGLC    C218216   5.260   0.898  13.880
    8AGLC    H218217   5.289   0.794  13.907
    8AGLC    O218218   5.127   0.918  13.931
    8AGLC    C318219   5.354   0.993  13.949
    8AGLC    H318220   5.330   1.095  13.908
    8AGLC    O318221   5.324   0.991  14.090
    8AGLC    C418222   5.495   0.957  13.910
    8AGLC    H418223   5.513   0.850  13.940
    8AGLC    O418224   5.590   1.039  13.978
    8AGLC   HO418225   5.559   1.130  13.974
    8AGLC    C618226   5.657   0.940  13.712
    8AGLC   H6118227   5.662   0.931  13.600
    8AGLC   H6218228   5.721   1.027  13.740
    8AGLC    O618229   5.718   0.826  13.771
    8AGLC   HO618230   5.756   0.851  13.855
    9AGAL    C118231   5.025   0.837  13.881
    9AGAL    H118232   5.027   0.837  13.771
    9AGAL    C518233   5.014   0.687  14.065
    9AGAL    H518234   5.086   0.759  14.111
    9AGAL    O518235   5.034   0.699  13.923
    9AGAL    C218236   4.892   0.899  13.920
    9AGAL    H218237   4.814   0.835  13.873
    9AGAL    O218238   4.882   1.029  13.856
    9AGAL    C318239   4.870   0.888  14.069
    9AGAL    H318240   4.950   0.944  14.125
    9AGAL    O318241   4.747   0.947  14.107
    9AGAL   HO318242   4.745   1.032  14.062
    9AGAL    C418243   4.876   0.739  14.104
    9AGAL    H418244   4.865   0.726  14.214
    9AGAL    O418245   4.771   0.666  14.040
    9AGAL   HO418246   4.754   0.589  14.095
    9AGAL    C618247   5.057   0.551  14.122
    9AGAL   H6118248   5.163   0.531  14.098
    9AGAL   H6218249   5.049   0.554  14.232
    9AGAL    O618250   4.983   0.436  14.080
    9AGAL   HO618251   5.022   0.401  14.000
   10AGAL    C118252   4.829   1.148  13.913
   10AGAL    H118253   4.719   1.136  13.922
   10AGAL    C518254   5.022   1.219  14.041
   10AGAL    H518255   5.070   1.128  14.001
   10AGAL    O518256   4.881   1.187  14.043
   10AGAL    C218257   4.855   1.260  13.813
   10AGAL    H218258   4.804   1.351  13.850
   10AGAL    O218259   4.792   1.236  13.687
   10AGAL   HO218260   4.752   1.322  13.663
   10AGAL    C318261   5.006   1.288  13.806
   10AGAL    H318262   5.058   1.192  13.781
   10AGAL    O318263   5.044   1.383  13.708
   10AGAL   HO318264   5.088   1.340  13.634
   10AGAL    C418265   5.052   1.331  13.943
   10AGAL    H418266   5.162   1.347  13.944
   10AGAL    O418267   4.990   1.453  13.983
   10AGAL   HO418268   4.897   1.433  13.995
   10AGAL    C618269   5.086   1.239  14.179
   10AGAL   H6118270   5.055   1.156  14.246
   10AGAL   H6218271   5.196   1.230  14.164
   10AGAL    O618272   5.061   1.363  14.247
   10AGAL   HO618273   5.009   1.347  14.327
   11BGLC    C118274   5.396   0.910  14.184
   11BGLC    H118275   5.497   0.953  14.198
   11BGLC    C518276   5.462   0.684  14.248
   11BGLC    H518277   5.567   0.717  14.273
   11BGLC    O518278   5.399   0.770  14.149
   11BGLC    C218279   5.317   0.923  14.315
   11BGLC    H218280   5.212   0.888  14.300
   11BGLC    O218281   5.309   1.060  14.353
   11BGLC   HO218282   5.217   1.084  14.365
   11BGLC    C318283   5.376   0.841  14.427
   11BGLC    H318284   5.477   0.878  14.454
   11BGLC    O318285   5.287   0.846  14.541
   11BGLC    C418286   5.380   0.697  14.378
   11BGLC    H418287   5.275   0.666  14.355
   11BGLC    O418288   5.427   0.611  14.480
   11BGLC   HO418289   5.359   0.606  14.549
   11BGLC    C618290   5.475   0.543  14.188
   11BGLC   H6118291   5.488   0.465  14.266
   11BGLC   H6218292   5.385   0.519  14.129
   11BGLC    O618293   5.587   0.531  14.101
   11BGLC   HO618294   5.653   0.470  14.136
   12BGLCN   C118295   5.338   0.884  14.668
   12BGLCN   H118296   5.342   0.995  14.674
   12BGLCN   C518297   5.517   0.871  14.824
   12BGLCN   H518298   5.522   0.983  14.832
   12BGLCN   O518299   5.467   0.831  14.695
   12BGLCN   C218300   5.241   0.828  14.772
   12BGLCN   H218301   5.250   0.716  14.766
   12BGLCN    N18302   5.107   0.873  14.742
   12BGLCN   HN18303   5.098   0.971  14.732
   12BGLCN    C18304   5.005   0.789  14.728
   12BGLCN    O18305   5.016   0.669  14.744
   12BGLCN   CT18306   4.872   0.846  14.692
   12BGLCN  HT118307   4.802   0.841  14.776
   12BGLCN  HT218308   4.826   0.788  14.609
   12BGLCN  HT318309   4.885   0.952  14.661
   12BGLCN   C318310   5.280   0.869  14.913
   12BGLCN   H318311   5.279   0.980  14.917
   12BGLCN   O318312   5.187   0.820  15.014
   12BGLCN   C418313   5.422   0.817  14.932
   12BGLCN   H418314   5.423   0.705  14.925
   12BGLCN   O418315   5.470   0.851  15.061
   12BGLCN  HO418316   5.491   0.946  15.064
   12BGLCN   C618317   5.658   0.816  14.827
   12BGLCN  H6118318   5.706   0.831  14.925
   12BGLCN  H6218319   5.655   0.706  14.815
   12BGLCN   O618320   5.741   0.874  14.725
   12BGLCN  HO618321   5.778   0.959  14.750
   13AGAL    C118322   5.158   0.911  15.120
   13AGAL    H118323   5.253   0.962  15.152
   13AGAL    C518324   4.927   0.948  15.063
   13AGAL    H518325   4.945   0.865  14.990
   13AGAL    O518326   5.057   1.009  15.083
   13AGAL    C218327   5.104   0.845  15.247
   13AGAL    H218328   5.080   0.929  15.316
   13AGAL    O218329   5.205   0.764  15.311
   13AGAL    C318330   4.971   0.776  15.226
   13AGAL    H318331   4.980   0.707  15.139
   13AGAL    O318332   4.928   0.698  15.337
   13AGAL   HO318333   4.892   0.613  15.307
   13AGAL    C418334   4.870   0.881  15.188
   13AGAL    H418335   4.775   0.830  15.160
   13AGAL    O418336   4.840   0.975  15.292
   13AGAL   HO418337   4.920   1.000  15.339
   13AGAL    C618338   4.824   1.034  14.991
   13AGAL   H6118339   4.869   1.072  14.897
   13AGAL   H6218340   4.738   0.968  14.966
   13AGAL    O618341   4.773   1.143  15.067
   13AGAL   HO618342   4.716   1.107  15.135
   14ARHM    C118343   5.252   0.810  15.437
   14ARHM    H118344   5.246   0.921  15.440
   14ARHM    C518345   5.414   0.637  15.455
   14ARHM    H518346   5.376   0.598  15.357
   14ARHM    O518347   5.391   0.778  15.456
   14ARHM    C218348   5.170   0.748  15.547
   14ARHM    H218349   5.063   0.773  15.530
   14ARHM    O218350   5.205   0.784  15.683
   14ARHM    C318351   5.189   0.599  15.542
   14ARHM    H318352   5.170   0.563  15.439
   14ARHM    O318353   5.096   0.532  15.626
   14ARHM   HO318354   5.127   0.540  15.717
   14ARHM    C418355   5.336   0.570  15.569
   14ARHM    H418356   5.372   0.616  15.665
   14ARHM    O418357   5.363   0.430  15.575
   14ARHM   HO418358   5.383   0.402  15.667
   14ARHM    C618359   5.566   0.615  15.461
   14ARHM   H6118360   5.621   0.683  15.393
   14ARHM   H6218361   5.597   0.630  15.567
   14ARHM   H6318362   5.595   0.512  15.432
   15ARHM    C118363   5.211   0.921  15.711
   15ARHM    H118364   5.145   0.977  15.642
   15ARHM    C518365   5.437   0.922  15.800
   15ARHM    H518366   5.457   0.813  15.781
   15ARHM    O518367   5.345   0.975  15.704
   15ARHM    C218368   5.156   0.943  15.850
   15ARHM    H218369   5.056   0.894  15.857
   15ARHM    O218370   5.138   1.085  15.867
   15ARHM    C318371   5.247   0.877  15.950
   15ARHM    H318372   5.261   0.770  15.920
   15ARHM    O318373   5.181   0.881  16.077
   15ARHM    C418374   5.382   0.945  15.940
   15ARHM    H418375   5.367   1.055  15.952
   15ARHM    O418376   5.478   0.905  16.038
   15ARHM   HO418377   5.549   0.969  16.032
   15ARHM    C618378   5.572   0.994  15.783
   15ARHM   H6118379   5.654   0.947  15.841
   15ARHM   H6218380   5.598   0.996  15.676
   15ARHM   H6318381   5.566   1.099  15.818
   16BMANN   C118382   5.089   1.138  15.988
   16BMANN   H118383   5.165   1.123  16.068
   16BMANN   C518384   4.921   1.131  16.157
   16BMANN   H518385   5.003   1.116  16.231
   16BMANN   O518386   4.965   1.079  16.030
   16BMANN   C218387   5.068   1.288  15.967
   16BMANN   H218388   5.168   1.330  15.940
   16BMANN    N18389   4.973   1.324  15.863
   16BMANN   HN18390   4.880   1.339  15.893
   16BMANN    C18391   5.005   1.349  15.735
   16BMANN    O18392   5.119   1.341  15.691
   16BMANN   CT18393   4.890   1.384  15.644
   16BMANN  HT118394   4.888   1.492  15.622
   16BMANN  HT218395   4.793   1.355  15.690
   16BMANN  HT318396   4.901   1.330  15.548
   16BMANN   C318397   5.023   1.347  16.098
   16BMANN   H318398   5.106   1.326  16.168
   16BMANN   O318399   5.009   1.488  16.093
   16BMANN  HO318400   5.066   1.526  16.163
   16BMANN   C418401   4.896   1.281  16.146
   16BMANN   H418402   4.814   1.300  16.073
   16BMANN   O418403   4.850   1.331  16.271
   16BMANN  HO418404   4.755   1.314  16.282
   16BMANN   C618405   4.800   1.059  16.213
   16BMANN  H6118406   4.804   1.065  16.324
   16BMANN  H6218407   4.707   1.110  16.180
   16BMANN   O618408   4.787   0.922  16.176
   16BMANN  HO618409   4.706   0.919  16.125
   17BGLCN   C118410   5.195   0.763  16.151
   17BGLCN   H118411   5.297   0.722  16.134
   17BGLCN   C518412   5.108   0.543  16.192
   17BGLCN   H518413   5.206   0.503  16.163
   17BGLCN   O518414   5.097   0.664  16.115
   17BGLCN   C218415   5.175   0.806  16.294
   17BGLCN   H218416   5.070   0.841  16.311
   17BGLCN    N18417   5.262   0.918  16.324
   17BGLCN   HN18418   5.346   0.923  16.272
   17BGLCN    C18419   5.241   1.010  16.417
   17BGLCN    O18420   5.140   1.018  16.487
   17BGLCN   CT18421   5.360   1.100  16.436
   17BGLCN  HT118422   5.355   1.198  16.386
   17BGLCN  HT218423   5.453   1.049  16.406
   17BGLCN  HT318424   5.359   1.123  16.544
   17BGLCN   C318425   5.200   0.683  16.380
   17BGLCN   H318426   5.300   0.646  16.346
   17BGLCN   O318427   5.209   0.719  16.520
   17BGLCN   C418428   5.095   0.579  16.341
   17BGLCN   H418429   4.993   0.623  16.352
   17BGLCN   O418430   5.104   0.463  16.424
   17BGLCN  HO418431   5.033   0.400  16.405
   17BGLCN   C618432   5.005   0.439  16.149
   17BGLCN  H6118433   5.048   0.336  16.153
   17BGLCN  H6218434   4.917   0.442  16.217
   17BGLCN   O618435   4.958   0.459  16.017
   17BGLCN  HO618436   5.031   0.459  15.955
   18AGAL    C118437   5.303   0.648  16.599
   18AGAL    H118438   5.262   0.546  16.618
   18AGAL    C518439   5.499   0.756  16.522
   18AGAL    H518440   5.429   0.830  16.477
   18AGAL    O518441   5.429   0.632  16.535
   18AGAL    C218442   5.332   0.712  16.733
   18AGAL    H218443   5.410   0.643  16.776
   18AGAL    O218444   5.221   0.707  16.823
   18AGAL    C318445   5.402   0.848  16.720
   18AGAL    H318446   5.341   0.912  16.652
   18AGAL    O318447   5.414   0.921  16.842
   18AGAL   HO318448   5.381   1.012  16.834
   18AGAL    C418449   5.536   0.823  16.653
   18AGAL    H418450   5.589   0.916  16.627
   18AGAL    O418451   5.626   0.748  16.734
   18AGAL   HO418452   5.653   0.804  16.808
   18AGAL    C618453   5.601   0.745  16.413
   18AGAL   H6118454   5.546   0.722  16.319
   18AGAL   H6218455   5.647   0.844  16.399
   18AGAL    O618456   5.698   0.644  16.433
   18AGAL   HO618457   5.669   0.588  16.506
   19ARHM    C118458   5.264   0.673  16.953
   19ARHM    H118459   5.369   0.707  16.971
   19ARHM    C518460   5.139   0.471  16.963
   19ARHM    H518461   5.105   0.498  16.860
   19ARHM    O518462   5.267   0.532  16.979
   19ARHM    C218463   5.170   0.738  17.050
   19ARHM    H218464   5.158   0.847  17.024
   19ARHM    O218465   5.218   0.729  17.183
   19ARHM    C318466   5.034   0.676  17.037
   19ARHM    H318467   5.007   0.687  16.933
   19ARHM    O318468   4.935   0.742  17.114
   19ARHM   HO318469   4.973   0.747  17.202
   19ARHM    C418470   5.041   0.528  17.062
   19ARHM    H418471   5.079   0.514  17.166
   19ARHM    O418472   4.917   0.459  17.050
   19ARHM   HO418473   4.879   0.475  16.962
   19ARHM    C618474   5.152   0.319  16.966
   19ARHM   H6118475   5.223   0.293  16.887
   19ARHM   H6218476   5.191   0.280  17.063
   19ARHM   H6318477   5.055   0.269  16.944
   20ARHM    C118478   5.328   0.813  17.206
   20ARHM    H118479   5.341   0.886  17.123
   20ARHM    C518480   5.453   0.658  17.333
   20ARHM    H518481   5.371   0.585  17.318
   20ARHM    O518482   5.454   0.746  17.220
   20ARHM    C218483   5.294   0.890  17.331
   20ARHM    H218484   5.190   0.932  17.320
   20ARHM    O218485   5.387   0.995  17.353
   20ARHM    C318486   5.292   0.800  17.449
   20ARHM    H318487   5.217   0.719  17.432
   20ARHM    O318488   5.256   0.878  17.562
   20ARHM    C418489   5.428   0.737  17.460
   20ARHM    H418490   5.511   0.812  17.469
   20ARHM    O418491   5.429   0.652  17.573
   20ARHM   HO418492   5.498   0.589  17.551
   20ARHM    C618493   5.585   0.580  17.333
   20ARHM   H6118494   5.675   0.645  17.345
   20ARHM   H6218495   5.584   0.504  17.413
   20ARHM   H6318496   5.597   0.529  17.236
   21BMANN   C118497   5.354   1.107  17.277
   21BMANN   H118498   5.271   1.082  17.208
   21BMANN   C518499   5.409   1.254  17.102
   21BMANN   H518500   5.318   1.218  17.046
   21BMANN   O518501   5.458   1.149  17.188
   21BMANN   C218502   5.311   1.218  17.370
   21BMANN   H218503   5.225   1.177  17.429
   21BMANN    N18504   5.414   1.262  17.463
   21BMANN   HN18505   5.505   1.268  17.425
   21BMANN    C18506   5.393   1.294  17.593
   21BMANN    O18507   5.283   1.311  17.640
   21BMANN   CT18508   5.513   1.311  17.681
   21BMANN  HT118509   5.557   1.408  17.652
   21BMANN  HT218510   5.587   1.231  17.666
   21BMANN  HT318511   5.484   1.313  17.789
   21BMANN   C318512   5.260   1.329  17.282
   21BMANN   H318513   5.173   1.287  17.228
   21BMANN   O318514   5.210   1.437  17.358
   21BMANN  HO318515   5.282   1.472  17.412
   21BMANN   C418516   5.368   1.372  17.185
   21BMANN   H418517   5.456   1.414  17.238
   21BMANN   O418518   5.326   1.473  17.095
   21BMANN  HO418519   5.369   1.557  17.115
   21BMANN   C618520   5.511   1.291  16.998
   21BMANN  H6118521   5.463   1.350  16.916
   21BMANN  H6218522   5.587   1.358  17.044
   21BMANN   O618523   5.574   1.177  16.943
   21BMANN  HO618524   5.623   1.132  17.015
   22BGLCN   C118525   5.179   0.815  17.660
   22BGLCN   H118526   5.199   0.707  17.659
   22BGLCN   C518527   4.961   0.781  17.746
   22BGLCN   H518528   4.978   0.672  17.748
   22BGLCN   O518529   5.040   0.841  17.642
   22BGLCN   C218530   5.224   0.872  17.791
   22BGLCN   H218531   5.206   0.983  17.786
   22BGLCN    N18532   5.364   0.846  17.808
   22BGLCN   HN18533   5.398   0.759  17.776
   22BGLCN    C18534   5.448   0.929  17.870
   22BGLCN    O18535   5.414   1.036  17.919
   22BGLCN   CT18536   5.590   0.883  17.875
   22BGLCN  HT118537   5.643   0.930  17.790
   22BGLCN  HT218538   5.596   0.773  17.864
   22BGLCN  HT318539   5.636   0.910  17.972
   22BGLCN   C318540   5.145   0.812  17.905
   22BGLCN   H318541   5.160   0.701  17.902
   22BGLCN   O318542   5.201   0.864  18.027
   22BGLCN   C418543   4.999   0.839  17.881
   22BGLCN   H418544   4.985   0.950  17.878
   22BGLCN   O418545   4.916   0.786  17.984
   22BGLCN  HO418546   4.852   0.853  18.011
   22BGLCN   C618547   4.815   0.803  17.713
   22BGLCN  H6118548   4.756   0.785  17.805
   22BGLCN  H6218549   4.799   0.908  17.681
   22BGLCN   O618550   4.764   0.711  17.618
   22BGLCN  HO618551   4.815   0.718  17.536
   23AGAL    C118552   5.181   0.794  18.146
   23AGAL    H118553   5.078   0.814  18.181
   23AGAL    C518554   5.332   0.614  18.108
   23AGAL    H518555   5.368   0.667  18.017
   23AGAL    O518556   5.196   0.652  18.135
   23AGAL    C218557   5.272   0.847  18.254
   23AGAL    H218558   5.245   0.790  18.346
   23AGAL    O218559   5.250   0.987  18.279
   23AGAL    C318560   5.417   0.809  18.224
   23AGAL    H318561   5.442   0.845  18.122
   23AGAL    O318562   5.511   0.872  18.311
   23AGAL   HO318563   5.476   0.867  18.399
   23AGAL    C418564   5.427   0.657  18.222
   23AGAL    H418565   5.531   0.624  18.197
   23AGAL    O418566   5.390   0.597  18.346
   23AGAL   HO418567   5.362   0.507  18.321
   23AGAL    C618568   5.333   0.468  18.070
   23AGAL   H6118569   5.255   0.449  17.993
   23AGAL   H6218570   5.429   0.443  18.022
   23AGAL    O618571   5.306   0.382  18.181
   23AGAL   HO618572   5.314   0.289  18.156
   24ARHM    C118573   5.144   1.025  18.365
   24ARHM    H118574   5.073   0.941  18.375
   24ARHM    C518575   5.142   1.254  18.302
   24ARHM    H518576   5.225   1.229  18.233
   24ARHM    O518577   5.065   1.135  18.316
   24ARHM    C218578   5.208   1.060  18.497
   24ARHM    H218579   5.274   0.977  18.529
   24ARHM    O218580   5.108   1.088  18.596
   24ARHM    C318581   5.294   1.183  18.479
   24ARHM    H318582   5.369   1.159  18.399
   24ARHM    O318583   5.369   1.210  18.596
   24ARHM   HO318584   5.320   1.270  18.653
   24ARHM    C418585   5.206   1.298  18.433
   24ARHM    H418586   5.125   1.315  18.508
   24ARHM    O418587   5.276   1.420  18.412
   24ARHM   HO418588   5.227   1.496  18.443
   24ARHM    C618589   5.058   1.363  18.234
   24ARHM   H6118590   5.127   1.426  18.178
   24ARHM   H6218591   4.990   1.319  18.159
   24ARHM   H6318592   5.000   1.425  18.305
   25ARHM    C118593   5.046   0.976  18.651
   25ARHM    H118594   5.062   0.890  18.583
   25ARHM    C518595   4.865   1.090  18.756
   25ARHM    H518596   4.906   1.188  18.723
   25ARHM    O518597   4.903   0.988  18.662
   25ARHM    C218598   5.110   0.945  18.783
   25ARHM    H218599   5.222   0.949  18.773
   25ARHM    O218600   5.069   0.815  18.825
   25ARHM    C318601   5.071   1.051  18.882
   25ARHM    H318602   5.107   1.151  18.845
   25ARHM    O318603   5.132   1.019  19.007
   25ARHM    C418604   4.922   1.059  18.894
   25ARHM    H418605   4.880   0.961  18.927
   25ARHM    O418606   4.889   1.158  18.990
   25ARHM   HO418607   4.811   1.130  19.039
   25ARHM    C618608   4.712   1.104  18.758
   25ARHM   H6118609   4.672   1.116  18.655
   25ARHM   H6218610   4.666   1.016  18.805
   25ARHM   H6318611   4.682   1.194  18.816
   26BMANN   C118612   5.140   0.710  18.764
   26BMANN   H118613   5.237   0.744  18.722
   26BMANN   C518614   5.143   0.541  18.595
   26BMANN   H518615   5.236   0.586  18.554
   26BMANN   O518616   5.066   0.646  18.658
   26BMANN   C218617   5.168   0.609  18.872
   26BMANN   H218618   5.228   0.663  18.949
   26BMANN    N18619   5.044   0.556  18.930
   26BMANN   HN18620   4.977   0.523  18.865
   26BMANN    C18621   5.016   0.554  19.060
   26BMANN    O18622   5.088   0.612  19.140
   26BMANN   CT18623   4.895   0.475  19.103
   26BMANN  HT118624   4.820   0.473  19.021
   26BMANN  HT218625   4.847   0.511  19.196
   26BMANN  HT318626   4.928   0.372  19.122
   26BMANN   C318627   5.256   0.501  18.811
   26BMANN   H318628   5.347   0.549  18.769
   26BMANN   O318629   5.301   0.411  18.910
   26BMANN  HO318630   5.362   0.459  18.967
   26BMANN   C418631   5.180   0.435  18.697
   26BMANN   H418632   5.087   0.387  18.734
   26BMANN   O418633   5.257   0.333  18.636
   26BMANN  HO418634   5.255   0.256  18.694
   26BMANN   C618635   5.062   0.491  18.476
   26BMANN  H6118636   5.011   0.577  18.428
   26BMANN  H6218637   5.128   0.445  18.400
   26BMANN   O618638   4.964   0.394  18.514
   26BMANN  HO618639   5.009   0.317  18.550
   27BGLCN   C118640   5.184   1.124  19.083
   27BGLCN   H118641   5.121   1.216  19.079
   27BGLCN   C518642   5.375   1.255  19.128
   27BGLCN   H518643   5.306   1.343  19.130
   27BGLCN   O518644   5.317   1.155  19.043
   27BGLCN   C218645   5.186   1.065  19.223
   27BGLCN   H218646   5.255   0.978  19.221
   27BGLCN    N18647   5.055   1.018  19.266
   27BGLCN   HN18648   4.979   1.077  19.241
   27BGLCN    C18649   5.039   0.901  19.331
   27BGLCN    O18650   5.133   0.844  19.385
   27BGLCN   CT18651   4.901   0.839  19.338
   27BGLCN  HT118652   4.832   0.895  19.272
   27BGLCN  HT218653   4.864   0.836  19.441
   27BGLCN  HT318654   4.910   0.734  19.303
   27BGLCN   C318655   5.245   1.163  19.318
   27BGLCN   H318656   5.183   1.256  19.314
   27BGLCN   O318657   5.235   1.101  19.449
   27BGLCN   C418658   5.384   1.200  19.270
   27BGLCN   H418659   5.450   1.110  19.269
   27BGLCN   O418660   5.442   1.299  19.353
   27BGLCN  HO418661   5.393   1.381  19.346
   27BGLCN   C618662   5.505   1.305  19.068
   27BGLCN  H6118663   5.537   1.397  19.122
   27BGLCN  H6218664   5.586   1.229  19.081
   27BGLCN   O618665   5.488   1.339  18.930
   27BGLCN  HO618666   5.573   1.359  18.889
   28AGAL    C118667   5.247   1.185  19.560
   28AGAL    H118668   5.353   1.217  19.568
   28AGAL    C518669   5.023   1.272  19.549
   28AGAL    H518670   5.000   1.188  19.479
   28AGAL    O518671   5.165   1.303  19.542
   28AGAL    C218672   5.211   1.123  19.697
   28AGAL    H218673   5.231   1.209  19.765
   28AGAL    O218674   5.291   1.014  19.745
   28AGAL    C318675   5.064   1.090  19.705
   28AGAL    H318676   5.039   1.022  19.621
   28AGAL    O318677   5.021   1.021  19.822
   28AGAL   HO318678   4.983   0.936  19.798
   28AGAL    C418679   4.988   1.218  19.685
   28AGAL    H418680   4.881   1.193  19.689
   28AGAL    O418681   5.011   1.315  19.786
   28AGAL   HO418682   4.936   1.313  19.847
   28AGAL    C618683   4.937   1.388  19.500
   28AGAL   H6118684   4.958   1.403  19.392
   28AGAL   H6218685   4.829   1.369  19.510
   28AGAL    O618686   4.959   1.511  19.567
   28AGAL   HO618687   5.042   1.551  19.537
   29ARHM    C118688   5.316   1.032  19.883
   29ARHM    H118689   5.236   1.092  19.932
   29ARHM    C518690   5.551   1.027  19.847
   29ARHM    H518691   5.530   1.009  19.740
   29ARHM    O518692   5.441   1.098  19.905
   29ARHM    C218693   5.319   0.899  19.952
   29ARHM    H218694   5.223   0.847  19.928
   29ARHM    O218695   5.332   0.917  20.096
   29ARHM    C318696   5.433   0.818  19.896
   29ARHM    H318697   5.417   0.804  19.786
   29ARHM    O318698   5.432   0.689  19.955
   29ARHM   HO318699   5.524   0.660  19.959
   29ARHM    C418700   5.566   0.891  19.915
   29ARHM    H418701   5.585   0.914  20.021
   29ARHM    O418702   5.679   0.816  19.869
   29ARHM   HO418703   5.667   0.785  19.778
   29ARHM    C618704   5.669   1.125  19.859
   29ARHM   H6118705   5.636   1.221  19.814
   29ARHM   H6218706   5.698   1.141  19.965
   29ARHM   H6318707   5.754   1.086  19.800
   30ARHM    C118708   5.214   0.911  20.173
   30ARHM    H118709   5.160   0.816  20.152
   30ARHM    C518710   5.188   1.148  20.185
   30ARHM    H518711   5.282   1.154  20.127
   30ARHM    O518712   5.126   1.023  20.152
   30ARHM    C218713   5.254   0.912  20.319
   30ARHM    H218714   5.325   0.828  20.339
   30ARHM    O218715   5.134   0.901  20.396
   30ARHM    C318716   5.321   1.042  20.359
   30ARHM    H318717   5.406   1.057  20.288
   30ARHM    O318718   5.378   1.034  20.491
   30ARHM    C418719   5.224   1.155  20.332
   30ARHM    H418720   5.130   1.143  20.391
   30ARHM    O418721   5.274   1.282  20.367
   30ARHM   HO418722   5.337   1.320  20.305
   30ARHM    C618723   5.100   1.266  20.140
   30ARHM   H6118724   5.151   1.362  20.159
   30ARHM   H6218725   5.078   1.258  20.032
   30ARHM   H6318726   5.004   1.265  20.193
   31BMANN   C118727   5.097   0.771  20.425
   31BMANN   H118728   5.187   0.710  20.451
   31BMANN   C518729   4.973   0.579  20.356
   31BMANN   H518730   5.067   0.526  20.386
   31BMANN   O518731   5.018   0.712  20.322
   31BMANN   C218732   5.009   0.785  20.545
   31BMANN   H218733   5.073   0.825  20.627
   31BMANN    N18734   4.903   0.881  20.519
   31BMANN   HN18735   4.887   0.899  20.422
   31BMANN    C18736   4.846   0.955  20.614
   31BMANN    O18737   4.878   0.946  20.731
   31BMANN   CT18738   4.740   1.049  20.570
   31BMANN  HT118739   4.678   1.002  20.492
   31BMANN  HT218740   4.785   1.141  20.528
   31BMANN  HT318741   4.675   1.079  20.655
   31BMANN   C318742   4.963   0.648  20.587
   31BMANN   H318743   5.052   0.584  20.604
   31BMANN   O318744   4.895   0.657  20.710
   31BMANN  HO318745   4.921   0.742  20.750
   31BMANN   C418746   4.883   0.584  20.477
   31BMANN   H418747   4.793   0.645  20.449
   31BMANN   O418748   4.836   0.455  20.511
   31BMANN  HO418749   4.902   0.406  20.560
   31BMANN   C618750   4.910   0.503  20.241
   31BMANN  H6118751   4.897   0.396  20.267
   31BMANN  H6218752   4.807   0.541  20.222
   31BMANN   O618753   4.984   0.512  20.119
   31BMANN  HO618754   5.065   0.461  20.123
   32BGLCN   C118755   5.289   1.059  20.597
   32BGLCN   H118756   5.191   1.014  20.577
   32BGLCN   C518757   5.171   1.218  20.728
   32BGLCN   H518758   5.077   1.168  20.694
   32BGLCN   O518759   5.269   1.197  20.626
   32BGLCN   C218760   5.344   0.992  20.721
   32BGLCN   H218761   5.435   1.050  20.751
   32BGLCN    N18762   5.381   0.854  20.693
   32BGLCN   HN18763   5.325   0.814  20.623
   32BGLCN    C18764   5.484   0.786  20.744
   32BGLCN    O18765   5.560   0.830  20.828
   32BGLCN   CT18766   5.501   0.647  20.690
   32BGLCN  HT118767   5.442   0.641  20.596
   32BGLCN  HT218768   5.465   0.569  20.760
   32BGLCN  HT318769   5.607   0.628  20.667
   32BGLCN   C318770   5.238   1.004  20.829
   32BGLCN   H318771   5.143   0.965  20.784
   32BGLCN   O318772   5.266   0.925  20.946
   32BGLCN   C418773   5.218   1.151  20.856
   32BGLCN   H418774   5.316   1.194  20.888
   32BGLCN   O418775   5.124   1.173  20.960
   32BGLCN  HO418776   5.171   1.171  21.044
   32BGLCN   C618777   5.141   1.367  20.741
   32BGLCN  H6118778   5.056   1.386  20.810
   32BGLCN  H6218779   5.227   1.419  20.787
   32BGLCN   O618780   5.110   1.427  20.615
   32BGLCN  HO618781   5.059   1.363  20.563
   33AGAL    C118782   5.151   0.867  21.005
   33AGAL    H118783   5.064   0.937  20.997
   33AGAL    C518784   5.213   0.640  20.957
   33AGAL    H518785   5.306   0.689  20.921
   33AGAL    O518786   5.113   0.743  20.942
   33AGAL    C218787   5.177   0.838  21.151
   33AGAL    H218788   5.087   0.786  21.189
   33AGAL    O218789   5.186   0.961  21.224
   33AGAL    C318790   5.290   0.735  21.168
   33AGAL    H318791   5.379   0.770  21.109
   33AGAL    O318792   5.340   0.724  21.301
   33AGAL   HO318793   5.270   0.700  21.363
   33AGAL    C418794   5.245   0.604  21.103
   33AGAL    H418795   5.329   0.532  21.103
   33AGAL    O418796   5.138   0.536  21.169
   33AGAL   HO418797   5.084   0.592  21.224
   33AGAL    C618798   5.190   0.523  20.862
   33AGAL   H6118799   5.196   0.565  20.760
   33AGAL   H6218800   5.271   0.448  20.873
   33AGAL    O618801   5.066   0.453  20.873
   33AGAL   HO618802   4.994   0.496  20.824
   34ARHM    C118803   5.107   0.966  21.342
   34ARHM    H118804   5.129   0.875  21.401
   34ARHM    C518805   4.917   1.080  21.243
   34ARHM    H518806   4.964   1.076  21.143
   34ARHM    O518807   4.964   0.967  21.319
   34ARHM    C218808   5.151   1.090  21.418
   34ARHM    H218809   5.263   1.093  21.422
   34ARHM    O218810   5.101   1.097  21.554
   34ARHM    C318811   5.107   1.211  21.337
   34ARHM    H318812   5.153   1.207  21.236
   34ARHM    O318813   5.152   1.333  21.398
   34ARHM   HO318814   5.170   1.396  21.328
   34ARHM    C418815   4.957   1.208  21.317
   34ARHM    H418816   4.904   1.206  21.415
   34ARHM    O418817   4.916   1.323  21.244
   34ARHM   HO418818   4.911   1.399  21.304
   34ARHM    C618819   4.764   1.076  21.219
   34ARHM   H6118820   4.709   1.072  21.314
   34ARHM   H6218821   4.732   1.171  21.170
   34ARHM   H6318822   4.729   0.993  21.154
   35ARHM    C118823   5.130   0.991  21.643
   35ARHM    H118824   5.234   0.953  21.624
   35ARHM    C518825   4.900   0.925  21.657
   35ARHM    H518826   4.869   1.006  21.588
   35ARHM    O518827   5.035   0.883  21.630
   35ARHM    C218828   5.124   1.041  21.787
   35ARHM    H218829   5.196   1.124  21.803
   35ARHM    O218830   5.157   0.934  21.879
   35ARHM    C318831   4.986   1.092  21.820
   35ARHM    H318832   4.960   1.173  21.748
   35ARHM    O318833   4.981   1.153  21.949
   35ARHM   HO318834   5.033   1.100  22.011
   35ARHM    C418835   4.887   0.977  21.802
   35ARHM    H418836   4.911   0.893  21.871
   35ARHM    O418837   4.753   1.021  21.830
   35ARHM   HO418838   4.741   1.109  21.794
   35ARHM    C618839   4.807   0.806  21.622
   35ARHM   H6118840   4.806   0.783  21.513
   35ARHM   H6218841   4.835   0.715  21.679
   35ARHM   H6318842   4.704   0.835  21.650
   36BMANN   C118843   5.292   0.899  21.883
   36BMANN   H118844   5.355   0.984  21.848
   36BMANN   C518845   5.467   0.758  21.808
   36BMANN   H518846   5.522   0.850  21.779
   36BMANN   O518847   5.325   0.786  21.802
   36BMANN   C218848   5.324   0.867  22.028
   36BMANN   H218849   5.302   0.961  22.084
   36BMANN    N18850   5.243   0.760  22.086
   36BMANN   HN18851   5.217   0.687  22.024
   36BMANN    C18852   5.214   0.754  22.219
   36BMANN    O18853   5.244   0.842  22.299
   36BMANN   CT18854   5.146   0.630  22.269
   36BMANN  HT118855   5.189   0.542  22.221
   36BMANN  HT218856   5.038   0.631  22.250
   36BMANN  HT318857   5.161   0.623  22.379
   36BMANN   C318858   5.472   0.838  22.038
   36BMANN   H318859   5.529   0.927  22.001
   36BMANN   O318860   5.512   0.813  22.173
   36BMANN  HO318861   5.576   0.877  22.204
   36BMANN   C418862   5.508   0.722  21.950
   36BMANN   H418863   5.454   0.630  21.981
   36BMANN   O418864   5.646   0.692  21.961
   36BMANN  HO418865   5.658   0.678  22.056
   36BMANN   C618866   5.506   0.651  21.709
   36BMANN  H6118867   5.475   0.681  21.606
   36BMANN  H6218868   5.618   0.647  21.707
   36BMANN   O618869   5.453   0.523  21.747
   36BMANN  HO618870   5.521   0.479  21.799
    1ECLIP HB6S18871   3.461   7.321  11.779
    1ECLIP  OB618872   3.614   7.371  11.908
    1ECLIP  CB618873   3.521   7.411  11.806
    1ECLIP HB6R18874   3.450   7.488  11.846
    1ECLIP  CB518875   3.584   7.469  11.680
    1ECLIP  OB518876   3.675   7.369  11.632
    1ECLIP  HB518877   3.638   7.562  11.710
    1ECLIP  CB118878   3.746   7.411  11.515
    1ECLIP  HB118879   3.801   7.507  11.533
    1ECLIP  OA618880   3.841   7.317  11.469
    1ECLIP  CA618881   3.807   7.180  11.493
    1ECLIP HA6R18882   3.698   7.165  11.512
    1ECLIP HA6S18883   3.865   7.144  11.581
    1ECLIP  CB418884   3.481   7.504  11.569
    1ECLIP  HB418885   3.420   7.414  11.542
    1ECLIP  OB418886   3.402   7.614  11.618
    1ECLIP   PB18887   3.244   7.595  11.664
    1ECLIP OPB418888   3.217   7.691  11.781
    1ECLIP OPB318889   3.237   7.447  11.702
    1ECLIP OPB218890   3.157   7.639  11.545
    1ECLIP  CB318891   3.557   7.548  11.446
    1ECLIP  OB318892   3.474   7.572  11.332
    1ECLIP  HB318893   3.621   7.636  11.470
    1ECLIP  C7118894   3.425   7.692  11.311
    1ECLIP  O7118895   3.465   7.797  11.359
    1ECLIP  C7218896   3.352   7.694  11.174
    1ECLIP H72R18897   3.423   7.659  11.096
    1ECLIP H72S18898   3.320   7.797  11.153
    1ECLIP  CB218899   3.650   7.437  11.403
    1ECLIP  HB218900   3.588   7.343  11.388
    1ECLIP  NB218901   3.722   7.473  11.281
    1ECLIP HNB218902   3.808   7.521  11.294
    1ECLIP  CA418903   3.980   7.136  11.316
    1ECLIP  HA418904   3.974   7.244  11.288
    1ECLIP  OA418905   4.078   7.119  11.417
    1ECLIP HOA418906   4.046   7.159  11.499
    1ECLIP  CA518907   3.845   7.098  11.370
    1ECLIP  HA518908   3.836   6.989  11.393
    1ECLIP  OA518909   3.749   7.130  11.271
    1ECLIP  CA118910   3.769   7.059  11.147
    1ECLIP  HA118911   3.698   7.112  11.079
    1ECLIP  OA118912   3.734   6.922  11.150
    1ECLIP OPA218913   3.623   6.806  11.339
    1ECLIP OPA318914   3.494   6.992  11.227
    1ECLIP OPA418915   3.535   6.771  11.102
    1ECLIP   PA18916   3.586   6.872  11.207
    1ECLIP  CA318917   4.014   7.061  11.189
    1ECLIP  HA318918   4.019   6.951  11.210
    1ECLIP  OA318919   4.146   7.106  11.155
    1ECLIP  C3118920   4.160   7.219  11.087
    1ECLIP  O3118921   4.154   7.225  10.965
    1ECLIP  C3218922   4.250   7.315  11.165
    1ECLIP H32R18923   4.344   7.327  11.108
    1ECLIP H32S18924   4.273   7.274  11.266
    1ECLIP  CA218925   3.904   7.093  11.087
    1ECLIP  HA218926   3.903   7.203  11.070
    1ECLIP  NA218927   3.927   7.025  10.959
    1ECLIP HNA218928   4.015   6.982  10.948
    1ECLIP  C7318929   3.231   7.598  11.172
    1ECLIP H73R18930   3.171   7.615  11.265
    1ECLIP  O7318931   3.284   7.466  11.163
    1ECLIP  C8118932   3.226   7.367  11.229
    1ECLIP  O8118933   3.123   7.375  11.294
    1ECLIP  C8218934   3.273   7.234  11.170
    1ECLIP H82R18935   3.223   7.151  11.223
    1ECLIP H82S18936   3.381   7.223  11.192
    1ECLIP  C8318937   3.251   7.223  11.017
    1ECLIP H83R18938   3.334   7.277  10.965
    1ECLIP H83S18939   3.155   7.272  10.990
    1ECLIP  C8418940   3.256   7.078  10.965
    1ECLIP H84R18941   3.166   7.021  10.996
    1ECLIP H84S18942   3.346   7.030  11.013
    1ECLIP  C8518943   3.276   7.070  10.813
    1ECLIP H85R18944   3.353   7.147  10.791
    1ECLIP H85S18945   3.184   7.100  10.760
    1ECLIP  C8618946   3.334   6.935  10.765
    1ECLIP H86R18947   3.253   6.865  10.736
    1ECLIP H86S18948   3.389   6.887  10.849
    1ECLIP  C8718949   3.438   6.952  10.652
    1ECLIP H87R18950   3.470   6.852  10.616
    1ECLIP H87S18951   3.529   7.001  10.694
    1ECLIP  C8818952   3.388   7.041  10.538
    1ECLIP H88R18953   3.391   7.147  10.571
    1ECLIP H88S18954   3.279   7.019  10.524
    1ECLIP  C8918955   3.468   7.026  10.408
    1ECLIP H89R18956   3.569   6.983  10.426
    1ECLIP H89S18957   3.485   7.126  10.362
    1ECLIP C81018958   3.389   6.943  10.306
    1ECLIPH810R18959   3.282   6.958  10.329
    1ECLIPH810S18960   3.414   6.835  10.323
    1ECLIP C81118961   3.417   6.981  10.160
    1ECLIPH811R18962   3.389   6.898  10.090
    1ECLIPH811S18963   3.526   7.000  10.152
    1ECLIP C81218964   3.347   7.109  10.110
    1ECLIPH812R18965   3.388   7.129  10.008
    1ECLIPH812S18966   3.373   7.193  10.177
    1ECLIP C81318967   3.195   7.104  10.100
    1ECLIPH813R18968   3.168   7.022  10.029
    1ECLIPH813S18969   3.149   7.080  10.199
    1ECLIP C81418970   3.135   7.235  10.049
    1ECLIPH814R18971   3.187   7.272   9.958
    1ECLIPH814S18972   3.143   7.313  10.128
    1ECLIPH814T18973   3.028   7.221  10.025
    1ECLIP  C7418974   3.137   7.616  11.049
    1ECLIP H74R18975   3.088   7.715  11.040
    1ECLIP H74S18976   3.054   7.543  11.068
    1ECLIP  C7518977   3.201   7.575  10.915
    1ECLIP H75R18978   3.121   7.524  10.856
    1ECLIP H75S18979   3.280   7.499  10.933
    1ECLIP  C7618980   3.262   7.689  10.831
    1ECLIP H76R18981   3.361   7.715  10.873
    1ECLIP H76S18982   3.197   7.779  10.834
    1ECLIP  C7718983   3.282   7.655  10.682
    1ECLIP H77R18984   3.182   7.639  10.635
    1ECLIP H77S18985   3.337   7.561  10.668
    1ECLIP  C7818986   3.365   7.767  10.616
    1ECLIP H78R18987   3.318   7.864  10.643
    1ECLIP H78S18988   3.463   7.765  10.669
    1ECLIP  C7918989   3.397   7.755  10.466
    1ECLIP H79R18990   3.496   7.706  10.454
    1ECLIP H79S18991   3.405   7.856  10.420
    1ECLIP C71018992   3.293   7.682  10.382
    1ECLIPH710R18993   3.274   7.581  10.423
    1ECLIPH710S18994   3.198   7.741  10.385
    1ECLIP C71118995   3.334   7.665  10.237
    1ECLIPH711R18996   3.351   7.765  10.193
    1ECLIPH711S18997   3.428   7.605  10.229
    1ECLIP C71218998   3.222   7.588  10.168
    1ECLIPH712R18999   3.130   7.652  10.166
    1ECLIPH712S19000   3.201   7.495  10.223
    1ECLIP C71319001   3.259   7.557  10.028
    1ECLIPH713R19002   3.349   7.490  10.023
    1ECLIPH713S19003   3.176   7.502   9.976
    1ECLIP C71419004   3.281   7.695   9.966
    1ECLIPH714R19005   3.192   7.745   9.925
    1ECLIPH714S19006   3.379   7.744   9.981
    1ECLIPH714T19007   3.324   7.686   9.875
    1ECLIP  C5119008   3.670   7.449  11.160
    1ECLIP  O5119009   3.577   7.372  11.144
    1ECLIP  C5219010   3.729   7.523  11.042
    1ECLIP H52R19011   3.678   7.621  11.030
    1ECLIP H52S19012   3.834   7.541  11.061
    1ECLIP  C5319013   3.714   7.441  10.912
    1ECLIP H53R19014   3.724   7.332  10.935
    1ECLIP  O5319015   3.813   7.486  10.819
    1ECLIP  C6119016   3.914   7.405  10.787
    1ECLIP  O6119017   3.928   7.291  10.823
    1ECLIP  C6219018   4.013   7.478  10.694
    1ECLIP H62R19019   4.084   7.538  10.755
    1ECLIP H62S19020   3.953   7.551  10.637
    1ECLIP  C6319021   4.094   7.379  10.607
    1ECLIP H63R19022   4.022   7.306  10.564
    1ECLIP H63S19023   4.168   7.323  10.670
    1ECLIP  C6419024   4.169   7.440  10.488
    1ECLIP H64R19025   4.229   7.362  10.435
    1ECLIP H64S19026   4.238   7.518  10.528
    1ECLIP  C6519027   4.066   7.500  10.393
    1ECLIP H65R19028   4.021   7.584  10.451
    1ECLIP H65S19029   3.989   7.429  10.360
    1ECLIP  C6619030   4.121   7.563  10.268
    1ECLIP H66R19031   4.200   7.627  10.311
    1ECLIP H66S19032   4.040   7.623  10.220
    1ECLIP  C6719033   4.187   7.481  10.156
    1ECLIP H67R19034   4.269   7.417  10.194
    1ECLIP H67S19035   4.232   7.546  10.076
    1ECLIP  C6819036   4.088   7.389  10.092
    1ECLIP H68R19037   3.998   7.441  10.050
    1ECLIP H68S19038   4.058   7.317  10.169
    1ECLIP  C6919039   4.153   7.322   9.975
    1ECLIP H69R19040   4.264   7.314   9.983
    1ECLIP H69S19041   4.135   7.399   9.896
    1ECLIP C61019042   4.093   7.181   9.949
    1ECLIPH610R19043   3.982   7.194   9.950
    1ECLIPH610S19044   4.128   7.111  10.024
    1ECLIP C61119045   4.129   7.110   9.820
    1ECLIPH611R19046   4.238   7.127   9.798
    1ECLIPH611S19047   4.113   7.005   9.794
    1ECLIP C61219048   4.027   7.166   9.732
    1ECLIPH612R19049   3.920   7.172   9.725
    1ECLIPH612S19050   4.053   7.273   9.759
    1ECLIPH612T19051   4.040   7.134   9.626
    1ECLIP  C5419052   3.574   7.470  10.853
    1ECLIP H54R19053   3.573   7.578  10.824
    1ECLIP H54S19054   3.500   7.456  10.934
    1ECLIP  C5519055   3.531   7.385  10.733
    1ECLIP H55R19056   3.421   7.394  10.719
    1ECLIP H55S19057   3.550   7.278  10.756
    1ECLIP  C5619058   3.600   7.435  10.605
    1ECLIP H56R19059   3.710   7.433  10.622
    1ECLIP H56S19060   3.572   7.541  10.587
    1ECLIP  C5719061   3.580   7.356  10.477
    1ECLIP H57R19062   3.472   7.342  10.454
    1ECLIP H57S19063   3.623   7.254  10.491
    1ECLIP  C5819064   3.653   7.426  10.361
    1ECLIP H58R19065   3.631   7.535  10.358
    1ECLIP H58S19066   3.762   7.418  10.382
    1ECLIP  C5919067   3.617   7.365  10.225
    1ECLIP H59R19068   3.507   7.369  10.208
    1ECLIP H59S19069   3.646   7.258  10.233
    1ECLIP C51019070   3.678   7.438  10.104
    1ECLIPH510R19071   3.786   7.460  10.119
    1ECLIPH510S19072   3.626   7.536  10.089
    1ECLIP C51119073   3.664   7.362   9.973
    1ECLIPH511R19074   3.745   7.285   9.966
    1ECLIPH511S19075   3.566   7.311   9.960
    1ECLIP C51219076   3.686   7.454   9.858
    1ECLIPH512R19077   3.664   7.391   9.772
    1ECLIPH512S19078   3.625   7.547   9.852
    1ECLIP C51319079   3.831   7.481   9.844
    1ECLIPH513R19080   3.883   7.384   9.823
    1ECLIPH513S19081   3.889   7.543   9.913
    1ECLIP C51419082   3.832   7.558   9.726
    1ECLIPH514R19083   3.770   7.647   9.709
    1ECLIPH514S19084   3.934   7.593   9.703
    1ECLIPH514T19085   3.800   7.479   9.654
    1ECLIP  C3319086   4.191   7.455  11.175
    1ECLIP H33R19087   4.272   7.520  11.215
    1ECLIP  O3319088   4.090   7.458  11.275
    1ECLIP HO3319089   4.124   7.452  11.365
    1ECLIP  C3419090   4.133   7.505  11.037
    1ECLIP H34R19091   4.048   7.443  11.005
    1ECLIP H34S19092   4.217   7.518  10.965
    1ECLIP  C3519093   4.058   7.635  11.029
    1ECLIP H35R19094   4.152   7.696  11.023
    1ECLIP H35S19095   3.990   7.645  11.117
    1ECLIP  C3619096   4.000   7.712  10.917
    1ECLIP H36R19097   3.955   7.630  10.869
    1ECLIP H36S19098   4.082   7.761  10.858
    1ECLIP  C3719099   3.880   7.800  10.959
    1ECLIP H37R19100   3.913   7.902  10.973
    1ECLIP H37S19101   3.827   7.772  11.051
    1ECLIP  C3819102   3.776   7.829  10.864
    1ECLIP H38R19103   3.708   7.746  10.867
    1ECLIP H38S19104   3.716   7.915  10.902
    1ECLIP  C3919105   3.847   7.840  10.736
    1ECLIP H39R19106   3.925   7.768  10.711
    1ECLIP H39S19107   3.911   7.932  10.751
    1ECLIP C31019108   3.739   7.823  10.625
    1ECLIPH310R19109   3.671   7.912  10.631
    1ECLIPH310S19110   3.664   7.746  10.640
    1ECLIP C31119111   3.808   7.798  10.490
    1ECLIPH311R19112   3.910   7.842  10.513
    1ECLIPH311S19113   3.843   7.698  10.470
    1ECLIP C31219114   3.725   7.833  10.360
    1ECLIPH312R19115   3.621   7.860  10.380
    1ECLIPH312S19116   3.733   7.929  10.304
    1ECLIP C31319117   3.786   7.791  10.229
    1ECLIPH313R19118   3.888   7.838  10.216
    1ECLIPH313S19119   3.799   7.685  10.241
    1ECLIP C31419120   3.692   7.832  10.115
    1ECLIPH314R19121   3.689   7.941  10.109
    1ECLIPH314S19122   3.725   7.793  10.018
    1ECLIPH314T19123   3.587   7.808  10.139
    1ECLIP  C1119124   3.835   7.001  10.862
    1ECLIP  O1119125   3.730   7.062  10.846
    1ECLIP  C1219126   3.871   6.887  10.769
    1ECLIP H12R19127   3.807   6.800  10.792
    1ECLIP H12S19128   3.977   6.861  10.788
    1ECLIP  C1319129   3.857   6.925  10.622
    1ECLIP H13R19130   3.763   6.982  10.601
    1ECLIP  O1319131   3.851   6.803  10.548
    1ECLIP HO1319132   3.803   6.808  10.465
    1ECLIP  C1419133   3.978   7.010  10.580
    1ECLIP H14R19134   4.070   6.974  10.632
    1ECLIP H14S19135   3.957   7.114  10.614
    1ECLIP  C1519136   4.008   7.016  10.431
    1ECLIP H15R19137   4.021   6.912  10.393
    1ECLIP H15S19138   4.106   7.068  10.419
    1ECLIP  C1619139   3.898   7.091  10.354
    1ECLIP H16R19140   3.912   7.200  10.364
    1ECLIP H16S19141   3.800   7.069  10.401
    1ECLIP  C1719142   3.899   7.052  10.206
    1ECLIP H17R19143   4.006   7.052  10.175
    1ECLIP H17S19144   3.845   7.125  10.143
    1ECLIP  C1819145   3.840   6.913  10.183
    1ECLIP H18R19146   3.897   6.842  10.246
    1ECLIP H18S19147   3.733   6.911  10.215
    1ECLIP  C1919148   3.849   6.868  10.038
    1ECLIP H19R19149   3.820   6.761  10.030
    1ECLIP H19S19150   3.954   6.878  10.001
    1ECLIP C11019151   3.758   6.950   9.948
    1ECLIPH110R19152   3.653   6.951   9.982
    1ECLIPH110S19153   3.797   7.054   9.948
    1ECLIP C11119154   3.762   6.893   9.807
    1ECLIPH111R19155   3.868   6.877   9.775
    1ECLIPH111S19156   3.714   6.793   9.812
    1ECLIP C11219157   3.686   6.981   9.708
    1ECLIPH112R19158   3.581   6.977   9.743
    1ECLIPH112S19159   3.717   7.087   9.716
    1ECLIP C11319160   3.711   6.935   9.563
    1ECLIPH113R19161   3.817   6.958   9.538
    1ECLIPH113S19162   3.702   6.826   9.561
    1ECLIP C11419163   3.620   6.987   9.451
    1ECLIPH114R19164   3.512   6.972   9.469
    1ECLIPH114S19165   3.639   7.094   9.434
    1ECLIPH114T19166   3.642   6.928   9.359
    2AKDO    C119167   3.667   7.592  11.978
    2AKDO   O1119168   3.589   7.690  11.980
    2AKDO   O1219169   3.789   7.594  11.944
    2AKDO    C219170   3.613   7.454  12.024
    2AKDO    C619171   3.423   7.343  12.122
    2AKDO    H619172   3.425   7.278  12.031
    2AKDO    O619173   3.481   7.468  12.083
    2AKDO    C319174   3.701   7.385  12.129
    2AKDO   H3119175   3.718   7.454  12.215
    2AKDO   H3219176   3.800   7.364  12.081
    2AKDO    C419177   3.643   7.254  12.173
    2AKDO    H419178   3.628   7.189  12.084
    2AKDO    O419179   3.724   7.190  12.273
    2AKDO    C519180   3.506   7.274  12.232
    2AKDO    H519181   3.461   7.172  12.244
    2AKDO    O519182   3.522   7.341  12.361
    2AKDO    C719183   3.275   7.360  12.153
    2AKDO    H719184   3.265   7.422  12.244
    2AKDO    O719185   3.214   7.232  12.174
    2AKDO   HO719186   3.190   7.199  12.086
    2AKDO    C819187   3.204   7.431  12.039
    2AKDO   H8119188   3.257   7.528  12.022
    2AKDO   H8219189   3.215   7.371  11.945
    2AKDO    O819190   3.065   7.456  12.069
    2AKDO   HO819191   3.045   7.539  12.024
    3AKDO    C119192   3.807   7.026  12.115
    3AKDO   O1119193   3.845   7.067  12.002
    3AKDO   O1219194   3.739   6.923  12.142
    3AKDO    C219195   3.839   7.117  12.237
    3AKDO    C619196   3.983   7.296  12.314
    3AKDO    H619197   3.895   7.361  12.334
    3AKDO    O619198   3.953   7.203  12.208
    3AKDO    C319199   3.872   7.042  12.368
    3AKDO   H3119200   3.960   6.977  12.351
    3AKDO   H3219201   3.788   6.974  12.395
    3AKDO    C419202   3.898   7.140  12.478
    3AKDO    H419203   3.813   7.211  12.484
    3AKDO    O419204   3.914   7.082  12.607
    3AKDO   HO419205   3.851   7.120  12.670
    3AKDO    C519206   4.018   7.220  12.440
    3AKDO    H519207   4.033   7.294  12.521
    3AKDO    O519208   4.135   7.139  12.423
    3AKDO   HO519209   4.113   7.075  12.354
    3AKDO    C719210   4.096   7.384  12.270
    3AKDO    H719211   4.184   7.319  12.246
    3AKDO    O719212   4.133   7.474  12.375
    3AKDO   HO719213   4.208   7.526  12.348
    3AKDO    C819214   4.054   7.460  12.147
    3AKDO   H8119215   4.020   7.389  12.069
    3AKDO   H8219216   3.970   7.529  12.169
    3AKDO    O819217   4.165   7.532  12.095
    3AKDO   HO819218   4.221   7.463  12.060
    4AHEP    C119219   3.426   7.310  12.461
    4AHEP    H119220   3.336   7.364  12.427
    4AHEP    C519221   3.483   7.087  12.536
    4AHEP    H519222   3.582   7.104  12.488
    4AHEP    O519223   3.388   7.172  12.467
    4AHEP    C219224   3.445   7.358  12.606
    4AHEP    H219225   3.481   7.463  12.604
    4AHEP    O219226   3.319   7.362  12.672
    4AHEP   HO219227   3.317   7.441  12.725
    4AHEP    C319228   3.545   7.276  12.686
    4AHEP    H319229   3.649   7.287  12.646
    4AHEP    O319230   3.544   7.319  12.824
    4AHEP    C419231   3.498   7.132  12.682
    4AHEP    H419232   3.400   7.119  12.733
    4AHEP    O419233   3.601   7.055  12.744
    4AHEP    P419234   3.577   6.973  12.888
    4AHEP  OP4219235   3.717   6.981  12.949
    4AHEP  OP4319236   3.535   6.832  12.844
    4AHEP  OP4419237   3.473   7.052  12.968
    4AHEP    C619238   3.442   6.938  12.517
    4AHEP    H619239   3.533   6.879  12.545
    4AHEP    O619240   3.333   6.890  12.598
    4AHEP   HO619241   3.367   6.833  12.670
    4AHEP    C719242   3.407   6.904  12.371
    4AHEP   H7119243   3.406   6.794  12.357
    4AHEP   H7219244   3.482   6.946  12.302
    4AHEP    O719245   3.279   6.950  12.324
    4AHEP   HO719246   3.216   6.898  12.374
    5AHEP    C119247   3.664   7.364  12.883
    5AHEP    H119248   3.752   7.315  12.834
    5AHEP    C519249   3.566   7.576  12.933
    5AHEP    H519250   3.470   7.533  12.896
    5AHEP    O519251   3.674   7.507  12.867
    5AHEP    C219252   3.669   7.333  13.033
    5AHEP    H219253   3.654   7.223  13.045
    5AHEP    O219254   3.799   7.365  13.085
    5AHEP   HO219255   3.849   7.283  13.096
    5AHEP    C319256   3.556   7.403  13.109
    5AHEP    H319257   3.459   7.368  13.068
    5AHEP    O319258   3.557   7.382  13.252
    5AHEP    C419259   3.570   7.551  13.083
    5AHEP    H419260   3.669   7.589  13.121
    5AHEP    O419261   3.459   7.620  13.141
    5AHEP    P419262   3.482   7.727  13.266
    5AHEP  OP4219263   3.339   7.750  13.318
    5AHEP  OP4319264   3.553   7.848  13.204
    5AHEP  OP4419265   3.572   7.655  13.366
    5AHEP    C619266   3.567   7.723  12.897
    5AHEP    H619267   3.477   7.773  12.943
    5AHEP    O619268   3.688   7.787  12.943
    5AHEP   HO619269   3.760   7.772  12.882
    5AHEP    C719270   3.550   7.738  12.749
    5AHEP   H7119271   3.494   7.831  12.745
    5AHEP   H7219272   3.489   7.660  12.699
    5AHEP    O719273   3.673   7.766  12.683
    6AHEP    C119274   3.720   7.652  12.622
    6AHEP    H119275   3.665   7.561  12.647
    6AHEP    C519276   3.780   7.762  12.429
    6AHEP    H519277   3.739   7.851  12.486
    6AHEP    O519278   3.703   7.658  12.482
    6AHEP    C219279   3.861   7.629  12.671
    6AHEP    H219280   3.864   7.621  12.781
    6AHEP    O219281   3.907   7.508  12.615
    6AHEP   HO219282   3.935   7.451  12.686
    6AHEP    C319283   3.951   7.735  12.635
    6AHEP    H319284   3.911   7.836  12.670
    6AHEP    O319285   4.086   7.724  12.696
    6AHEP   HO319286   4.119   7.802  12.742
    6AHEP    C419287   3.929   7.726  12.485
    6AHEP    H419288   3.965   7.648  12.420
    6AHEP    O419289   4.045   7.769  12.451
    6AHEP   HO419290   4.023   7.861  12.476
    6AHEP    C619291   3.754   7.808  12.281
    6AHEP    H619292   3.789   7.907  12.243
    6AHEP    O619293   3.828   7.727  12.195
    6AHEP   HO619294   3.769   7.696  12.125
    6AHEP    C719295   3.610   7.842  12.251
    6AHEP   H7119296   3.602   7.887  12.149
    6AHEP   H7219297   3.580   7.917  12.328
    6AHEP    O719298   3.526   7.729  12.266
    6AHEP   HO719299   3.520   7.715  12.360
    7AGLC    C119300   3.479   7.277  13.302
    7AGLC    H119301   3.379   7.274  13.252
    7AGLC    C519302   3.672   7.143  13.346
    7AGLC    H519303   3.736   7.230  13.318
    7AGLC    O519304   3.545   7.153  13.280
    7AGLC    C219305   3.454   7.282  13.453
    7AGLC    H219306   3.404   7.186  13.479
    7AGLC    O219307   3.362   7.383  13.493
    7AGLC   HO219308   3.411   7.468  13.492
    7AGLC    C319309   3.581   7.281  13.533
    7AGLC    H319310   3.643   7.366  13.497
    7AGLC    O319311   3.557   7.298  13.676
    7AGLC    C419312   3.651   7.150  13.497
    7AGLC    H419313   3.586   7.064  13.529
    7AGLC    O419314   3.779   7.144  13.561
    7AGLC   HO419315   3.795   7.058  13.602
    7AGLC    C619316   3.741   7.020  13.288
    7AGLC   H6119317   3.750   7.035  13.177
    7AGLC   H6219318   3.845   7.008  13.326
    7AGLC    O619319   3.669   6.899  13.312
    7AGLC   HO619320   3.706   6.860  13.391
    8AGLC    C119321   3.620   7.415  13.728
    8AGLC    H119322   3.723   7.425  13.687
    8AGLC    C519323   3.420   7.554  13.758
    8AGLC    H519324   3.358   7.467  13.725
    8AGLC    O519325   3.548   7.536  13.695
    8AGLC    C219326   3.637   7.411  13.880
    8AGLC    H219327   3.695   7.503  13.906
    8AGLC    O219328   3.711   7.300  13.932
    8AGLC    C319329   3.504   7.418  13.949
    8AGLC    H319330   3.445   7.332  13.908
    8AGLC    O319331   3.525   7.396  14.091
    8AGLC    C419332   3.438   7.548  13.910
    8AGLC    H419333   3.505   7.632  13.940
    8AGLC    O419334   3.313   7.563  13.977
    8AGLC   HO419335   3.270   7.479  13.972
    8AGLC    C619336   3.341   7.678  13.710
    8AGLC   H6119337   3.344   7.688  13.599
    8AGLC   H6219338   3.233   7.668  13.738
    8AGLC    O619339   3.383   7.801  13.767
    8AGLC   HO619340   3.346   7.806  13.855
    9AGAL    C119341   3.839   7.276  13.880
    9AGAL    H119342   3.839   7.280  13.769
    9AGAL    C519343   3.958   7.367  14.064
    9AGAL    H519344   3.857   7.374  14.109
    9AGAL    O519345   3.937   7.373  13.922
    9AGAL    C219346   3.880   7.136  13.921
    9AGAL    H219347   3.978   7.121  13.873
    9AGAL    O219348   3.788   7.044  13.857
    9AGAL    C319349   3.903   7.127  14.070
    9AGAL    H319350   3.809   7.150  14.125
    9AGAL    O319351   3.938   6.995  14.112
    9AGAL   HO319352   3.887   6.939  14.053
    9AGAL    C419353   4.011   7.229  14.104
    9AGAL    H419354   4.036   7.226  14.211
    9AGAL    O419355   4.135   7.202  14.041
    9AGAL   HO419356   4.206   7.239  14.095
    9AGAL    C619357   4.033   7.487  14.119
    9AGAL   H6119358   3.976   7.580  14.096
    9AGAL   H6219359   4.041   7.485  14.229
    9AGAL    O619360   4.167   7.498  14.070
    9AGAL   HO619361   4.167   7.566  14.002
   10AGAL    C119362   3.738   6.923  13.911
   10AGAL    H119363   3.822   6.849  13.919
   10AGAL    C519364   3.557   7.018  14.041
   10AGAL    H519365   3.592   7.116  14.001
   10AGAL    O519366   3.674   6.932  14.041
   10AGAL    C219367   3.637   6.871  13.811
   10AGAL    H219368   3.599   6.775  13.848
   10AGAL    O219369   3.693   6.840  13.684
   10AGAL   HO219370   3.670   6.749  13.663
   10AGAL    C319371   3.516   6.963  13.806
   10AGAL    H319372   3.552   7.065  13.780
   10AGAL    O319373   3.423   6.921  13.706
   10AGAL   HO319374   3.419   6.987  13.636
   10AGAL    C419375   3.452   6.966  13.944
   10AGAL    H419376   3.367   7.038  13.944
   10AGAL    O419377   3.404   6.837  13.980
   10AGAL   HO419378   3.480   6.783  14.000
   10AGAL    C619379   3.500   7.054  14.179
   10AGAL   H6119380   3.582   7.087  14.246
   10AGAL   H6219381   3.431   7.142  14.164
   10AGAL    O619382   3.427   6.952  14.247
   10AGAL   HO619383   3.469   6.925  14.330
   11BGLC    C119384   3.537   7.502  14.185
   11BGLC    H119385   3.439   7.551  14.197
   11BGLC    C519386   3.661   7.700  14.252
   11BGLC    H519387   3.567   7.757  14.276
   11BGLC    O519388   3.641   7.597  14.150
   11BGLC    C219389   3.579   7.436  14.315
   11BGLC    H219390   3.674   7.380  14.300
   11BGLC    O219391   3.482   7.340  14.355
   11BGLC   HO219392   3.525   7.255  14.366
   11BGLC    C319393   3.605   7.534  14.428
   11BGLC    H319394   3.513   7.586  14.457
   11BGLC    O319395   3.661   7.467  14.542
   11BGLC    C419396   3.709   7.632  14.379
   11BGLC    H419397   3.801   7.577  14.353
   11BGLC    O419398   3.746   7.725  14.480
   11BGLC   HO419399   3.787   7.676  14.552
   11BGLC    C619400   3.753   7.802  14.191
   11BGLC   H6119401   3.805   7.869  14.264
   11BGLC   H6219402   3.829   7.750  14.131
   11BGLC    O619403   3.677   7.884  14.105
   11BGLC   HO619404   3.694   7.976  14.129
   12BGLCN   C119405   3.597   7.478  14.668
   12BGLCN   H119406   3.511   7.407  14.673
   12BGLCN   C519407   3.487   7.621  14.824
   12BGLCN   H519408   3.401   7.550  14.832
   12BGLCN   O519409   3.549   7.610  14.694
   12BGLCN   C219410   3.702   7.443  14.771
   12BGLCN   H219411   3.779   7.525  14.767
   12BGLCN    N19412   3.758   7.313  14.740
   12BGLCN   HN19413   3.692   7.240  14.732
   12BGLCN    C19414   3.889   7.293  14.726
   12BGLCN    O19415   3.969   7.384  14.741
   12BGLCN   CT19416   3.936   7.155  14.690
   12BGLCN  HT119417   3.988   7.109  14.777
   12BGLCN  HT219418   4.009   7.160  14.608
   12BGLCN  HT319419   3.848   7.093  14.661
   12BGLCN   C319420   3.646   7.446  14.912
   12BGLCN   H319421   3.564   7.371  14.917
   12BGLCN   O319422   3.745   7.408  15.012
   12BGLCN   C419423   3.591   7.586  14.931
   12BGLCN   H419424   3.672   7.662  14.925
   12BGLCN   O419425   3.536   7.595  15.061
   12BGLCN  HO419426   3.449   7.557  15.065
   12BGLCN   C619427   3.430   7.761  14.829
   12BGLCN  H6119428   3.382   7.781  14.928
   12BGLCN  H6219429   3.514   7.834  14.819
   12BGLCN   O619430   3.334   7.784  14.724
   12BGLCN  HO619431   3.248   7.762  14.759
   13AGAL    C119432   3.696   7.327  15.119
   13AGAL    H119433   3.596   7.364  15.151
   13AGAL    C519434   3.822   7.129  15.063
   13AGAL    H519435   3.873   7.198  14.991
   13AGAL    O519436   3.690   7.187  15.082
   13AGAL    C219437   3.781   7.331  15.247
   13AGAL    H219438   3.736   7.257  15.317
   13AGAL    O219439   3.774   7.459  15.312
   13AGAL    C319440   3.921   7.277  15.226
   13AGAL    H319441   3.967   7.329  15.139
   13AGAL    O319442   4.006   7.298  15.339
   13AGAL   HO319443   4.093   7.319  15.305
   13AGAL    C419444   3.909   7.131  15.189
   13AGAL    H419445   4.010   7.094  15.163
   13AGAL    O419446   3.863   7.049  15.298
   13AGAL   HO419447   3.784   7.087  15.337
   13AGAL    C619448   3.826   6.996  14.991
   13AGAL   H6119449   3.768   7.004  14.897
   13AGAL   H6219450   3.933   6.973  14.967
   13AGAL    O619451   3.776   6.887  15.068
   13AGAL   HO619452   3.842   6.862  15.134
   14ARHM    C119453   3.707   7.464  15.437
   14ARHM    H119454   3.630   7.384  15.440
   14ARHM    C519455   3.729   7.700  15.454
   14ARHM    H519456   3.782   7.697  15.357
   14ARHM    O519457   3.639   7.588  15.457
   14ARHM    C219458   3.808   7.444  15.547
   14ARHM    H219459   3.862   7.348  15.529
   14ARHM    O219460   3.757   7.445  15.683
   14ARHM    C319461   3.906   7.558  15.542
   14ARHM    H319462   3.947   7.567  15.438
   14ARHM    O319463   4.018   7.532  15.625
   14ARHM   HO319464   3.997   7.550  15.716
   14ARHM    C419465   3.831   7.687  15.568
   14ARHM    H419466   3.773   7.683  15.663
   14ARHM    O419467   3.919   7.799  15.574
   14ARHM   HO419468   3.926   7.832  15.664
   14ARHM    C619469   3.646   7.828  15.463
   14ARHM   H6119470   3.558   7.823  15.397
   14ARHM   H6219471   3.612   7.841  15.568
   14ARHM   H6319472   3.703   7.918  15.432
   15ARHM    C119473   3.652   7.358  15.711
   15ARHM    H119474   3.654   7.272  15.640
   15ARHM    C519475   3.501   7.526  15.799
   15ARHM    H519476   3.569   7.614  15.781
   15ARHM    O519477   3.523   7.421  15.703
   15ARHM    C219478   3.674   7.303  15.850
   15ARHM    H219479   3.777   7.261  15.857
   15ARHM    O219480   3.578   7.196  15.866
   15ARHM    C319481   3.662   7.415  15.949
   15ARHM    H319482   3.732   7.496  15.920
   15ARHM    O319483   3.702   7.364  16.076
   15ARHM    C419484   3.521   7.470  15.939
   15ARHM    H419485   3.450   7.386  15.952
   15ARHM    O419486   3.489   7.566  16.038
   15ARHM   HO419487   3.395   7.583  16.032
   15ARHM    C619488   3.357   7.577  15.781
   15ARHM   H6119489   3.343   7.668  15.842
   15ARHM   H6219490   3.339   7.598  15.674
   15ARHM   H6319491   3.283   7.504  15.818
   16BMANN   C119492   3.573   7.123  15.987
   16BMANN   H119493   3.534   7.190  16.068
   16BMANN   C519494   3.690   7.002  16.157
   16BMANN   H519495   3.647   7.073  16.232
   16BMANN   O519496   3.700   7.069  16.028
   16BMANN   C219497   3.474   7.008  15.968
   16BMANN   H219498   3.376   7.055  15.940
   16BMANN    N19499   3.510   6.914  15.862
   16BMANN   HN19500   3.558   6.833  15.891
   16BMANN    C19501   3.472   6.922  15.734
   16BMANN    O19502   3.400   7.010  15.691
   16BMANN   CT19503   3.526   6.814  15.644
   16BMANN  HT119504   3.448   6.742  15.618
   16BMANN  HT219505   3.609   6.759  15.690
   16BMANN  HT319506   3.558   6.858  15.547
   16BMANN   C319507   3.461   6.937  16.101
   16BMANN   H319508   3.424   7.011  16.176
   16BMANN   O319509   3.364   6.834  16.094
   16BMANN  HO319510   3.300   6.851  16.165
   16BMANN   C419511   3.595   6.884  16.148
   16BMANN   H419512   3.633   6.813  16.073
   16BMANN   O419513   3.590   6.813  16.273
   16BMANN  HO419514   3.668   6.760  16.286
   16BMANN   C619515   3.825   6.959  16.213
   16BMANN  H6119516   3.817   6.959  16.324
   16BMANN  H6219517   3.848   6.856  16.179
   16BMANN   O619518   3.935   7.041  16.178
   16BMANN  HO619519   3.997   6.992  16.123
   17BGLCN   C119520   3.779   7.453  16.151
   17BGLCN   H119521   3.742   7.556  16.135
   17BGLCN   C519522   3.998   7.535  16.194
   17BGLCN   H519523   3.971   7.642  16.172
   17BGLCN   O519524   3.917   7.448  16.114
   17BGLCN   C219525   3.762   7.408  16.295
   17BGLCN   H219526   3.807   7.307  16.311
   17BGLCN    N19527   3.621   7.397  16.326
   17BGLCN   HN19528   3.563   7.458  16.274
   17BGLCN    C19529   3.564   7.320  16.418
   17BGLCN    O19530   3.623   7.236  16.485
   17BGLCN   CT19531   3.417   7.348  16.439
   17BGLCN  HT119532   3.353   7.273  16.389
   17BGLCN  HT219533   3.396   7.451  16.404
   17BGLCN  HT319534   3.396   7.345  16.548
   17BGLCN   C319535   3.837   7.509  16.380
   17BGLCN   H319536   3.799   7.608  16.346
   17BGLCN   O319537   3.802   7.491  16.520
   17BGLCN   C419538   3.984   7.501  16.342
   17BGLCN   H419539   4.020   7.396  16.352
   17BGLCN   O419540   4.065   7.586  16.424
   17BGLCN  HO419541   4.159   7.575  16.408
   17BGLCN   C619542   4.140   7.512  16.149
   17BGLCN  H6119543   4.178   7.611  16.155
   17BGLCN  H6219544   4.203   7.454  16.218
   17BGLCN   O619545   4.160   7.471  16.015
   17BGLCN  HO619546   4.115   7.533  15.956
   18AGAL    C119547   3.796   7.609  16.598
   18AGAL    H119548   3.899   7.646  16.616
   18AGAL    C519549   3.582   7.682  16.521
   18AGAL    H519550   3.575   7.582  16.476
   18AGAL    O519551   3.722   7.714  16.535
   18AGAL    C219552   3.728   7.588  16.733
   18AGAL    H219553   3.728   7.691  16.776
   18AGAL    O219554   3.802   7.505  16.823
   18AGAL    C319555   3.580   7.548  16.720
   18AGAL    H319556   3.574   7.460  16.653
   18AGAL    O319557   3.520   7.508  16.844
   18AGAL   HO319558   3.468   7.427  16.834
   18AGAL    C419559   3.508   7.664  16.653
   18AGAL    H419560   3.402   7.637  16.630
   18AGAL    O419561   3.506   7.783  16.732
   18AGAL   HO419562   3.447   7.766  16.806
   18AGAL    C619563   3.521   7.767  16.413
   18AGAL   H6119564   3.576   7.741  16.319
   18AGAL   H6219565   3.414   7.739  16.400
   18AGAL    O619566   3.533   7.906  16.434
   18AGAL   HO619567   3.598   7.922  16.504
   19ARHM    C119568   3.796   7.560  16.953
   19ARHM    H119569   3.704   7.619  16.971
   19ARHM    C519570   4.019   7.593  16.954
   19ARHM    H519571   4.030   7.550  16.852
   19ARHM    O519572   3.895   7.655  16.968
   19ARHM    C219573   3.816   7.449  17.051
   19ARHM    H219574   3.743   7.368  17.026
   19ARHM    O219575   3.792   7.493  17.184
   19ARHM    C319576   3.952   7.389  17.036
   19ARHM    H319577   3.968   7.361  16.930
   19ARHM    O319578   3.967   7.276  17.117
   19ARHM   HO319579   3.943   7.304  17.205
   19ARHM    C419580   4.056   7.491  17.059
   19ARHM    H419581   4.044   7.530  17.163
   19ARHM    O419582   4.192   7.448  17.048
   19ARHM   HO419583   4.204   7.412  16.961
   19ARHM    C619584   4.100   7.704  16.941
   19ARHM   H6119585   4.090   7.784  16.869
   19ARHM   H6219586   4.091   7.750  17.044
   19ARHM   H6319587   4.199   7.653  16.915
   20ARHM    C119588   3.655   7.516  17.206
   20ARHM    H119589   3.592   7.478  17.123
   20ARHM    C519590   3.686   7.714  17.331
   20ARHM    H519591   3.796   7.701  17.318
   20ARHM    O519592   3.620   7.654  17.220
   20ARHM    C219593   3.621   7.441  17.331
   20ARHM    H219594   3.659   7.336  17.321
   20ARHM    O219595   3.481   7.441  17.353
   20ARHM    C319596   3.689   7.500  17.449
   20ARHM    H319597   3.799   7.498  17.432
   20ARHM    O319598   3.656   7.421  17.563
   20ARHM    C419599   3.644   7.643  17.459
   20ARHM    H419600   3.534   7.655  17.469
   20ARHM    O419601   3.707   7.703  17.571
   20ARHM   HO419602   3.714   7.797  17.549
   20ARHM    C619603   3.655   7.863  17.330
   20ARHM   H6119604   3.548   7.885  17.345
   20ARHM   H6219605   3.714   7.914  17.409
   20ARHM   H6319606   3.685   7.911  17.235
   21BMANN   C119607   3.419   7.341  17.277
   21BMANN   H119608   3.494   7.296  17.208
   21BMANN   C519609   3.274   7.284  17.102
   21BMANN   H519610   3.360   7.239  17.045
   21BMANN   O519611   3.320   7.391  17.188
   21BMANN   C219612   3.364   7.235  17.371
   21BMANN   H219613   3.453   7.198  17.429
   21BMANN    N19614   3.263   7.282  17.465
   21BMANN   HN19615   3.196   7.346  17.429
   21BMANN    C19616   3.251   7.244  17.595
   21BMANN    O19617   3.314   7.149  17.641
   21BMANN   CT19618   3.156   7.323  17.683
   21BMANN  HT119619   3.052   7.291  17.664
   21BMANN  HT219620   3.169   7.432  17.666
   21BMANN  HT319621   3.178   7.303  17.790
   21BMANN   C319622   3.316   7.123  17.283
   21BMANN   H319623   3.406   7.087  17.228
   21BMANN   O319624   3.268   7.014  17.359
   21BMANN  HO319625   3.197   7.046  17.416
   21BMANN   C419626   3.212   7.174  17.184
   21BMANN   H419627   3.122   7.213  17.238
   21BMANN   O419628   3.167   7.073  17.095
   21BMANN  HO419629   3.074   7.054  17.114
   21BMANN   C619630   3.179   7.336  16.998
   21BMANN  H6119631   3.171   7.260  16.917
   21BMANN  H6219632   3.079   7.349  17.045
   21BMANN   O619633   3.222   7.460  16.942
   21BMANN  HO619634   3.224   7.525  17.014
   22BGLCN   C119635   3.755   7.406  17.660
   22BGLCN   H119636   3.824   7.492  17.661
   22BGLCN   C519637   3.925   7.266  17.746
   22BGLCN   H519638   3.993   7.355  17.748
   22BGLCN   O519639   3.827   7.285  17.643
   22BGLCN   C219640   3.681   7.401  17.791
   22BGLCN   H219641   3.611   7.313  17.786
   22BGLCN    N19642   3.604   7.522  17.810
   22BGLCN   HN19643   3.644   7.606  17.775
   22BGLCN    C19644   3.487   7.530  17.872
   22BGLCN    O19645   3.429   7.436  17.925
   22BGLCN   CT19646   3.429   7.668  17.876
   22BGLCN  HT119647   3.358   7.676  17.790
   22BGLCN  HT219648   3.509   7.743  17.865
   22BGLCN  HT319649   3.379   7.690  17.972
   22BGLCN   C319650   3.779   7.382  17.905
   22BGLCN   H319651   3.852   7.466  17.902
   22BGLCN   O319652   3.702   7.389  18.026
   22BGLCN   C419653   3.855   7.255  17.882
   22BGLCN   H419654   3.783   7.171  17.878
   22BGLCN   O419655   3.950   7.229  17.985
   22BGLCN  HO419656   3.943   7.136  18.012
   22BGLCN   C619657   4.004   7.142  17.713
   22BGLCN  H6119658   4.057   7.108  17.804
   22BGLCN  H6219659   3.937   7.060  17.681
   22BGLCN   O619660   4.104   7.167  17.615
   22BGLCN  HO619661   4.067   7.203  17.533
   23AGAL    C119662   3.768   7.420  18.146
   23AGAL    H119663   3.824   7.330  18.181
   23AGAL    C519664   3.801   7.655  18.108
   23AGAL    H519665   3.737   7.645  18.018
   23AGAL    O519666   3.862   7.528  18.135
   23AGAL    C219667   3.669   7.453  18.255
   23AGAL    H219668   3.729   7.471  18.347
   23AGAL    O219669   3.577   7.344  18.280
   23AGAL    C319670   3.600   7.586  18.223
   23AGAL    H319671   3.556   7.581  18.122
   23AGAL    O319672   3.491   7.613  18.310
   23AGAL   HO319673   3.518   7.596  18.400
   23AGAL    C419674   3.706   7.695  18.222
   23AGAL    H419675   3.662   7.794  18.199
   23AGAL    O419676   3.773   7.706  18.347
   23AGAL   HO419677   3.860   7.746  18.325
   23AGAL    C619678   3.909   7.754  18.069
   23AGAL   H6119679   3.977   7.707  17.995
   23AGAL   H6219680   3.864   7.841  18.018
   23AGAL    O619681   3.987   7.799  18.181
   23AGAL   HO619682   4.065   7.847  18.151
   24ARHM    C119683   3.621   7.238  18.365
   24ARHM    H119684   3.731   7.242  18.375
   24ARHM    C519685   3.447   7.086  18.300
   24ARHM    H519686   3.410   7.164  18.231
   24ARHM    O519687   3.587   7.105  18.318
   24ARHM    C219688   3.553   7.263  18.498
   24ARHM    H219689   3.571   7.368  18.530
   24ARHM    O219690   3.597   7.170  18.598
   24ARHM    C319691   3.405   7.246  18.480
   24ARHM    H319692   3.376   7.316  18.400
   24ARHM    O319693   3.330   7.286  18.594
   24ARHM   HO319694   3.322   7.209  18.651
   24ARHM    C419695   3.375   7.104  18.433
   24ARHM    H419696   3.417   7.031  18.507
   24ARHM    O419697   3.236   7.081  18.417
   24ARHM   HO419698   3.214   6.989  18.436
   24ARHM    C619699   3.419   6.950  18.232
   24ARHM   H6119700   3.321   6.955  18.179
   24ARHM   H6219701   3.497   6.930  18.157
   24ARHM   H6319702   3.417   6.866  18.305
   25ARHM    C119703   3.722   7.200  18.651
   25ARHM    H119704   3.776   7.269  18.582
   25ARHM    C519705   3.754   6.988  18.755
   25ARHM    H519706   3.655   6.954  18.720
   25ARHM    O519707   3.808   7.085  18.664
   25ARHM    C219708   3.703   7.268  18.783
   25ARHM    H219709   3.626   7.348  18.773
   25ARHM    O219710   3.827   7.324  18.826
   25ARHM    C319711   3.648   7.168  18.881
   25ARHM    H319712   3.550   7.128  18.845
   25ARHM    O319713   3.634   7.234  19.007
   25ARHM    C419714   3.739   7.050  18.892
   25ARHM    H419715   3.840   7.081  18.920
   25ARHM    O419716   3.690   6.957  18.990
   25ARHM   HO419717   3.764   6.923  19.040
   25ARHM    C619718   3.845   6.866  18.757
   25ARHM   H6119719   3.866   6.828  18.655
   25ARHM   H6219720   3.939   6.897  18.805
   25ARHM   H6319721   3.801   6.785  18.819
   26BMANN   C119722   3.859   7.444  18.763
   26BMANN   H119723   3.768   7.494  18.721
   26BMANN   C519724   3.981   7.560  18.594
   26BMANN   H519725   3.886   7.600  18.553
   26BMANN   O519726   3.956   7.433  18.657
   26BMANN   C219727   3.912   7.531  18.870
   26BMANN   H219728   3.832   7.542  18.948
   26BMANN    N19729   4.035   7.476  18.929
   26BMANN   HN19730   4.106   7.452  18.864
   26BMANN    C19731   4.056   7.458  19.059
   26BMANN    O19732   3.969   7.476  19.142
   26BMANN   CT19733   4.197   7.420  19.099
   26BMANN  HT119734   4.248   7.364  19.018
   26BMANN  HT219735   4.200   7.361  19.191
   26BMANN  HT319736   4.253   7.512  19.121
   26BMANN   C319737   3.931   7.662  18.803
   26BMANN   H319738   3.837   7.704  18.767
   26BMANN   O319739   3.964   7.746  18.902
   26BMANN  HO319740   3.892   7.786  18.951
   26BMANN   C419741   4.034   7.658  18.694
   26BMANN   H419742   4.132   7.623  18.732
   26BMANN   O419743   4.053   7.786  18.635
   26BMANN  HO419744   4.122   7.829  18.688
   26BMANN   C619745   4.073   7.533  18.476
   26BMANN  H6119746   4.042   7.439  18.427
   26BMANN  H6219747   4.065   7.615  18.401
   26BMANN   O619748   4.208   7.521  18.518
   26BMANN  HO619749   4.236   7.610  18.544
   27BGLCN   C119750   3.520   7.204  19.083
   27BGLCN   H119751   3.493   7.097  19.079
   27BGLCN   C519752   3.295   7.258  19.128
   27BGLCN   H519753   3.276   7.148  19.130
   27BGLCN   O519754   3.408   7.282  19.043
   27BGLCN   C219755   3.562   7.245  19.223
   27BGLCN   H219756   3.582   7.355  19.220
   27BGLCN    N19757   3.684   7.176  19.265
   27BGLCN   HN19758   3.693   7.080  19.243
   27BGLCN    C19759   3.780   7.243  19.332
   27BGLCN    O19760   3.758   7.352  19.383
   27BGLCN   CT19761   3.917   7.181  19.342
   27BGLCN  HT119762   3.923   7.091  19.278
   27BGLCN  HT219763   3.947   7.157  19.445
   27BGLCN  HT319764   3.990   7.257  19.304
   27BGLCN   C319765   3.449   7.222  19.318
   27BGLCN   H319766   3.422   7.114  19.314
   27BGLCN   O319767   3.502   7.256  19.449
   27BGLCN   C419768   3.329   7.301  19.270
   27BGLCN   H419769   3.353   7.410  19.268
   27BGLCN   O419770   3.214   7.282  19.350
   27BGLCN  HO419771   3.191   7.188  19.348
   27BGLCN   C619772   3.171   7.322  19.069
   27BGLCN  H6119773   3.081   7.285  19.122
   27BGLCN  H6219774   3.174   7.433  19.081
   27BGLCN   O619775   3.158   7.289  18.930
   27BGLCN  HO619776   3.082   7.334  18.892
   28AGAL    C119777   3.432   7.209  19.561
   28AGAL    H119778   3.338   7.267  19.568
   28AGAL    C519779   3.517   6.984  19.549
   28AGAL    H519780   3.595   7.024  19.479
   28AGAL    O519781   3.400   7.069  19.542
   28AGAL    C219782   3.503   7.223  19.698
   28AGAL    H219783   3.425   7.181  19.766
   28AGAL    O219784   3.530   7.354  19.748
   28AGAL    C319785   3.626   7.135  19.706
   28AGAL    H319786   3.692   7.163  19.621
   28AGAL    O319787   3.709   7.147  19.822
   28AGAL   HO319788   3.796   7.181  19.795
   28AGAL    C419789   3.581   6.993  19.686
   28AGAL    H419790   3.671   6.929  19.684
   28AGAL    O419791   3.493   6.945  19.788
   28AGAL   HO419792   3.545   6.890  19.845
   28AGAL    C619793   3.487   6.843  19.501
   28AGAL   H6119794   3.462   6.848  19.393
   28AGAL   H6219795   3.576   6.776  19.512
   28AGAL    O619796   3.380   6.779  19.570
   28AGAL   HO619797   3.296   6.810  19.533
   29ARHM    C119798   3.500   7.363  19.885
   29ARHM    H119799   3.508   7.264  19.933
   29ARHM    C519800   3.349   7.543  19.851
   29ARHM    H519801   3.376   7.538  19.742
   29ARHM    O519802   3.367   7.413  19.908
   29ARHM    C219803   3.597   7.454  19.953
   29ARHM    H219804   3.700   7.417  19.928
   29ARHM    O219805   3.576   7.453  20.097
   29ARHM    C319806   3.583   7.592  19.897
   29ARHM    H319807   3.604   7.592  19.787
   29ARHM    O319808   3.680   7.675  19.961
   29ARHM   HO319809   3.640   7.762  19.958
   29ARHM    C419810   3.441   7.644  19.917
   29ARHM    H419811   3.418   7.648  20.026
   29ARHM    O419812   3.423   7.778  19.868
   29ARHM   HO419813   3.452   7.792  19.777
   29ARHM    C619814   3.198   7.565  19.859
   29ARHM   H6119815   3.148   7.476  19.813
   29ARHM   H6219816   3.164   7.575  19.963
   29ARHM   H6319817   3.169   7.655  19.800
   30ARHM    C119818   3.659   7.368  20.173
   30ARHM    H119819   3.766   7.391  20.153
   30ARHM    C519820   3.499   7.190  20.186
   30ARHM    H519821   3.432   7.257  20.127
   30ARHM    O519822   3.634   7.228  20.152
   30ARHM    C219823   3.631   7.397  20.319
   30ARHM    H219824   3.647   7.506  20.339
   30ARHM    O219825   3.719   7.317  20.396
   30ARHM    C319826   3.490   7.360  20.358
   30ARHM    H319827   3.423   7.413  20.287
   30ARHM    O319828   3.456   7.406  20.491
   30ARHM    C419829   3.470   7.213  20.332
   30ARHM    H419830   3.541   7.150  20.392
   30ARHM    O419831   3.341   7.167  20.368
   30ARHM   HO419832   3.274   7.180  20.301
   30ARHM    C619833   3.470   7.046  20.142
   30ARHM   H6119834   3.364   7.022  20.159
   30ARHM   H6219835   3.491   7.036  20.034
   30ARHM   H6319836   3.531   6.976  20.203
   31BMANN   C119837   3.841   7.376  20.426
   31BMANN   H119838   3.827   7.482  20.453
   31BMANN   C519839   4.067   7.413  20.357
   31BMANN   H519840   4.047   7.518  20.387
   31BMANN   O519841   3.938   7.358  20.322
   31BMANN   C219842   3.888   7.299  20.545
   31BMANN   H219843   3.816   7.321  20.628
   31BMANN    N19844   3.885   7.156  20.519
   31BMANN   HN19845   3.890   7.129  20.423
   31BMANN    C19846   3.868   7.065  20.614
   31BMANN    O19847   3.853   7.097  20.731
   31BMANN   CT19848   3.869   6.922  20.571
   31BMANN  HT119849   3.951   6.910  20.497
   31BMANN  HT219850   3.773   6.895  20.526
   31BMANN  HT319851   3.888   6.854  20.656
   31BMANN   C319852   4.021   7.356  20.587
   31BMANN   H319853   4.010   7.465  20.604
   31BMANN   O319854   4.060   7.305  20.712
   31BMANN  HO319855   3.984   7.258  20.749
   31BMANN   C419856   4.123   7.340  20.476
   31BMANN   H419857   4.136   7.234  20.447
   31BMANN   O419858   4.250   7.394  20.508
   31BMANN  HO419859   4.243   7.475  20.559
   31BMANN   C619860   4.165   7.415  20.241
   31BMANN  H6119861   4.253   7.479  20.268
   31BMANN  H6219862   4.205   7.313  20.224
   31BMANN   O619863   4.108   7.463  20.119
   31BMANN  HO619864   4.094   7.558  20.120
   32BGLCN   C119865   3.499   7.325  20.598
   32BGLCN   H119866   3.598   7.282  20.577
   32BGLCN   C519867   3.460   7.130  20.729
   32BGLCN   H519868   3.560   7.093  20.694
   32BGLCN   O519869   3.410   7.218  20.627
   32BGLCN   C219870   3.512   7.410  20.722
   32BGLCN   H219871   3.408   7.439  20.751
   32BGLCN    N19872   3.588   7.530  20.693
   32BGLCN   HN19873   3.658   7.516  20.624
   32BGLCN    C19874   3.568   7.652  20.744
   32BGLCN    O19875   3.482   7.677  20.826
   32BGLCN   CT19876   3.661   7.756  20.689
   32BGLCN  HT119877   3.708   7.717  20.597
   32BGLCN  HT219878   3.742   7.778  20.762
   32BGLCN  HT319879   3.608   7.852  20.669
   32BGLCN   C319880   3.575   7.323  20.829
   32BGLCN   H319881   3.667   7.279  20.784
   32BGLCN   O319882   3.614   7.396  20.946
   32BGLCN   C419883   3.479   7.209  20.856
   32BGLCN   H419884   3.381   7.253  20.887
   32BGLCN   O419885   3.523   7.124  20.960
   32BGLCN  HO419886   3.491   7.160  21.044
   32BGLCN   C619887   3.371   7.006  20.741
   32BGLCN  H6119888   3.416   6.932  20.810
   32BGLCN  H6219889   3.273   7.036  20.785
   32BGLCN   O619890   3.353   6.939  20.615
   32BGLCN  HO619891   3.429   6.953  20.558
   33AGAL    C119892   3.734   7.349  21.004
   33AGAL    H119893   3.740   7.238  20.997
   33AGAL    C519894   3.860   7.548  20.957
   33AGAL    H519895   3.763   7.585  20.919
   33AGAL    O519896   3.852   7.404  20.943
   33AGAL    C219897   3.737   7.389  21.151
   33AGAL    H219898   3.837   7.356  21.189
   33AGAL    O219899   3.640   7.312  21.225
   33AGAL    C319900   3.738   7.541  21.166
   33AGAL    H319901   3.653   7.585  21.108
   33AGAL    O319902   3.713   7.584  21.299
   33AGAL   HO319903   3.777   7.550  21.361
   33AGAL    C419904   3.866   7.595  21.101
   33AGAL    H419905   3.864   7.707  21.101
   33AGAL    O419906   3.987   7.561  21.168
   33AGAL   HO419907   3.985   7.480  21.219
   33AGAL    C619908   3.964   7.609  20.862
   33AGAL   H6119909   3.929   7.585  20.760
   33AGAL   H6219910   3.967   7.719  20.873
   33AGAL    O619911   4.098   7.561  20.876
   33AGAL   HO619912   4.114   7.483  20.820
   34ARHM    C119913   3.691   7.250  21.342
   34ARHM    H119914   3.743   7.327  21.402
   34ARHM    C519915   3.731   7.032  21.243
   34ARHM    H519916   3.703   7.070  21.143
   34ARHM    O519917   3.785   7.142  21.319
   34ARHM    C219918   3.573   7.193  21.418
   34ARHM    H219919   3.496   7.269  21.427
   34ARHM    O219920   3.599   7.156  21.555
   34ARHM    C319921   3.507   7.085  21.335
   34ARHM    H319922   3.479   7.124  21.235
   34ARHM    O319923   3.384   7.044  21.396
   34ARHM   HO319924   3.323   7.001  21.333
   34ARHM    C419925   3.608   6.976  21.315
   34ARHM    H419926   3.644   6.939  21.414
   34ARHM    O419927   3.549   6.868  21.243
   34ARHM   HO419928   3.495   6.816  21.305
   34ARHM    C619929   3.836   6.919  21.220
   34ARHM   H6119930   3.875   6.876  21.315
   34ARHM   H6219931   3.785   6.834  21.170
   34ARHM   H6319932   3.920   6.952  21.155
   35ARHM    C119933   3.657   7.251  21.642
   35ARHM    H119934   3.615   7.353  21.624
   35ARHM    C519935   3.858   7.122  21.655
   35ARHM    H519936   3.818   7.046  21.585
   35ARHM    O519937   3.800   7.251  21.629
   35ARHM    C219938   3.623   7.214  21.787
   35ARHM    H219939   3.512   7.213  21.802
   35ARHM    O219940   3.680   7.307  21.880
   35ARHM    C319941   3.674   7.075  21.818
   35ARHM    H319942   3.631   7.002  21.746
   35ARHM    O319943   3.634   7.034  21.948
   35ARHM   HO319944   3.637   7.110  22.008
   35ARHM    C419945   3.824   7.077  21.797
   35ARHM    H419946   3.868   7.152  21.863
   35ARHM    O419947   3.884   6.951  21.828
   35ARHM   HO419948   3.832   6.877  21.792
   35ARHM    C619949   4.009   7.131  21.622
   35ARHM   H6119950   4.026   7.147  21.514
   35ARHM   H6219951   4.058   7.213  21.679
   35ARHM   H6319952   4.058   7.034  21.647
   36BMANN   C119953   3.616   7.433  21.883
   36BMANN   H119954   3.511   7.424  21.848
   36BMANN   C519955   3.602   7.656  21.808
   36BMANN   H519956   3.496   7.637  21.779
   36BMANN   O519957   3.677   7.532  21.801
   36BMANN   C219958   3.620   7.479  22.028
   36BMANN   H219959   3.564   7.401  22.084
   36BMANN    N19960   3.754   7.489  22.085
   36BMANN   HN19961   3.825   7.522  22.023
   36BMANN    C19962   3.779   7.475  22.216
   36BMANN    O19963   3.693   7.439  22.295
   36BMANN   CT19964   3.915   7.508  22.269
   36BMANN  HT119965   3.951   7.602  22.223
   36BMANN  HT219966   3.987   7.426  22.250
   36BMANN  HT319967   3.911   7.520  22.380
   36BMANN   C319968   3.541   7.608  22.039
   36BMANN   H319969   3.437   7.592  22.001
   36BMANN   O319970   3.530   7.653  22.175
   36BMANN  HO319971   3.439   7.664  22.202
   36BMANN   C419972   3.602   7.711  21.950
   36BMANN   H419973   3.706   7.735  21.982
   36BMANN   O419974   3.528   7.831  21.960
   36BMANN  HO419975   3.538   7.854  22.053
   36BMANN   C619976   3.655   7.755  21.711
   36BMANN  H6119977   3.655   7.715  21.607
   36BMANN  H6219978   3.589   7.845  21.709
   36BMANN   O619979   3.785   7.789  21.757
   36BMANN  HO619980   3.781   7.876  21.800
    1ECLIP HB6S19981   4.897   7.294  11.778
    1ECLIP  OB619982   5.050   7.247  11.908
    1ECLIP  CB619983   4.997   7.334  11.806
    1ECLIP HB6R19984   4.982   7.437  11.846
    1ECLIP  CB519985   5.082   7.346  11.680
    1ECLIP  OB519986   5.102   7.211  11.633
    1ECLIP  HB519987   5.179   7.392  11.710
    1ECLIP  CB119988   5.183   7.206  11.515
    1ECLIP  HB119989   5.282   7.254  11.533
    1ECLIP  OA619990   5.208   7.075  11.469
    1ECLIP  CA619991   5.101   6.982  11.492
    1ECLIP HA6R19992   5.003   7.031  11.512
    1ECLIP HA6S19993   5.128   6.920  11.581
    1ECLIP  CB419994   5.017   7.432  11.569
    1ECLIP  HB419995   4.915   7.395  11.542
    1ECLIP  OB419996   5.015   7.567  11.619
    1ECLIP   PB19997   4.875   7.643  11.665
    1ECLIP OPB419998   4.912   7.735  11.780
    1ECLIP OPB319999   4.784   7.526  11.707
    1ECLIP OPB220000   4.829   7.719  11.540
    1ECLIP  CB320001   5.104   7.427  11.445
    1ECLIP  OB320002   5.051   7.493  11.331
    1ECLIP  HB320003   5.207   7.462  11.470
    1ECLIP  C7120004   5.078   7.620  11.313
    1ECLIP  O7120005   5.167   7.682  11.369
    1ECLIP  C7220006   5.021   7.663  11.175
    1ECLIP H72R20007   5.058   7.595  11.096
    1ECLIP H72S20008   5.053   7.766  11.153
    1ECLIP  CB220009   5.117   7.282  11.403
    1ECLIP  HB220010   5.014   7.240  11.388
    1ECLIP  NB220011   5.198   7.271  11.281
    1ECLIP HNB220012   5.296   7.262  11.293
    1ECLIP  CA420013   5.219   6.846  11.317
    1ECLIP  HA420014   5.277   6.938  11.290
    1ECLIP  OA420015   5.284   6.772  11.420
    1ECLIP HOA420016   5.288   6.834  11.495
    1ECLIP  CA520017   5.086   6.893  11.370
    1ECLIP  HA520018   5.016   6.810  11.393
    1ECLIP  OA520019   5.027   6.974  11.270
    1ECLIP  CA120020   5.002   6.904  11.147
    1ECLIP  HA120021   4.972   6.987  11.078
    1ECLIP  OA120022   4.899   6.807  11.151
    1ECLIP OPA220023   4.742   6.776  11.340
    1ECLIP OPA320024   4.748   7.004  11.219
    1ECLIP OPA420025   4.652   6.803  11.101
    1ECLIP   PA20026   4.750   6.852  11.207
    1ECLIP  CA320027   5.204   6.767  11.189
    1ECLIP  HA320028   5.145   6.675  11.208
    1ECLIP  OA320029   5.338   6.726  11.155
    1ECLIP  C3120030   5.415   6.819  11.089
    1ECLIP  O3120031   5.416   6.826  10.968
    1ECLIP  C3220032   5.534   6.857  11.177
    1ECLIP H32R20033   5.629   6.832  11.134
    1ECLIP H32S20034   5.534   6.800  11.272
    1ECLIP  CA220035   5.132   6.855  11.087
    1ECLIP  HA220036   5.193   6.946  11.070
    1ECLIP  NA220037   5.112   6.787  10.958
    1ECLIP HNA220038   5.160   6.702  10.945
    1ECLIP  C7320039   4.867   7.651  11.172
    1ECLIP H73R20040   4.826   7.700  11.265
    1ECLIP  O7320041   4.835   7.513  11.164
    1ECLIP  C8120042   4.730   7.467  11.231
    1ECLIP  O8120043   4.650   7.536  11.291
    1ECLIP  C8220044   4.692   7.330  11.170
    1ECLIP H82R20045   4.604   7.290  11.223
    1ECLIP H82S20046   4.775   7.259  11.192
    1ECLIP  C8320047   4.668   7.333  11.017
    1ECLIP H83R20048   4.767   7.330  10.965
    1ECLIP H83S20049   4.617   7.427  10.990
    1ECLIP  C8420050   4.590   7.211  10.965
    1ECLIP H84R20051   4.483   7.214  10.996
    1ECLIP H84S20052   4.637   7.120  11.013
    1ECLIP  C8520053   4.602   7.193  10.813
    1ECLIP H85R20054   4.709   7.212  10.791
    1ECLIP H85S20055   4.543   7.270  10.760
    1ECLIP  C8620056   4.573   7.049  10.765
    1ECLIP H86R20057   4.466   7.037  10.736
    1ECLIP H86S20058   4.591   6.978  10.849
    1ECLIP  C8720059   4.668   7.004  10.652
    1ECLIP H87R20060   4.638   6.903  10.616
    1ECLIP H87S20061   4.771   6.992  10.694
    1ECLIP  C8820062   4.677   7.105  10.538
    1ECLIP H88R20063   4.740   7.191  10.571
    1ECLIP H88S20064   4.576   7.149  10.524
    1ECLIP  C8920065   4.735   7.047  10.408
    1ECLIP H89R20066   4.794   6.955  10.426
    1ECLIP H89S20067   4.806   7.120  10.362
    1ECLIP C81020068   4.623   7.024  10.306
    1ECLIPH810R20069   4.543   7.097  10.329
    1ECLIPH810S20070   4.582   6.921  10.323
    1ECLIP C81120071   4.667   7.040  10.160
    1ECLIPH811R20072   4.597   6.987  10.090
    1ECLIPH811S20073   4.767   6.993  10.152
    1ECLIP C81220074   4.682   7.184  10.110
    1ECLIPH812R20075   4.727   7.178  10.008
    1ECLIPH812S20076   4.752   7.239  10.177
    1ECLIP C81320077   4.554   7.267  10.100
    1ECLIPH813R20078   4.486   7.215  10.029
    1ECLIPH813S20079   4.502   7.273  10.199
    1ECLIP C81420080   4.580   7.409  10.049
    1ECLIPH814R20081   4.644   7.410   9.958
    1ECLIPH814S20082   4.630   7.468  10.128
    1ECLIPH814T20083   4.484   7.458  10.025
    1ECLIP  C7420084   4.801   7.718  11.049
    1ECLIP H74R20085   4.819   7.825  11.041
    1ECLIP H74S20086   4.693   7.701  11.066
    1ECLIP  C7520087   4.827   7.650  10.914
    1ECLIP H75R20088   4.733   7.654  10.855
    1ECLIP H75S20089   4.849   7.543  10.933
    1ECLIP  C7620090   4.942   7.710  10.831
    1ECLIP H76R20091   5.038   7.676  10.874
    1ECLIP H76S20092   4.940   7.821  10.834
    1ECLIP  C7720093   4.939   7.671  10.682
    1ECLIP H77R20094   4.848   7.715  10.636
    1ECLIP H77S20095   4.931   7.562  10.668
    1ECLIP  C7820096   5.071   7.715  10.616
    1ECLIP H78R20097   5.087   7.822  10.643
    1ECLIP H78S20098   5.151   7.658  10.668
    1ECLIP  C7920099   5.091   7.688  10.466
    1ECLIP H79R20100   5.144   7.591  10.453
    1ECLIP H79S20101   5.155   7.766  10.419
    1ECLIP C71020102   4.963   7.687  10.382
    1ECLIPH710R20103   4.890   7.614  10.423
    1ECLIPH710S20104   4.919   7.789  10.385
    1ECLIP C71120105   4.988   7.650  10.235
    1ECLIPH711R20106   5.059   7.722  10.190
    1ECLIPH711S20107   5.031   7.547  10.229
    1ECLIP C71220108   4.854   7.650  10.161
    1ECLIPH712R20109   4.813   7.754  10.162
    1ECLIPH712S20110   4.784   7.586  10.219
    1ECLIP C71320111   4.865   7.597  10.020
    1ECLIPH713R20112   4.899   7.491  10.022
    1ECLIPH713S20113   4.765   7.599   9.972
    1ECLIP C71420114   4.961   7.679   9.937
    1ECLIPH714R20115   4.919   7.780   9.922
    1ECLIPH714S20116   5.066   7.683   9.969
    1ECLIPH714T20117   4.974   7.631   9.842
    1ECLIP  C5120118   5.143   7.281  11.159
    1ECLIP  O5120119   5.023   7.271  11.144
    1ECLIP  C5220120   5.235   7.309  11.042
    1ECLIP H52R20121   5.248   7.418  11.029
    1ECLIP H52S20122   5.333   7.264  11.061
    1ECLIP  C5320123   5.175   7.249  10.913
    1ECLIP H53R20124   5.120   7.154  10.935
    1ECLIP  O5320125   5.285   7.231  10.822
    1ECLIP  C6120126   5.320   7.108  10.789
    1ECLIP  O6120127   5.265   7.006  10.822
    1ECLIP  C6220128   5.442   7.112  10.696
    1ECLIP H62R20129   5.533   7.122  10.758
    1ECLIP H62S20130   5.432   7.205  10.637
    1ECLIP  C6320131   5.451   6.983  10.607
    1ECLIP H63R20132   5.351   6.964  10.564
    1ECLIP H63S20133   5.480   6.895  10.669
    1ECLIP  C6420134   5.548   6.991  10.487
    1ECLIP H64R20135   5.552   6.893  10.435
    1ECLIP H64S20136   5.649   7.014  10.528
    1ECLIP  C6520137   5.504   7.101  10.390
    1ECLIP H65R20138   5.509   7.194  10.450
    1ECLIP H65S20139   5.399   7.085  10.358
    1ECLIP  C6620140   5.589   7.126  10.264
    1ECLIP H66R20141   5.694   7.148  10.292
    1ECLIP H66S20142   5.545   7.217  10.216
    1ECLIP  C6720143   5.591   7.017  10.156
    1ECLIP H67R20144   5.618   6.917  10.196
    1ECLIP H67S20145   5.664   7.043  10.075
    1ECLIP  C6820146   5.458   6.992  10.090
    1ECLIP H68R20147   5.410   7.083  10.045
    1ECLIP H68S20148   5.389   6.952  10.168
    1ECLIP  C6920149   5.490   6.889   9.981
    1ECLIP H69R20150   5.577   6.825   9.988
    1ECLIP H69S20151   5.526   6.957   9.902
    1ECLIP C61020152   5.383   6.784   9.953
    1ECLIPH610R20153   5.305   6.861   9.987
    1ECLIPH610S20154   5.342   6.720  10.031
    1ECLIP C61120155   5.386   6.700   9.800
    1ECLIPH611R20156   5.487   6.663   9.786
    1ECLIPH611S20157   5.296   6.646   9.821
    1ECLIP C61220158   5.327   6.701   9.635
    1ECLIPH612R20159   5.243   6.769   9.592
    1ECLIPH612S20160   5.379   6.782   9.623
    1ECLIPH612T20161   5.411   6.718   9.570
    1ECLIP  C5420162   5.075   7.353  10.853
    1ECLIP H54R20163   5.135   7.442  10.824
    1ECLIP H54S20164   5.006   7.383  10.934
    1ECLIP  C5520165   4.991   7.307  10.733
    1ECLIP H55R20166   4.905   7.377  10.719
    1ECLIP H55S20167   4.946   7.208  10.756
    1ECLIP  C5620168   5.076   7.309  10.606
    1ECLIP H56R20169   5.165   7.245  10.622
    1ECLIP H56S20170   5.113   7.412  10.587
    1ECLIP  C5720171   5.014   7.255  10.478
    1ECLIP H57R20172   4.917   7.305  10.455
    1ECLIP H57S20173   4.992   7.147  10.491
    1ECLIP  C5820174   5.114   7.272  10.364
    1ECLIP H58R20175   5.158   7.374  10.359
    1ECLIP H58S20176   5.200   7.203  10.384
    1ECLIP  C5920177   5.049   7.244  10.231
    1ECLIP H59R20178   4.961   7.308  10.211
    1ECLIP H59S20179   5.013   7.138  10.233
    1ECLIP C51020180   5.145   7.282  10.120
    1ECLIPH510R20181   5.242   7.226  10.120
    1ECLIPH510S20182   5.162   7.390  10.104
    1ECLIP C51120183   5.081   7.268   9.992
    1ECLIPH511R20184   5.089   7.154  10.016
    1ECLIPH511S20185   4.974   7.247   9.965
    1ECLIP C51220186   5.172   7.343   9.870
    1ECLIPH512R20187   5.094   7.330   9.791
    1ECLIPH512S20188   5.167   7.448   9.865
    1ECLIP C51320189   5.323   7.290   9.814
    1ECLIPH513R20190   5.322   7.195   9.757
    1ECLIPH513S20191   5.381   7.244   9.895
    1ECLIP C51420192   5.413   7.351   9.703
    1ECLIPH514R20193   5.360   7.442   9.672
    1ECLIPH514S20194   5.483   7.276   9.656
    1ECLIPH514T20195   5.384   7.343   9.596
    1ECLIP  C3320196   5.579   7.003  11.187
    1ECLIP H33R20197   5.684   7.003  11.223
    1ECLIP  O3320198   5.500   7.064  11.286
    1ECLIP HO3320199   5.511   7.021  11.371
    1ECLIP  C3420200   5.573   7.087  11.057
    1ECLIP H34R20201   5.470   7.085  11.018
    1ECLIP H34S20202   5.638   7.042  10.978
    1ECLIP  C3520203   5.618   7.234  11.080
    1ECLIP H35R20204   5.724   7.238  11.111
    1ECLIP H35S20205   5.554   7.276  11.161
    1ECLIP  C3620206   5.601   7.323  10.957
    1ECLIP H36R20207   5.514   7.280  10.903
    1ECLIP H36S20208   5.689   7.319  10.889
    1ECLIP  C3720209   5.564   7.469  10.988
    1ECLIP H37R20210   5.657   7.528  11.003
    1ECLIP H37S20211   5.508   7.475  11.085
    1ECLIP  C3820212   5.479   7.540  10.879
    1ECLIP H38R20213   5.373   7.507  10.879
    1ECLIP H38S20214   5.478   7.649  10.905
    1ECLIP  C3920215   5.535   7.518  10.738
    1ECLIP H39R20216   5.544   7.409  10.718
    1ECLIP H39S20217   5.635   7.565  10.734
    1ECLIP C31020218   5.454   7.578  10.623
    1ECLIPH310R20219   5.467   7.689  10.633
    1ECLIPH310S20220   5.347   7.554  10.632
    1ECLIP C31120221   5.498   7.520  10.488
    1ECLIPH311R20222   5.608   7.500  10.489
    1ECLIPH311S20223   5.447   7.422  10.473
    1ECLIP C31220224   5.461   7.606  10.366
    1ECLIPH312R20225   5.364   7.657  10.385
    1ECLIPH312S20226   5.540   7.684  10.354
    1ECLIP C31320227   5.452   7.524  10.237
    1ECLIPH313R20228   5.557   7.496  10.211
    1ECLIPH313S20229   5.396   7.429  10.254
    1ECLIP C31420230   5.390   7.598  10.118
    1ECLIPH314R20231   5.449   7.689  10.096
    1ECLIPH314S20232   5.388   7.534  10.027
    1ECLIPH314T20233   5.286   7.628  10.141
    1ECLIP  C1120234   5.022   6.818  10.861
    1ECLIP  O1120235   4.971   6.928  10.846
    1ECLIP  C1220236   4.988   6.704  10.769
    1ECLIP H12R20237   4.885   6.669  10.791
    1ECLIP H12S20238   5.060   6.622  10.788
    1ECLIP  C1320239   4.997   6.744  10.622
    1ECLIP H13R20240   4.953   6.844  10.601
    1ECLIP  O1320241   4.923   6.647  10.548
    1ECLIP HO1320242   4.887   6.678  10.465
    1ECLIP  C1420243   5.146   6.744  10.580
    1ECLIP H14R20244   5.200   6.662  10.632
    1ECLIP H14S20245   5.187   6.842  10.614
    1ECLIP  C1520246   5.174   6.733  10.431
    1ECLIP H15R20247   5.125   6.640  10.393
    1ECLIP H15S20248   5.284   6.719  10.419
    1ECLIP  C1620249   5.125   6.856  10.354
    1ECLIP H16R20250   5.199   6.939  10.364
    1ECLIP H16S20251   5.032   6.894  10.401
    1ECLIP  C1720252   5.104   6.824  10.206
    1ECLIP H17R20253   5.192   6.763  10.175
    1ECLIP H17S20254   5.101   6.915  10.143
    1ECLIP  C1820255   4.977   6.743  10.184
    1ECLIP H18R20256   4.984   6.652  10.246
    1ECLIP H18S20257   4.888   6.802  10.215
    1ECLIP  C1920258   4.958   6.701  10.039
    1ECLIP H19R20259   4.873   6.629  10.029
    1ECLIP H19S20260   5.050   6.650  10.001
    1ECLIP C11020261   4.931   6.822   9.953
    1ECLIPH110R20262   4.844   6.883   9.986
    1ECLIPH110S20263   5.023   6.882   9.956
    1ECLIP C11120264   4.905   6.781   9.812
    1ECLIPH111R20265   4.984   6.710   9.777
    1ECLIPH111S20266   4.803   6.737   9.820
    1ECLIP C11220267   4.883   6.894   9.716
    1ECLIPH112R20268   4.795   6.951   9.751
    1ECLIPH112S20269   4.967   6.955   9.714
    1ECLIP C11320270   4.883   6.863   9.571
    1ECLIPH113R20271   4.982   6.820   9.539
    1ECLIPH113S20272   4.810   6.783   9.569
    1ECLIP C11420273   4.838   6.980   9.482
    1ECLIPH114R20274   4.728   7.000   9.482
    1ECLIPH114S20275   4.923   7.038   9.445
    1ECLIPH114T20276   4.824   6.965   9.375
    2AKDO    C120277   5.220   7.400  11.979
    2AKDO   O1120278   5.211   7.526  11.981
    2AKDO   O1220279   5.322   7.334  11.945
    2AKDO    C220280   5.097   7.317  12.024
    2AKDO    C620281   4.878   7.334  12.122
    2AKDO    H620282   4.843   7.279  12.031
    2AKDO    O620283   4.997   7.404  12.083
    2AKDO    C320284   5.131   7.210  12.129
    2AKDO   H3120285   5.183   7.258  12.215
    2AKDO   H3220286   5.200   7.138  12.082
    2AKDO    C420287   5.009   7.136  12.174
    2AKDO    H420288   4.959   7.090  12.085
    2AKDO    O420289   5.040   7.037  12.273
    2AKDO    C520290   4.907   7.230  12.233
    2AKDO    H520291   4.812   7.172  12.245
    2AKDO    O520292   4.958   7.277  12.363
    2AKDO    C720293   4.766   7.432  12.152
    2AKDO    H720294   4.792   7.489  12.244
    2AKDO    O720295   4.645   7.359  12.169
    2AKDO   HO720296   4.606   7.349  12.082
    2AKDO    C820297   4.748   7.530  12.038
    2AKDO   H8120298   4.846   7.582  12.022
    2AKDO   H8220299   4.723   7.475  11.945
    2AKDO    O820300   4.644   7.627  12.066
    2AKDO   HO820301   4.677   7.709  12.027
    3AKDO    C120302   5.012   6.853  12.115
    3AKDO   O1120303   5.063   6.860  12.000
    3AKDO   O1220304   4.898   6.805  12.142
    3AKDO    C220305   5.093   6.911  12.236
    3AKDO    C620306   5.313   6.975  12.315
    3AKDO    H620307   5.278   7.080  12.334
    3AKDO    O620308   5.235   6.917  12.208
    3AKDO    C320309   5.077   6.831  12.368
    3AKDO   H3120310   5.112   6.727  12.350
    3AKDO   H3220311   4.969   6.824  12.396
    3AKDO    C420312   5.155   6.896  12.479
    3AKDO    H420313   5.124   7.003  12.485
    3AKDO    O420314   5.137   6.837  12.606
    3AKDO   HO420315   5.102   6.902  12.670
    3AKDO    C520316   5.300   6.894  12.442
    3AKDO    H520317   5.357   6.941  12.525
    3AKDO    O520318   5.346   6.759  12.425
    3AKDO   HO520319   5.297   6.730  12.347
    3AKDO    C720320   5.457   6.985  12.272
    3AKDO    H720321   5.494   6.882  12.249
    3AKDO    O720322   5.536   7.040  12.378
    3AKDO   HO720323   5.627   7.036  12.346
    3AKDO    C820324   5.464   7.072  12.148
    3AKDO   H8120325   5.398   7.032  12.068
    3AKDO   H8220326   5.433   7.176  12.169
    3AKDO    O820327   5.598   7.070  12.101
    3AKDO   HO820328   5.603   6.985  12.054
    4AHEP    C120329   4.861   7.306  12.462
    4AHEP    H120330   4.817   7.402  12.427
    4AHEP    C520331   4.782   7.090  12.536
    4AHEP    H520332   4.873   7.047  12.488
    4AHEP    O520333   4.752   7.213  12.468
    4AHEP    C220334   4.904   7.335  12.607
    4AHEP    H220335   4.993   7.400  12.604
    4AHEP    O220336   4.803   7.409  12.676
    4AHEP   HO220337   4.843   7.478  12.728
    4AHEP    C320338   4.941   7.210  12.686
    4AHEP    H320339   5.031   7.159  12.646
    4AHEP    O320340   4.963   7.244  12.825
    4AHEP    C420341   4.820   7.117  12.682
    4AHEP    H420342   4.732   7.162  12.733
    4AHEP    O420343   4.858   6.995  12.742
    4AHEP    P420344   4.792   6.943  12.886
    4AHEP  OP4220345   4.911   6.869  12.948
    4AHEP  OP4320346   4.673   6.854  12.848
    4AHEP  OP4420347   4.747   7.067  12.963
    4AHEP    C620348   4.663   6.992  12.516
    4AHEP    H620349   4.703   6.891  12.546
    4AHEP    O620350   4.549   7.020  12.599
    4AHEP   HO620351   4.540   6.945  12.660
    4AHEP    C720352   4.612   6.981  12.371
    4AHEP   H7120353   4.548   6.891  12.358
    4AHEP   H7220354   4.700   6.974  12.303
    4AHEP    O720355   4.533   7.091  12.325
    4AHEP   HO720356   4.450   7.087  12.375
    5AHEP    C120357   5.088   7.215  12.882
    5AHEP    H120358   5.133   7.124  12.834
    5AHEP    C520359   5.128   7.446  12.932
    5AHEP    H520360   5.024   7.464  12.896
    5AHEP    O520361   5.177   7.327  12.865
    5AHEP    C220362   5.075   7.186  13.032
    5AHEP    H220363   5.000   7.104  13.045
    5AHEP    O220364   5.201   7.139  13.083
    5AHEP   HO220365   5.192   7.045  13.103
    5AHEP    C320366   5.022   7.308  13.109
    5AHEP    H320367   4.922   7.334  13.067
    5AHEP    O320368   5.011   7.290  13.253
    5AHEP    C420369   5.118   7.423  13.083
    5AHEP    H420370   5.220   7.397  13.120
    5AHEP    O420371   5.062   7.541  13.143
    5AHEP    P420372   5.145   7.614  13.268
    5AHEP  OP4220373   5.041   7.714  13.321
    5AHEP  OP4320374   5.265   7.679  13.203
    5AHEP  OP4420375   5.182   7.502  13.367
    5AHEP    C620376   5.212   7.568  12.893
    5AHEP    H620377   5.167   7.658  12.941
    5AHEP    O620378   5.347   7.556  12.938
    5AHEP   HO620379   5.400   7.496  12.887
    5AHEP    C720380   5.207   7.592  12.743
    5AHEP   H7120381   5.206   7.702  12.729
    5AHEP   H7220382   5.112   7.556  12.698
    5AHEP    O720383   5.325   7.542  12.679
    6AHEP    C120384   5.305   7.420  12.615
    6AHEP    H120385   5.206   7.376  12.639
    6AHEP    C520386   5.435   7.497  12.432
    6AHEP    H520387   5.451   7.592  12.488
    6AHEP    O520388   5.308   7.443  12.474
    6AHEP    C220389   5.413   7.322  12.658
    6AHEP    H220390   5.406   7.315  12.770
    6AHEP    O220391   5.384   7.192  12.611
    6AHEP   HO220392   5.358   7.137  12.685
    6AHEP    C320393   5.551   7.376  12.621
    6AHEP    H320394   5.567   7.473  12.675
    6AHEP    O320395   5.657   7.286  12.660
    6AHEP   HO320396   5.709   7.321  12.734
    6AHEP    C420397   5.550   7.402  12.469
    6AHEP    H420398   5.539   7.304  12.415
    6AHEP    O420399   5.672   7.462  12.424
    6AHEP   HO420400   5.673   7.553  12.454
    6AHEP    C620401   5.434   7.540  12.286
    6AHEP    H620402   5.529   7.595  12.268
    6AHEP    O620403   5.442   7.429  12.196
    6AHEP   HO620404   5.364   7.429  12.138
    6AHEP    C720405   5.325   7.642  12.254
    6AHEP   H7120406   5.340   7.680  12.150
    6AHEP   H7220407   5.335   7.727  12.325
    6AHEP    O720408   5.192   7.593  12.266
    6AHEP   HO720409   5.168   7.591  12.359
    7AGLC    C120410   4.887   7.247  13.302
    7AGLC    H120411   4.803   7.301  13.252
    7AGLC    C520412   4.969   7.028  13.346
    7AGLC    H520413   5.071   7.063  13.318
    7AGLC    O520414   4.871   7.108  13.279
    7AGLC    C220415   4.868   7.266  13.453
    7AGLC    H220416   4.773   7.215  13.480
    7AGLC    O220417   4.849   7.404  13.487
    7AGLC   HO220418   4.940   7.442  13.495
    7AGLC    C320419   4.973   7.193  13.533
    7AGLC    H320420   5.073   7.227  13.497
    7AGLC    O320421   4.965   7.221  13.676
    7AGLC    C420422   4.957   7.045  13.497
    7AGLC    H420423   4.854   7.011  13.529
    7AGLC    O420424   5.058   6.967  13.561
    7AGLC   HO420425   5.016   6.890  13.604
    7AGLC    C620426   4.957   6.888  13.287
    7AGLC   H6120427   4.972   6.895  13.177
    7AGLC   H6220428   5.035   6.819  13.325
    7AGLC    O620429   4.829   6.829  13.310
    7AGLC   HO620430   4.831   6.775  13.388
    8AGLC    C120431   5.082   7.282  13.728
    8AGLC    H120432   5.172   7.231  13.687
    8AGLC    C520433   4.995   7.509  13.758
    8AGLC    H520434   4.895   7.472  13.725
    8AGLC    O520435   5.092   7.423  13.695
    8AGLC    C220436   5.093   7.268  13.880
    8AGLC    H220437   5.193   7.310  13.906
    8AGLC    O220438   5.090   7.134  13.932
    8AGLC    C320439   4.987   7.349  13.949
    8AGLC    H320440   4.889   7.311  13.909
    8AGLC    O320441   4.994   7.320  14.090
    8AGLC    C420442   5.006   7.494  13.909
    8AGLC    H420443   5.109   7.525  13.939
    8AGLC    O420444   4.911   7.579  13.974
    8AGLC   HO420445   4.827   7.534  13.978
    8AGLC    C620446   5.002   7.657  13.710
    8AGLC   H6120447   5.010   7.663  13.599
    8AGLC   H6220448   4.908   7.709  13.739
    8AGLC    O620449   5.108   7.733  13.769
    8AGLC   HO620450   5.078   7.763  13.855
    9AGAL    C120451   5.182   7.042  13.880
    9AGAL    H120452   5.182   7.046  13.770
    9AGAL    C520453   5.332   7.050  14.064
    9AGAL    H520454   5.253   7.112  14.111
    9AGAL    O520455   5.318   7.066  13.921
    9AGAL    C220456   5.137   6.902  13.921
    9AGAL    H220457   5.210   6.832  13.874
    9AGAL    O220458   5.011   6.877  13.856
    9AGAL    C320459   5.152   6.880  14.071
    9AGAL    H320460   5.087   6.953  14.126
    9AGAL    O320461   5.105   6.750  14.108
    9AGAL   HO320462   5.024   6.745  14.056
    9AGAL    C420463   5.299   6.906  14.104
    9AGAL    H420464   5.314   6.898  14.214
    9AGAL    O420465   5.388   6.813  14.039
    9AGAL   HO420466   5.460   6.806  14.103
    9AGAL    C620467   5.463   7.107  14.120
    9AGAL   H6120468   5.470   7.215  14.096
    9AGAL   H6220469   5.462   7.099  14.231
    9AGAL    O620470   5.580   7.041  14.072
    9AGAL   HO620471   5.618   7.096  14.003
   10AGAL    C120472   4.897   6.811  13.911
   10AGAL    H120473   4.918   6.704  13.920
   10AGAL    C520474   4.805   6.991  14.041
   10AGAL    H520475   4.888   7.051  14.000
   10AGAL    O520476   4.855   6.855  14.042
   10AGAL    C220477   4.783   6.822  13.811
   10AGAL    H220478   4.700   6.759  13.848
   10AGAL    O220479   4.817   6.764  13.685
   10AGAL   HO220480   4.740   6.710  13.663
   10AGAL    C320481   4.737   6.967  13.806
   10AGAL    H320482   4.826   7.030  13.781
   10AGAL    O320483   4.636   6.996  13.710
   10AGAL   HO320484   4.673   7.040  13.634
   10AGAL    C420485   4.690   7.008  13.944
   10AGAL    H420486   4.659   7.115  13.944
   10AGAL    O420487   4.577   6.933  13.987
   10AGAL   HO420488   4.602   6.841  13.998
   10AGAL    C620489   4.778   7.053  14.179
   10AGAL   H6120490   4.863   7.033  14.246
   10AGAL   H6220491   4.770   7.163  14.164
   10AGAL    O620492   4.660   7.008  14.246
   10AGAL   HO620493   4.677   6.966  14.331
   11BGLC    C120494   5.065   7.401  14.184
   11BGLC    H120495   5.009   7.496  14.199
   11BGLC    C520496   5.280   7.496  14.248
   11BGLC    H520497   5.235   7.595  14.272
   11BGLC    O520498   5.204   7.421  14.149
   11BGLC    C220499   5.061   7.321  14.314
   11BGLC    H220500   5.109   7.221  14.300
   11BGLC    O220501   4.926   7.296  14.350
   11BGLC   HO220502   4.912   7.203  14.368
   11BGLC    C320503   5.136   7.390  14.427
   11BGLC    H320504   5.086   7.486  14.454
   11BGLC    O320505   5.142   7.301  14.541
   11BGLC    C420506   5.279   7.412  14.378
   11BGLC    H420507   5.321   7.311  14.354
   11BGLC    O420508   5.362   7.466  14.481
   11BGLC   HO420509   5.366   7.400  14.552
   11BGLC    C620510   5.419   7.525  14.188
   11BGLC   H6120511   5.495   7.549  14.265
   11BGLC   H6220512   5.453   7.437  14.130
   11BGLC    O620513   5.422   7.633  14.095
   11BGLC   HO620514   5.463   7.711  14.134
   12BGLCN   C120515   5.102   7.348  14.668
   12BGLCN   H120516   4.993   7.345  14.676
   12BGLCN   C520517   5.089   7.525  14.824
   12BGLCN   H520518   4.977   7.516  14.832
   12BGLCN   O520519   5.137   7.483  14.695
   12BGLCN   C220520   5.166   7.258  14.772
   12BGLCN   H220521   5.276   7.280  14.768
   12BGLCN    N20522   5.138   7.120  14.741
   12BGLCN   HN20523   5.042   7.096  14.731
   12BGLCN    C20524   5.236   7.029  14.729
   12BGLCN    O20525   5.353   7.059  14.746
   12BGLCN   CT20526   5.201   6.887  14.694
   12BGLCN  HT120527   5.215   6.819  14.780
   12BGLCN  HT220528   5.260   6.850  14.608
   12BGLCN  HT320529   5.097   6.881  14.669
   12BGLCN   C320530   5.119   7.292  14.912
   12BGLCN   H320531   5.009   7.277  14.917
   12BGLCN   O320532   5.178   7.204  15.013
   12BGLCN   C420533   5.153   7.439  14.933
   12BGLCN   H420534   5.264   7.454  14.926
   12BGLCN   O420535   5.113   7.480  15.063
   12BGLCN  HO420536   5.017   7.490  15.068
   12BGLCN   C620537   5.123   7.671  14.830
   12BGLCN  H6120538   5.094   7.714  14.927
   12BGLCN  H6220539   5.233   7.682  14.819
   12BGLCN   O620540   5.061   7.745  14.724
   12BGLCN  HO620541   4.976   7.780  14.750
   13AGAL    C120542   5.092   7.165  15.120
   13AGAL    H120543   5.031   7.253  15.152
   13AGAL    C520544   5.085   6.932  15.063
   13AGAL    H520545   5.165   6.960  14.990
   13AGAL    O520546   5.008   7.053  15.084
   13AGAL    C220547   5.166   7.120  15.247
   13AGAL    H220548   5.085   7.085  15.316
   13AGAL    O220549   5.232   7.230  15.312
   13AGAL    C320550   5.251   6.996  15.226
   13AGAL    H320551   5.318   7.013  15.139
   13AGAL    O320552   5.334   6.963  15.337
   13AGAL   HO320553   5.420   6.940  15.301
   13AGAL    C420554   5.158   6.883  15.188
   13AGAL    H420555   5.220   6.795  15.159
   13AGAL    O420556   5.071   6.843  15.296
   13AGAL   HO420557   5.030   6.918  15.338
   13AGAL    C620558   5.013   6.820  14.992
   13AGAL   H6120559   4.970   6.859  14.897
   13AGAL   H6220560   5.088   6.740  14.967
   13AGAL    O620561   4.910   6.761  15.071
   13AGAL   HO620562   4.950   6.701  15.135
   14ARHM    C120563   5.180   7.272  15.437
   14ARHM    H120564   5.071   7.250  15.440
   14ARHM    C520565   5.332   7.453  15.454
   14ARHM    H520566   5.375   7.421  15.357
   14ARHM    O520567   5.194   7.413  15.457
   14ARHM    C220568   5.253   7.198  15.547
   14ARHM    H220569   5.242   7.089  15.529
   14ARHM    O220570   5.211   7.226  15.682
   14ARHM    C320571   5.398   7.236  15.542
   14ARHM    H320572   5.436   7.220  15.438
   14ARHM    O320573   5.480   7.153  15.623
   14ARHM   HO320574   5.465   7.175  15.716
   14ARHM    C420575   5.410   7.385  15.568
   14ARHM    H420576   5.359   7.414  15.663
   14ARHM    O420577   5.547   7.428  15.573
   14ARHM   HO420578   5.569   7.449  15.664
   14ARHM    C620579   5.337   7.606  15.464
   14ARHM   H6120580   5.259   7.651  15.398
   14ARHM   H6220581   5.317   7.636  15.568
   14ARHM   H6320582   5.434   7.649  15.432
   15ARHM    C120583   5.075   7.215  15.711
   15ARHM    H120584   5.027   7.143  15.641
   15ARHM    C520585   5.046   7.440  15.800
   15ARHM    H520586   5.151   7.474  15.781
   15ARHM    O520587   5.004   7.342  15.703
   15ARHM    C220588   5.061   7.158  15.850
   15ARHM    H220589   5.123   7.065  15.857
   15ARHM    O220590   4.922   7.124  15.866
   15ARHM    C320591   5.115   7.258  15.950
   15ARHM    H320592   5.219   7.285  15.920
   15ARHM    O320593   5.120   7.192  16.077
   15ARHM    C420594   5.030   7.383  15.940
   15ARHM    H420595   4.924   7.354  15.952
   15ARHM    O420596   5.057   7.484  16.038
   15ARHM   HO420597   4.986   7.549  16.034
   15ARHM    C620598   4.955   7.563  15.782
   15ARHM   H6120599   4.990   7.647  15.843
   15ARHM   H6220600   4.953   7.592  15.675
   15ARHM   H6320601   4.852   7.544  15.818
   16BMANN   C120602   4.876   7.068  15.987
   16BMANN   H120603   4.882   7.145  16.068
   16BMANN   C520604   4.904   6.901  16.157
   16BMANN   H520605   4.909   6.984  16.232
   16BMANN   O520606   4.950   6.951  16.029
   16BMANN   C220607   4.729   7.029  15.967
   16BMANN   H220608   4.675   7.123  15.940
   16BMANN    N20609   4.704   6.931  15.862
   16BMANN   HN20610   4.705   6.836  15.890
   16BMANN    C20611   4.675   6.958  15.735
   16BMANN    O20612   4.669   7.072  15.690
   16BMANN   CT20613   4.654   6.841  15.643
   16BMANN  HT120614   4.547   6.826  15.621
   16BMANN  HT220615   4.694   6.749  15.688
   16BMANN  HT320616   4.708   6.859  15.548
   16BMANN   C320617   4.676   6.979  16.101
   16BMANN   H320618   4.689   7.060  16.176
   16BMANN   O320619   4.536   6.953  16.094
   16BMANN  HO320620   4.494   6.999  16.168
   16BMANN   C420621   4.758   6.858  16.148
   16BMANN   H420622   4.748   6.775  16.074
   16BMANN   O420623   4.717   6.803  16.273
   16BMANN  HO420624   4.740   6.710  16.277
   16BMANN   C620625   4.991   6.790  16.214
   16BMANN  H6120626   4.983   6.795  16.324
   16BMANN  H6220627   4.951   6.692  16.180
   16BMANN   O620628   5.130   6.793  16.181
   16BMANN  HO620629   5.149   6.722  16.117
   17BGLCN   C120630   5.235   7.221  16.151
   17BGLCN   H120631   5.262   7.327  16.135
   17BGLCN   C520632   5.465   7.165  16.193
   17BGLCN   H520633   5.497   7.269  16.175
   17BGLCN   O520634   5.347   7.138  16.114
   17BGLCN   C220635   5.194   7.194  16.294
   17BGLCN   H220636   5.173   7.086  16.312
   17BGLCN    N20637   5.071   7.265  16.325
   17BGLCN   HN20638   5.056   7.349  16.273
   17BGLCN    C20639   4.981   7.233  16.419
   17BGLCN    O20640   4.982   7.130  16.485
   17BGLCN   CT20641   4.876   7.340  16.440
   17BGLCN  HT120642   4.781   7.316  16.389
   17BGLCN  HT220643   4.917   7.437  16.404
   17BGLCN  HT320644   4.856   7.350  16.548
   17BGLCN   C320645   5.313   7.235  16.379
   17BGLCN   H320646   5.339   7.338  16.345
   17BGLCN   O320647   5.274   7.241  16.519
   17BGLCN   C420648   5.430   7.144  16.342
   17BGLCN   H420649   5.399   7.037  16.351
   17BGLCN   O420650   5.543   7.165  16.427
   17BGLCN  HO420651   5.617   7.107  16.403
   17BGLCN   C620652   5.580   7.073  16.147
   17BGLCN  H6120653   5.677   7.128  16.152
   17BGLCN  H6220654   5.586   6.986  16.216
   17BGLCN   O620655   5.565   7.022  16.015
   17BGLCN  HO620656   5.557   7.097  15.955
   18AGAL    C120657   5.335   7.341  16.598
   18AGAL    H120658   5.440   7.312  16.617
   18AGAL    C520659   5.201   7.523  16.522
   18AGAL    H520660   5.138   7.444  16.477
   18AGAL    O520661   5.334   7.470  16.534
   18AGAL    C220662   5.268   7.363  16.733
   18AGAL    H220663   5.327   7.448  16.776
   18AGAL    O220664   5.287   7.253  16.823
   18AGAL    C320665   5.125   7.414  16.721
   18AGAL    H320666   5.069   7.345  16.654
   18AGAL    O320667   5.053   7.417  16.845
   18AGAL   HO320668   4.967   7.374  16.832
   18AGAL    C420669   5.130   7.550  16.653
   18AGAL    H420670   5.028   7.588  16.630
   18AGAL    O420671   5.196   7.650  16.732
   18AGAL   HO420672   5.138   7.671  16.806
   18AGAL    C620673   5.198   7.627  16.413
   18AGAL   H6120674   5.229   7.574  16.320
   18AGAL   H6220675   5.095   7.665  16.400
   18AGAL    O620676   5.288   7.734  16.433
   18AGAL   HO620677   5.346   7.713  16.507
   19ARHM    C120678   5.316   7.300  16.952
   19ARHM    H120679   5.269   7.400  16.971
   19ARHM    C520680   5.532   7.201  16.961
   19ARHM    H520681   5.511   7.163  16.858
   19ARHM    O520682   5.456   7.321  16.976
   19ARHM    C220683   5.263   7.197  17.048
   19ARHM    H220684   5.157   7.172  17.024
   19ARHM    O220685   5.267   7.248  17.182
   19ARHM    C320686   5.342   7.070  17.032
   19ARHM    H320687   5.334   7.034  16.927
   19ARHM    O320688   5.289   6.968  17.114
   19ARHM   HO320689   5.279   7.001  17.203
   19ARHM    C420690   5.488   7.095  17.060
   19ARHM    H420691   5.495   7.134  17.165
   19ARHM    O420692   5.571   6.980  17.048
   19ARHM   HO420693   5.563   6.946  16.958
   19ARHM    C620694   5.682   7.233  16.964
   19ARHM   H6120695   5.699   7.306  16.882
   19ARHM   H6220696   5.714   7.276  17.061
   19ARHM   H6320697   5.743   7.143  16.943
   20ARHM    C120698   5.168   7.345  17.207
   20ARHM    H120699   5.095   7.349  17.124
   20ARHM    C520700   5.305   7.491  17.332
   20ARHM    H520701   5.384   7.416  17.316
   20ARHM    O520702   5.218   7.479  17.221
   20ARHM    C220703   5.097   7.302  17.331
   20ARHM    H220704   5.068   7.194  17.321
   20ARHM    O220705   4.981   7.382  17.352
   20ARHM    C320706   5.187   7.313  17.449
   20ARHM    H320707   5.276   7.248  17.432
   20ARHM    O320708   5.114   7.267  17.563
   20ARHM    C420709   5.232   7.456  17.461
   20ARHM    H420710   5.147   7.528  17.469
   20ARHM    O420711   5.317   7.473  17.574
   20ARHM   HO420712   5.378   7.542  17.546
   20ARHM    C620713   5.368   7.632  17.332
   20ARHM   H6120714   5.292   7.713  17.344
   20ARHM   H6220715   5.443   7.639  17.412
   20ARHM   H6320716   5.419   7.651  17.235
   21BMANN   C120717   4.873   7.335  17.277
   21BMANN   H120718   4.910   7.255  17.208
   21BMANN   C520719   4.719   7.373  17.107
   21BMANN   H520720   4.763   7.285  17.058
   21BMANN   O520721   4.819   7.434  17.190
   21BMANN   C220722   4.768   7.278  17.372
   21BMANN   H220723   4.820   7.197  17.429
   21BMANN    N20724   4.711   7.375  17.465
   21BMANN   HN20725   4.693   7.466  17.428
   21BMANN    C20726   4.679   7.350  17.594
   21BMANN    O20727   4.677   7.237  17.640
   21BMANN   CT20728   4.646   7.468  17.683
   21BMANN  HT120729   4.542   7.503  17.664
   21BMANN  HT220730   4.718   7.550  17.667
   21BMANN  HT320731   4.653   7.439  17.791
   21BMANN   C320732   4.663   7.214  17.284
   21BMANN   H320733   4.717   7.132  17.229
   21BMANN   O320734   4.561   7.150  17.359
   21BMANN  HO320735   4.524   7.216  17.418
   21BMANN   C420736   4.606   7.316  17.187
   21BMANN   H420737   4.554   7.399  17.240
   21BMANN   O420738   4.514   7.258  17.097
   21BMANN  HO420739   4.425   7.293  17.112
   21BMANN   C620740   4.671   7.467  16.999
   21BMANN  H6120741   4.621   7.409  16.919
   21BMANN  H6220742   4.596   7.535  17.044
   21BMANN   O620743   4.777   7.542  16.942
   21BMANN  HO620744   4.816   7.595  17.011
   22BGLCN   C120745   5.187   7.198  17.660
   22BGLCN   H120746   5.294   7.228  17.660
   22BGLCN   C520747   5.247   6.987  17.746
   22BGLCN   H520748   5.353   7.022  17.747
   22BGLCN   O520749   5.177   7.056  17.643
   22BGLCN   C220750   5.123   7.235  17.791
   22BGLCN   H220751   5.016   7.203  17.786
   22BGLCN    N20752   5.129   7.378  17.808
   22BGLCN   HN20753   5.211   7.423  17.775
   22BGLCN    C20754   5.036   7.451  17.870
   22BGLCN    O20755   4.934   7.406  17.921
   22BGLCN   CT20756   5.067   7.598  17.874
   22BGLCN  HT120757   5.013   7.645  17.790
   22BGLCN  HT220758   5.176   7.616  17.864
   22BGLCN  HT320759   5.033   7.641  17.971
   22BGLCN   C320760   5.193   7.165  17.905
   22BGLCN   H320761   5.301   7.192  17.901
   22BGLCN   O320762   5.136   7.216  18.026
   22BGLCN   C420763   5.184   7.016  17.883
   22BGLCN   H420764   5.076   6.988  17.878
   22BGLCN   O420765   5.246   6.938  17.986
   22BGLCN  HO420766   5.188   6.865  18.011
   22BGLCN   C620767   5.242   6.841  17.712
   22BGLCN  H6120768   5.268   6.787  17.803
   22BGLCN  H6220769   5.140   6.809  17.680
   22BGLCN   O620770   5.342   6.805  17.617
   22BGLCN  HO620771   5.326   6.850  17.532
   23AGAL    C120772   5.207   7.201  18.146
   23AGAL    H120773   5.200   7.096  18.181
   23AGAL    C520774   5.366   7.377  18.109
   23AGAL    H520775   5.308   7.404  18.018
   23AGAL    O520776   5.346   7.237  18.135
   23AGAL    C220777   5.143   7.285  18.255
   23AGAL    H220778   5.202   7.266  18.347
   23AGAL    O220779   5.006   7.247  18.279
   23AGAL    C320780   5.162   7.433  18.224
   23AGAL    H320781   5.122   7.454  18.123
   23AGAL    O320782   5.088   7.517  18.311
   23AGAL   HO320783   5.098   7.489  18.402
   23AGAL    C420784   5.311   7.464  18.222
   23AGAL    H420785   5.330   7.571  18.198
   23AGAL    O420786   5.376   7.434  18.346
   23AGAL   HO420787   5.468   7.413  18.321
   23AGAL    C620788   5.511   7.398  18.071
   23AGAL   H6120789   5.538   7.322  17.997
   23AGAL   H6220790   5.525   7.496  18.019
   23AGAL    O620791   5.599   7.385  18.182
   23AGAL   HO620792   5.692   7.390  18.153
   24ARHM    C120793   4.981   7.136  18.363
   24ARHM    H120794   5.074   7.076  18.374
   24ARHM    C520795   4.751   7.109  18.300
   24ARHM    H520796   4.765   7.194  18.231
   24ARHM    O520797   4.880   7.046  18.314
   24ARHM    C220798   4.937   7.193  18.495
   24ARHM    H220799   5.012   7.268  18.525
   24ARHM    O220800   4.923   7.092  18.597
   24ARHM    C320801   4.806   7.266  18.478
   24ARHM    H320802   4.820   7.343  18.399
   24ARHM    O320803   4.770   7.337  18.597
   24ARHM   HO320804   4.718   7.278  18.652
   24ARHM    C420805   4.702   7.165  18.432
   24ARHM    H420806   4.696   7.082  18.507
   24ARHM    O420807   4.573   7.224  18.418
   24ARHM   HO420808   4.506   7.157  18.440
   24ARHM    C620809   4.651   7.012  18.233
   24ARHM   H6120810   4.574   7.071  18.178
   24ARHM   H6220811   4.704   6.950  18.158
   24ARHM   H6320812   4.601   6.944  18.305
   25ARHM    C120813   5.042   7.044  18.651
   25ARHM    H120814   5.126   7.071  18.583
   25ARHM    C520815   4.951   6.851  18.757
   25ARHM    H520816   4.850   6.879  18.722
   25ARHM    O520817   5.048   6.901  18.663
   25ARHM    C220818   5.065   7.111  18.783
   25ARHM    H220819   5.046   7.220  18.775
   25ARHM    O220820   5.200   7.088  18.826
   25ARHM    C320821   4.964   7.060  18.882
   25ARHM    H320822   4.861   7.083  18.845
   25ARHM    O320823   4.989   7.126  19.006
   25ARHM    C420824   4.975   6.912  18.895
   25ARHM    H420825   5.078   6.882  18.927
   25ARHM    O420826   4.884   6.865  18.994
   25ARHM   HO420827   4.922   6.790  19.039
   25ARHM    C620828   4.957   6.697  18.758
   25ARHM   H6120829   4.950   6.660  18.654
   25ARHM   H6220830   5.052   6.661  18.802
   25ARHM   H6320831   4.871   6.658  18.816
   26BMANN   C120832   5.296   7.170  18.765
   26BMANN   H120833   5.251   7.262  18.722
   26BMANN   C520834   5.462   7.196  18.596
   26BMANN   H520835   5.406   7.283  18.554
   26BMANN   O520836   5.368   7.106  18.659
   26BMANN   C220837   5.392   7.210  18.872
   26BMANN   H220838   5.330   7.264  18.949
   26BMANN    N20839   5.459   7.094  18.929
   26BMANN   HN20840   5.504   7.034  18.865
   26BMANN    C20841   5.463   7.068  19.060
   26BMANN    O20842   5.399   7.136  19.139
   26BMANN   CT20843   5.557   6.958  19.104
   26BMANN  HT120844   5.568   6.884  19.022
   26BMANN  HT220845   5.527   6.906  19.197
   26BMANN  HT320846   5.656   7.004  19.123
   26BMANN   C320847   5.488   7.308  18.813
   26BMANN   H320848   5.426   7.388  18.769
   26BMANN   O320849   5.572   7.363  18.913
   26BMANN  HO320850   5.520   7.431  18.958
   26BMANN   C420851   5.563   7.245  18.698
   26BMANN   H420852   5.623   7.159  18.733
   26BMANN   O420853   5.653   7.338  18.640
   26BMANN  HO420854   5.734   7.341  18.691
   26BMANN   C620855   5.521   7.122  18.477
   26BMANN  H6120856   5.442   7.061  18.428
   26BMANN  H6220857   5.560   7.193  18.401
   26BMANN   O620858   5.627   7.034  18.517
   26BMANN  HO620859   5.700   7.089  18.546
   27BGLCN   C120860   4.879   7.165  19.084
   27BGLCN   H120861   4.796   7.091  19.079
   27BGLCN   C520862   4.725   7.337  19.129
   27BGLCN   H520863   4.647   7.257  19.130
   27BGLCN   O520864   4.832   7.293  19.044
   27BGLCN   C220865   4.937   7.174  19.223
   27BGLCN   H220866   5.017   7.254  19.220
   27BGLCN    N20867   4.999   7.049  19.267
   27BGLCN   HN20868   4.950   6.967  19.241
   27BGLCN    C20869   5.117   7.048  19.332
   27BGLCN    O20870   5.161   7.148  19.387
   27BGLCN   CT20871   5.195   6.919  19.338
   27BGLCN  HT120872   5.149   6.843  19.273
   27BGLCN  HT220873   5.205   6.882  19.441
   27BGLCN  HT320874   5.299   6.940  19.303
   27BGLCN   C320875   4.832   7.220  19.319
   27BGLCN   H320876   4.749   7.145  19.314
   27BGLCN   O320877   4.896   7.219  19.449
   27BGLCN   C420878   4.778   7.353  19.270
   27BGLCN   H420879   4.859   7.429  19.269
   27BGLCN   O420880   4.673   7.399  19.352
   27BGLCN  HO420881   4.599   7.339  19.345
   27BGLCN   C620882   4.658   7.459  19.070
   27BGLCN  H6120883   4.563   7.481  19.123
   27BGLCN  H6220884   4.725   7.546  19.080
   27BGLCN   O620885   4.628   7.438  18.932
   27BGLCN  HO620886   4.598   7.517  18.885
   28AGAL    C120887   4.812   7.218  19.560
   28AGAL    H120888   4.766   7.319  19.568
   28AGAL    C520889   4.752   6.985  19.549
   28AGAL    H520890   4.839   6.973  19.479
   28AGAL    O520891   4.706   7.122  19.541
   28AGAL    C220892   4.878   7.190  19.697
   28AGAL    H220893   4.793   7.197  19.767
   28AGAL    O220894   4.974   7.284  19.747
   28AGAL    C320895   4.928   7.047  19.705
   28AGAL    H320896   4.998   7.031  19.621
   28AGAL    O320897   5.000   7.011  19.824
   28AGAL   HO320898   5.088   6.982  19.795
   28AGAL    C420899   4.809   6.956  19.686
   28AGAL    H420900   4.847   6.851  19.685
   28AGAL    O420901   4.711   6.969  19.787
   28AGAL   HO420902   4.720   6.895  19.847
   28AGAL    C620903   4.647   6.886  19.501
   28AGAL   H6120904   4.630   6.904  19.392
   28AGAL   H6220905   4.681   6.781  19.512
   28AGAL    O620906   4.523   6.894  19.569
   28AGAL   HO620907   4.473   6.968  19.534
   29ARHM    C120908   4.953   7.306  19.885
   29ARHM    H120909   4.904   7.220  19.933
   29ARHM    C520910   4.931   7.538  19.852
   29ARHM    H520911   4.951   7.521  19.743
   29ARHM    O520912   4.872   7.421  19.908
   29ARHM    C220913   5.084   7.326  19.953
   29ARHM    H220914   5.148   7.238  19.928
   29ARHM    O220915   5.066   7.336  20.097
   29ARHM    C320916   5.151   7.448  19.897
   29ARHM    H320917   5.167   7.436  19.787
   29ARHM    O320918   5.278   7.463  19.955
   29ARHM   HO320919   5.294   7.558  19.956
   29ARHM    C420920   5.063   7.570  19.919
   29ARHM    H420921   5.047   7.586  20.028
   29ARHM    O420922   5.122   7.691  19.872
   29ARHM   HO420923   5.156   7.684  19.782
   29ARHM    C620924   4.819   7.639  19.860
   29ARHM   H6120925   4.731   7.593  19.812
   29ARHM   H6220926   4.795   7.673  19.963
   29ARHM   H6320927   4.843   7.721  19.792
   30ARHM    C120928   5.086   7.219  20.173
   30ARHM    H120929   5.187   7.178  20.153
   30ARHM    C520930   4.854   7.164  20.186
   30ARHM    H520931   4.836   7.257  20.128
   30ARHM    O520932   4.986   7.118  20.152
   30ARHM    C220933   5.080   7.259  20.319
   30ARHM    H220934   5.155   7.338  20.339
   30ARHM    O220935   5.106   7.143  20.397
   30ARHM    C320936   4.942   7.309  20.359
   30ARHM    H320937   4.916   7.391  20.288
   30ARHM    O320938   4.943   7.366  20.491
   30ARHM    C420939   4.842   7.199  20.333
   30ARHM    H420940   4.865   7.108  20.392
   30ARHM    O420941   4.709   7.236  20.367
   30ARHM   HO420942   4.665   7.290  20.301
   30ARHM    C620943   4.751   7.060  20.142
   30ARHM   H6120944   4.649   7.101  20.161
   30ARHM   H6220945   4.759   7.041  20.034
   30ARHM   H6320946   4.762   6.965  20.198
   31BMANN   C120947   5.240   7.122  20.426
   31BMANN   H120948   5.289   7.218  20.453
   31BMANN   C520949   5.447   7.025  20.357
   31BMANN   H520950   5.491   7.123  20.387
   31BMANN   O520951   5.310   7.054  20.322
   31BMANN   C220952   5.236   7.032  20.545
   31BMANN   H220953   5.189   7.091  20.628
   31BMANN    N20954   5.153   6.916  20.519
   31BMANN   HN20955   5.137   6.893  20.423
   31BMANN    C20956   5.089   6.849  20.615
   31BMANN    O20957   5.096   6.885  20.731
   31BMANN   CT20958   5.010   6.730  20.573
   31BMANN  HT120959   5.066   6.676  20.493
   31BMANN  HT220960   4.913   6.767  20.533
   31BMANN  HT320961   4.986   6.664  20.657
   31BMANN   C320962   5.377   7.003  20.587
   31BMANN   H320963   5.430   7.100  20.604
   31BMANN   O320964   5.380   6.937  20.712
   31BMANN  HO320965   5.291   6.948  20.750
   31BMANN   C420966   5.451   6.933  20.477
   31BMANN   H420967   5.401   6.837  20.448
   31BMANN   O420968   5.585   6.902  20.515
   31BMANN  HO420969   5.628   6.976  20.558
   31BMANN   C620970   5.528   6.972  20.241
   31BMANN  H6120971   5.635   6.980  20.269
   31BMANN  H6220972   5.504   6.865  20.225
   31BMANN   O620973   5.509   7.042  20.118
   31BMANN  HO620974   5.546   7.130  20.121
   32BGLCN   C120975   4.930   7.276  20.598
   32BGLCN   H120976   4.987   7.183  20.577
   32BGLCN   C520977   4.788   7.137  20.729
   32BGLCN   H520978   4.849   7.050  20.694
   32BGLCN   O520979   4.796   7.238  20.627
   32BGLCN   C220980   4.990   7.338  20.722
   32BGLCN   H220981   4.921   7.421  20.751
   32BGLCN    N20982   5.120   7.393  20.693
   32BGLCN   HN20983   5.169   7.342  20.624
   32BGLCN    C20984   5.175   7.505  20.744
   32BGLCN    O20985   5.117   7.576  20.826
   32BGLCN   CT20986   5.312   7.538  20.690
   32BGLCN  HT120987   5.325   7.481  20.597
   32BGLCN  HT220988   5.393   7.511  20.761
   32BGLCN  HT320989   5.320   7.647  20.668
   32BGLCN   C320990   4.991   7.232  20.829
   32BGLCN   H320991   5.042   7.143  20.784
   32BGLCN   O320992   5.066   7.269  20.946
   32BGLCN   C420993   4.848   7.193  20.857
   32BGLCN   H420994   4.791   7.285  20.887
   32BGLCN   O420995   4.839   7.098  20.961
   32BGLCN  HO420996   4.826   7.143  21.045
   32BGLCN   C620997   4.647   7.083  20.740
   32BGLCN  H6120998   4.641   6.995  20.807
   32BGLCN  H6220999   4.584   7.159  20.791
   32BGLCN   O621000   4.593   7.045  20.613
   32BGLCN  HO621001   4.662   7.009  20.556
   33AGAL    C121002   5.138   7.161  21.004
   33AGAL    H121003   5.080   7.067  20.997
   33AGAL    C521004   5.355   7.252  20.957
   33AGAL    H521005   5.295   7.339  20.921
   33AGAL    O521006   5.267   7.139  20.942
   33AGAL    C221007   5.164   7.192  21.151
   33AGAL    H221008   5.226   7.109  21.189
   33AGAL    O221009   5.040   7.185  21.224
   33AGAL    C321010   5.251   7.317  21.166
   33AGAL    H321011   5.206   7.400  21.108
   33AGAL    O321012   5.256   7.368  21.299
   33AGAL   HO321013   5.288   7.302  21.361
   33AGAL    C421014   5.387   7.288  21.103
   33AGAL    H421015   5.448   7.380  21.103
   33AGAL    O421016   5.469   7.192  21.170
   33AGAL   HO421017   5.418   7.130  21.222
   33AGAL    C621018   5.474   7.245  20.863
   33AGAL   H6121019   5.432   7.245  20.760
   33AGAL   H6221020   5.538   7.335  20.873
   33AGAL    O621021   5.559   7.132  20.879
   33AGAL   HO621022   5.531   7.058  20.823
   34ARHM    C121023   5.044   7.106  21.341
   34ARHM    H121024   5.132   7.140  21.401
   34ARHM    C521025   4.953   6.903  21.244
   34ARHM    H521026   4.953   6.950  21.143
   34ARHM    O521027   5.060   6.963  21.321
   34ARHM    C221028   4.916   7.135  21.417
   34ARHM    H221029   4.899   7.245  21.421
   34ARHM    O221030   4.916   7.083  21.553
   34ARHM    C321031   4.799   7.076  21.337
   34ARHM    H321032   4.798   7.123  21.236
   34ARHM    O321033   4.673   7.103  21.400
   34ARHM   HO321034   4.606   7.120  21.332
   34ARHM    C421035   4.822   6.928  21.316
   34ARHM    H421036   4.831   6.877  21.415
   34ARHM    O421037   4.714   6.868  21.245
   34ARHM   HO421038   4.638   6.861  21.304
   34ARHM    C621039   4.974   6.751  21.223
   34ARHM   H6121040   4.983   6.693  21.316
   34ARHM   H6221041   4.886   6.709  21.170
   34ARHM   H6321042   5.060   6.730  21.158
   35ARHM    C121043   5.019   7.123  21.643
   35ARHM    H121044   5.052   7.225  21.623
   35ARHM    C521045   5.112   6.904  21.657
   35ARHM    H521046   5.035   6.866  21.587
   35ARHM    O521047   5.137   7.043  21.631
   35ARHM    C221048   4.969   7.114  21.787
   35ARHM    H221049   4.877   7.176  21.802
   35ARHM    O221050   5.070   7.161  21.879
   35ARHM    C321051   4.935   6.971  21.820
   35ARHM    H321052   4.858   6.935  21.748
   35ARHM    O321053   4.877   6.958  21.949
   35ARHM   HO321054   4.920   7.018  22.011
   35ARHM    C421055   5.061   6.887  21.801
   35ARHM    H421056   5.141   6.922  21.870
   35ARHM    O421057   5.035   6.749  21.829
   35ARHM   HO421058   4.947   6.725  21.796
   35ARHM    C621059   5.241   6.826  21.623
   35ARHM   H6121060   5.264   6.831  21.514
   35ARHM   H6221061   5.327   6.868  21.679
   35ARHM   H6321062   5.226   6.719  21.648
   36BMANN   C121063   5.088   7.300  21.884
   36BMANN   H121064   4.996   7.352  21.851
   36BMANN   C521065   5.207   7.490  21.808
   36BMANN   H521066   5.108   7.534  21.781
   36BMANN   O521067   5.195   7.346  21.802
   36BMANN   C221068   5.118   7.335  22.028
   36BMANN   H221069   5.026   7.302  22.084
   36BMANN    N21070   5.234   7.267  22.085
   36BMANN   HN21071   5.311   7.253  22.023
   36BMANN    C21072   5.240   7.242  22.218
   36BMANN    O21073   5.144   7.257  22.293
   36BMANN   CT21074   5.370   7.195  22.276
   36BMANN  HT121075   5.455   7.241  22.229
   36BMANN  HT221076   5.389   7.092  22.261
   36BMANN  HT321077   5.376   7.207  22.386
   36BMANN   C321078   5.126   7.486  22.037
   36BMANN   H321079   5.031   7.531  22.001
   36BMANN   O321080   5.146   7.528  22.171
   36BMANN  HO321081   5.073   7.581  22.204
   36BMANN   C421082   5.237   7.536  21.949
   36BMANN   H421083   5.335   7.494  21.981
   36BMANN   O421084   5.249   7.677  21.961
   36BMANN  HO421085   5.256   7.691  22.056
   36BMANN   C621086   5.307   7.543  21.709
   36BMANN  H6121087   5.281   7.509  21.606
   36BMANN  H6221088   5.298   7.654  21.707
   36BMANN   O621089   5.441   7.506  21.745
   36BMANN  HO621090   5.478   7.577  21.800
    1ECLIP HB6S21091   1.530   1.555  11.779
    1ECLIP  OB621092   1.423   1.676  11.908
    1ECLIP  CB621093   1.424   1.574  11.806
    1ECLIP HB6R21094   1.382   1.479  11.846
    1ECLIP  CB521095   1.345   1.608  11.680
    1ECLIP  OB521096   1.400   1.733  11.632
    1ECLIP  HB521097   1.239   1.620  11.711
    1ECLIP  CB121098   1.332   1.779  11.515
    1ECLIP  HB121099   1.222   1.791  11.533
    1ECLIP  OA621100   1.380   1.904  11.469
    1ECLIP  CA621101   1.520   1.929  11.493
    1ECLIP HA6R21102   1.577   1.835  11.512
    1ECLIP HA6S21103   1.529   1.996  11.581
    1ECLIP  CB421104   1.355   1.500  11.570
    1ECLIP  HB421105   1.462   1.479  11.542
    1ECLIP  OB421106   1.287   1.385  11.621
    1ECLIP   PB21107   1.372   1.249  11.667
    1ECLIP OPB421108   1.299   1.182  11.784
    1ECLIP OPB321109   1.514   1.294  11.704
    1ECLIP OPB221110   1.371   1.164  11.543
    1ECLIP  CB321111   1.284   1.550  11.445
    1ECLIP  OB321112   1.295   1.465  11.331
    1ECLIP  HB321113   1.178   1.574  11.470
    1ECLIP  C7121114   1.206   1.368  11.314
    1ECLIP  O7121115   1.094   1.372  11.362
    1ECLIP  C7221116   1.232   1.305  11.175
    1ECLIP H72R21117   1.235   1.383  11.096
    1ECLIP H72S21118   1.151   1.233  11.153
    1ECLIP  CB221119   1.348   1.681  11.403
    1ECLIP  HB221120   1.458   1.662  11.388
    1ECLIP  NB221121   1.285   1.732  11.281
    1ECLIP HNB221122   1.207   1.793  11.293
    1ECLIP  CA421123   1.490   2.105  11.316
    1ECLIP  HA421124   1.395   2.055  11.288
    1ECLIP  OA421125   1.465   2.201  11.417
    1ECLIP HOA421126   1.441   2.157  11.499
    1ECLIP  CA521127   1.580   1.996  11.370
    1ECLIP  HA521128   1.683   2.033  11.393
    1ECLIP  OA521129   1.588   1.896  11.270
    1ECLIP  CA121130   1.645   1.942  11.147
    1ECLIP  HA121131   1.625   1.856  11.079
    1ECLIP  OA121132   1.785   1.966  11.148
    1ECLIP OPA221133   1.935   1.912  11.336
    1ECLIP OPA321134   1.810   1.722  11.222
    1ECLIP OPA421135   1.997   1.838  11.098
    1ECLIP   PA21136   1.889   1.851  11.204
    1ECLIP  CA321137   1.547   2.166  11.190
    1ECLIP  HA321138   1.644   2.216  11.210
    1ECLIP  OA321139   1.454   2.269  11.151
    1ECLIP  C3121140   1.346   2.228  11.087
    1ECLIP  O3121141   1.335   2.228  10.966
    1ECLIP  C3221142   1.228   2.260  11.177
    1ECLIP H32R21143   1.182   2.345  11.132
    1ECLIP H32S21144   1.253   2.307  11.273
    1ECLIP  CA221145   1.561   2.053  11.088
    1ECLIP  HA221146   1.461   2.007  11.071
    1ECLIP  NA221147   1.613   2.101  10.959
    1ECLIP HNA221148   1.618   2.199  10.949
    1ECLIP  C7321149   1.369   1.232  11.172
    1ECLIP H73R21150   1.377   1.170  11.265
    1ECLIP  O7321151   1.468   1.334  11.163
    1ECLIP  C8121152   1.583   1.320  11.230
    1ECLIP  O8121153   1.616   1.221  11.294
    1ECLIP  C8221154   1.685   1.418  11.170
    1ECLIP H82R21155   1.782   1.406  11.223
    1ECLIP H82S21156   1.651   1.521  11.192
    1ECLIP  C8321157   1.705   1.403  11.017
    1ECLIP H83R21158   1.622   1.456  10.965
    1ECLIP H83S21159   1.699   1.295  10.990
    1ECLIP  C8421160   1.836   1.465  10.966
    1ECLIP H84R21161   1.924   1.406  10.996
    1ECLIP H84S21162   1.843   1.567  11.013
    1ECLIP  C8521163   1.834   1.487  10.813
    1ECLIP H85R21164   1.733   1.527  10.791
    1ECLIP H85S21165   1.844   1.391  10.760
    1ECLIP  C8621166   1.934   1.595  10.765
    1ECLIP H86R21167   2.031   1.550  10.736
    1ECLIP H86S21168   1.956   1.665  10.849
    1ECLIP  C8721169   1.877   1.683  10.652
    1ECLIP H87R21170   1.955   1.753  10.616
    1ECLIP H87S21171   1.795   1.747  10.694
    1ECLIP  C8821172   1.816   1.601  10.538
    1ECLIP H88R21173   1.718   1.561  10.571
    1ECLIP H88S21174   1.880   1.511  10.524
    1ECLIP  C8921175   1.797   1.681  10.408
    1ECLIP H89R21176   1.795   1.790  10.426
    1ECLIP H89S21177   1.699   1.656  10.362
    1ECLIP C81021178   1.905   1.642  10.306
    1ECLIPH810R21179   1.934   1.538  10.329
    1ECLIPH810S21180   1.993   1.708  10.323
    1ECLIP C81121181   1.859   1.652  10.160
    1ECLIPH811R21182   1.946   1.660  10.090
    1ECLIPH811S21183   1.797   1.744  10.152
    1ECLIP C81221184   1.771   1.536  10.110
    1ECLIPH812R21185   1.735   1.565  10.008
    1ECLIPH812S21186   1.683   1.526  10.177
    1ECLIP C81321187   1.839   1.400  10.101
    1ECLIPH813R21188   1.924   1.408  10.030
    1ECLIPH813S21189   1.879   1.367  10.200
    1ECLIP C81421190   1.745   1.292  10.050
    1ECLIPH814R21191   1.695   1.327   9.957
    1ECLIPH814S21192   1.670   1.269  10.128
    1ECLIPH814T21193   1.799   1.198  10.026
    1ECLIP  C7421194   1.391   1.140  11.049
    1ECLIP H74R21195   1.319   1.056  11.041
    1ECLIP H74S21196   1.491   1.093  11.068
    1ECLIP  C7521197   1.404   1.215  10.914
    1ECLIP H75R21198   1.483   1.163  10.855
    1ECLIP H75S21199   1.440   1.318  10.933
    1ECLIP  C7621200   1.275   1.224  10.831
    1ECLIP H76R21201   1.210   1.304  10.874
    1ECLIP H76S21202   1.217   1.129  10.835
    1ECLIP  C7721203   1.297   1.256  10.682
    1ECLIP H77R21204   1.351   1.172  10.635
    1ECLIP H77S21205   1.361   1.345  10.668
    1ECLIP  C7821206   1.160   1.288  10.619
    1ECLIP H78R21207   1.091   1.205  10.644
    1ECLIP H78S21208   1.122   1.379  10.670
    1ECLIP  C7921209   1.155   1.322  10.471
    1ECLIP H79R21210   1.162   1.433  10.456
    1ECLIP H79S21211   1.061   1.288  10.422
    1ECLIP C71021212   1.262   1.256  10.391
    1ECLIPH710R21213   1.364   1.280  10.429
    1ECLIPH710S21214   1.250   1.145  10.389
    1ECLIP C71121215   1.250   1.310  10.254
    1ECLIPH711R21216   1.159   1.277  10.197
    1ECLIPH711S21217   1.270   1.420  10.243
    1ECLIP C71221218   1.367   1.264  10.186
    1ECLIPH712R21219   1.350   1.151  10.186
    1ECLIPH712S21220   1.459   1.259  10.248
    1ECLIP C71321221   1.360   1.357  10.056
    1ECLIPH713R21222   1.412   1.451  10.034
    1ECLIPH713S21223   1.465   1.350  10.017
    1ECLIP C71421224   1.231   1.324   9.960
    1ECLIPH714R21225   1.214   1.216   9.937
    1ECLIPH714S21226   1.130   1.346   9.987
    1ECLIPH714T21227   1.240   1.356   9.855
    1ECLIP  C5121228   1.327   1.696  11.159
    1ECLIP  O5121229   1.434   1.641  11.143
    1ECLIP  C5221230   1.235   1.720  11.042
    1ECLIP H52R21231   1.166   1.633  11.029
    1ECLIP H52S21232   1.174   1.809  11.061
    1ECLIP  C5321233   1.317   1.739  10.913
    1ECLIP H53R21234   1.413   1.791  10.935
    1ECLIP  O5321235   1.232   1.812  10.822
    1ECLIP  C6121236   1.267   1.935  10.789
    1ECLIP  O6121237   1.368   1.993  10.823
    1ECLIP  C6221238   1.162   1.996  10.695
    1ECLIP H62R21239   1.079   2.034  10.758
    1ECLIP H62S21240   1.121   1.911  10.636
    1ECLIP  C6321241   1.226   2.108  10.607
    1ECLIP H63R21242   1.323   2.072  10.567
    1ECLIP H63S21243   1.243   2.200  10.669
    1ECLIP  C6421244   1.156   2.148  10.477
    1ECLIP H64R21245   1.197   2.239  10.429
    1ECLIP H64S21246   1.065   2.185  10.512
    1ECLIP  C6521247   1.119   2.032  10.385
    1ECLIP H65R21248   1.062   1.961  10.449
    1ECLIP H65S21249   1.216   1.989  10.355
    1ECLIP  C6621250   1.037   2.054  10.257
    1ECLIP H66R21251   0.932   2.083  10.273
    1ECLIP H66S21252   1.025   1.954  10.211
    1ECLIP  C6721253   1.093   2.150  10.151
    1ECLIP H67R21254   1.118   2.250  10.193
    1ECLIP H67S21255   1.017   2.164  10.071
    1ECLIP  C6821256   1.217   2.101  10.084
    1ECLIP H68R21257   1.206   1.998  10.046
    1ECLIP H68S21258   1.294   2.104  10.164
    1ECLIP  C6921259   1.247   2.189   9.964
    1ECLIP H69R21260   1.214   2.295   9.976
    1ECLIP H69S21261   1.185   2.148   9.882
    1ECLIP C61021262   1.395   2.187   9.932
    1ECLIPH610R21263   1.433   2.083   9.940
    1ECLIPH610S21264   1.449   2.249  10.007
    1ECLIP C61121265   1.418   2.247   9.795
    1ECLIPH611R21266   1.370   2.345   9.801
    1ECLIPH611S21267   1.527   2.262   9.775
    1ECLIP C61221268   1.344   2.177   9.682
    1ECLIPH612R21269   1.379   2.076   9.677
    1ECLIPH612S21270   1.244   2.142   9.700
    1ECLIPH612T21271   1.363   2.218   9.581
    1ECLIP  C5421272   1.347   1.599  10.853
    1ECLIP H54R21273   1.250   1.554  10.824
    1ECLIP H54S21274   1.391   1.536  10.934
    1ECLIP  C5521275   1.443   1.593  10.733
    1ECLIP H55R21276   1.480   1.489  10.719
    1ECLIP H55S21277   1.533   1.654  10.756
    1ECLIP  C5621278   1.369   1.637  10.605
    1ECLIP H56R21279   1.327   1.737  10.622
    1ECLIP H56S21280   1.284   1.568  10.587
    1ECLIP  C5721281   1.450   1.649  10.477
    1ECLIP H57R21282   1.507   1.556  10.454
    1ECLIP H57S21283   1.526   1.731  10.490
    1ECLIP  C5821284   1.357   1.689  10.360
    1ECLIP H58R21285   1.266   1.625  10.358
    1ECLIP H58S21286   1.319   1.791  10.382
    1ECLIP  C5921287   1.427   1.680  10.224
    1ECLIP H59R21288   1.467   1.578  10.208
    1ECLIP H59S21289   1.513   1.750  10.232
    1ECLIP C51021290   1.335   1.707  10.101
    1ECLIPH510R21291   1.272   1.797  10.118
    1ECLIPH510S21292   1.267   1.620  10.088
    1ECLIP C51121293   1.410   1.726   9.967
    1ECLIPH511R21294   1.448   1.830   9.965
    1ECLIPH511S21295   1.496   1.656   9.959
    1ECLIP C51221296   1.323   1.707   9.844
    1ECLIPH512R21297   1.384   1.695   9.751
    1ECLIPH512S21298   1.257   1.618   9.850
    1ECLIP C51321299   1.241   1.830   9.821
    1ECLIPH513R21300   1.297   1.923   9.797
    1ECLIPH513S21301   1.163   1.854   9.897
    1ECLIP C51421302   1.166   1.802   9.702
    1ECLIPH514R21303   1.102   1.713   9.690
    1ECLIPH514S21304   1.097   1.890   9.707
    1ECLIPH514T21305   1.230   1.809   9.611
    1ECLIP  C3321306   1.118   2.156  11.190
    1ECLIP H33R21307   1.039   2.204  11.250
    1ECLIP  O3321308   1.158   2.061  11.284
    1ECLIP HO3321309   1.142   2.101  11.371
    1ECLIP  C3421310   1.069   2.082  11.061
    1ECLIP H34R21311   1.155   2.030  11.016
    1ECLIP H34S21312   1.035   2.154  10.983
    1ECLIP  C3521313   0.950   1.983  11.081
    1ECLIP H35R21314   0.857   2.035  11.111
    1ECLIP H35S21315   0.979   1.914  11.163
    1ECLIP  C3621316   0.917   1.898  10.957
    1ECLIP H36R21317   1.013   1.890  10.903
    1ECLIP H36S21318   0.846   1.950  10.888
    1ECLIP  C3721319   0.870   1.755  10.989
    1ECLIP H37R21320   0.760   1.756  11.004
    1ECLIP H37S21321   0.915   1.723  11.085
    1ECLIP  C3821322   0.904   1.650  10.880
    1ECLIP H38R21323   1.012   1.624  10.879
    1ECLIP H38S21324   0.850   1.556  10.905
    1ECLIP  C3921325   0.868   1.699  10.739
    1ECLIP H39R21326   0.918   1.796  10.719
    1ECLIP H39S21327   0.758   1.712  10.735
    1ECLIP C31021328   0.906   1.605  10.624
    1ECLIPH310R21329   0.838   1.518  10.633
    1ECLIPH310S21330   1.011   1.570  10.632
    1ECLIP C31121331   0.899   1.678  10.488
    1ECLIPH311R21332   0.817   1.752  10.489
    1ECLIPH311S21333   0.994   1.735  10.473
    1ECLIP C31221334   0.886   1.585  10.366
    1ECLIPH312R21335   0.943   1.491  10.385
    1ECLIPH312S21336   0.778   1.560  10.354
    1ECLIP C31321337   0.937   1.650  10.237
    1ECLIPH313R21338   0.862   1.729  10.211
    1ECLIPH313S21339   1.035   1.701  10.254
    1ECLIP C31421340   0.951   1.554  10.118
    1ECLIPH314R21341   0.852   1.508  10.096
    1ECLIPH314S21342   0.985   1.608  10.027
    1ECLIPH314T21343   1.024   1.474  10.141
    1ECLIP  C1121344   1.671   2.025  10.862
    1ECLIP  O1121345   1.657   1.905  10.848
    1ECLIP  C1221346   1.759   2.102  10.769
    1ECLIP H12R21347   1.864   2.079  10.792
    1ECLIP H12S21348   1.739   2.210  10.786
    1ECLIP  C1321349   1.729   2.066  10.623
    1ECLIP H13R21350   1.710   1.960  10.604
    1ECLIP  O1321351   1.849   2.089  10.551
    1ECLIP HO1321352   1.852   2.069  10.458
    1ECLIP  C1421353   1.608   2.154  10.579
    1ECLIP H14R21354   1.604   2.252  10.632
    1ECLIP H14S21355   1.520   2.094  10.613
    1ECLIP  C1521356   1.589   2.179  10.431
    1ECLIP H15R21357   1.678   2.232  10.393
    1ECLIP H15S21358   1.502   2.248  10.419
    1ECLIP  C1621359   1.564   2.048  10.354
    1ECLIP H16R21360   1.458   2.016  10.364
    1ECLIP H16S21361   1.624   1.967  10.401
    1ECLIP  C1721362   1.599   2.064  10.206
    1ECLIP H17R21363   1.556   2.162  10.175
    1ECLIP H17S21364   1.554   1.986  10.142
    1ECLIP  C1821365   1.750   2.065  10.185
    1ECLIP H18R21366   1.791   2.147  10.247
    1ECLIP H18S21367   1.795   1.969  10.217
    1ECLIP  C1921368   1.789   2.090  10.040
    1ECLIP H19R21369   1.898   2.104  10.034
    1ECLIP H19S21370   1.733   2.179  10.000
    1ECLIP C11021371   1.763   1.973   9.948
    1ECLIPH110R21372   1.796   1.876   9.989
    1ECLIPH110S21373   1.652   1.974   9.952
    1ECLIP C11121374   1.834   1.991   9.810
    1ECLIPH111R21375   1.807   2.096   9.780
    1ECLIPH111S21376   1.942   1.999   9.825
    1ECLIP C11221377   1.829   1.864   9.713
    1ECLIPH112R21378   1.848   1.777   9.773
    1ECLIPH112S21379   1.738   1.804   9.705
    1ECLIP C11321380   1.873   1.877   9.563
    1ECLIPH113R21381   1.850   1.985   9.544
    1ECLIPH113S21382   1.945   1.950   9.527
    1ECLIP C11421383   1.813   1.773   9.455
    1ECLIPH114R21384   1.865   1.680   9.464
    1ECLIPH114S21385   1.709   1.745   9.419
    1ECLIPH114T21386   1.844   1.820   9.365
    2AKDO    C121387   1.199   1.634  11.980
    2AKDO   O1121388   1.144   1.521  11.981
    2AKDO   O1221389   1.146   1.744  11.946
    2AKDO    C221390   1.348   1.641  12.024
    2AKDO    C621391   1.526   1.511  12.122
    2AKDO    H621392   1.584   1.539  12.031
    2AKDO    O621393   1.388   1.514  12.083
    2AKDO    C321394   1.375   1.749  12.129
    2AKDO   H3121395   1.305   1.736  12.215
    2AKDO   H3221396   1.354   1.848  12.082
    2AKDO    C421397   1.517   1.749  12.174
    2AKDO    H421398   1.584   1.761  12.085
    2AKDO    O421399   1.542   1.849  12.273
    2AKDO    C521400   1.555   1.615  12.233
    2AKDO    H521401   1.666   1.615  12.245
    2AKDO    O521402   1.487   1.602  12.362
    2AKDO    C721403   1.570   1.369  12.153
    2AKDO    H721404   1.517   1.335  12.244
    2AKDO    O721405   1.712   1.362  12.173
    2AKDO   HO721406   1.748   1.361  12.084
    2AKDO    C821407   1.534   1.276  12.039
    2AKDO   H8121408   1.423   1.284  12.022
    2AKDO   H8221409   1.583   1.312  11.946
    2AKDO    O821410   1.571   1.138  12.065
    2AKDO   HO821411   1.498   1.088  12.027
    3AKDO    C121412   1.660   1.992  12.116
    3AKDO   O1121413   1.610   2.006  12.001
    3AKDO   O1221414   1.780   1.967  12.145
    3AKDO    C221415   1.562   1.985  12.237
    3AKDO    C621416   1.341   2.044  12.315
    3AKDO    H621417   1.317   1.937  12.334
    3AKDO    O621418   1.439   2.054  12.209
    3AKDO    C321419   1.619   2.044  12.369
    3AKDO   H3121420   1.644   2.151  12.351
    3AKDO   H3221421   1.714   1.995  12.395
    3AKDO    C421422   1.518   2.029  12.479
    3AKDO    H421423   1.488   1.921  12.485
    3AKDO    O421424   1.564   2.067  12.607
    3AKDO   HO421425   1.559   1.993  12.671
    3AKDO    C521426   1.395   2.107  12.442
    3AKDO    H521427   1.322   2.096  12.525
    3AKDO    O521428   1.421   2.246  12.424
    3AKDO   HO521429   1.487   2.249  12.355
    3AKDO    C721430   1.215   2.112  12.272
    3AKDO    H721431   1.237   2.219  12.249
    3AKDO    O721432   1.117   2.107  12.377
    3AKDO   HO721433   1.043   2.158  12.343
    3AKDO    C821434   1.164   2.042  12.148
    3AKDO   H8121435   1.242   2.041  12.069
    3AKDO   H8221436   1.134   1.937  12.169
    3AKDO    O821437   1.054   2.116  12.097
    3AKDO   HO821438   1.093   2.192  12.051
    4AHEP    C121439   1.554   1.527  12.462
    4AHEP    H121440   1.541   1.422  12.428
    4AHEP    C521441   1.735   1.669  12.536
    4AHEP    H521442   1.679   1.753  12.488
    4AHEP    O521443   1.696   1.549  12.467
    4AHEP    C221444   1.503   1.525  12.607
    4AHEP    H221445   1.392   1.515  12.604
    4AHEP    O221446   1.550   1.408  12.675
    4AHEP   HO221447   1.479   1.369  12.726
    4AHEP    C321448   1.536   1.650  12.686
    4AHEP    H321449   1.485   1.740  12.646
    4AHEP    O321450   1.499   1.632  12.825
    4AHEP    C421451   1.687   1.665  12.681
    4AHEP    H421452   1.739   1.582  12.733
    4AHEP    O421453   1.715   1.791  12.741
    4AHEP    P421454   1.802   1.799  12.883
    4AHEP  OP4221455   1.747   1.925  12.948
    4AHEP  OP4321456   1.949   1.813  12.840
    4AHEP  OP4421457   1.780   1.671  12.966
    4AHEP    C621458   1.887   1.690  12.517
    4AHEP    H621459   1.906   1.797  12.545
    4AHEP    O621460   1.972   1.608  12.602
    4AHEP   HO621461   2.016   1.671  12.661
    4AHEP    C721462   1.936   1.672  12.372
    4AHEP   H7121463   2.038   1.715  12.358
    4AHEP   H7221464   1.865   1.724  12.303
    4AHEP    O721465   1.943   1.535  12.330
    4AHEP   HO721466   2.020   1.501  12.376
    5AHEP    C121467   1.408   1.723  12.882
    5AHEP    H121468   1.418   1.824  12.835
    5AHEP    C521469   1.253   1.548  12.932
    5AHEP    H521470   1.333   1.478  12.896
    5AHEP    O521471   1.273   1.674  12.865
    5AHEP    C221472   1.435   1.740  13.033
    5AHEP    H221473   1.542   1.771  13.045
    5AHEP    O221474   1.354   1.846  13.086
    5AHEP   HO221475   1.410   1.924  13.098
    5AHEP    C321476   1.416   1.609  13.109
    5AHEP    H321477   1.487   1.534  13.067
    5AHEP    O321478   1.434   1.618  13.252
    5AHEP    C421479   1.274   1.562  13.083
    5AHEP    H421480   1.201   1.637  13.121
    5AHEP    O421481   1.259   1.433  13.142
    5AHEP    P421482   1.149   1.413  13.266
    5AHEP  OP4221483   1.177   1.272  13.315
    5AHEP  OP4321484   1.012   1.417  13.196
    5AHEP  OP4421485   1.177   1.524  13.368
    5AHEP    C621486   1.117   1.487  12.893
    5AHEP    H621487   1.111   1.387  12.941
    5AHEP    O621488   1.004   1.566  12.935
    5AHEP   HO621489   1.002   1.651  12.891
    5AHEP    C721490   1.110   1.463  12.743
    5AHEP   H7121491   1.053   1.369  12.727
    5AHEP   H7221492   1.210   1.445  12.698
    5AHEP    O721493   1.036   1.566  12.679
    6AHEP    C121494   1.117   1.661  12.615
    6AHEP    H121495   1.224   1.647  12.639
    6AHEP    C521496   0.968   1.663  12.432
    6AHEP    H521497   0.903   1.590  12.488
    6AHEP    O521498   1.104   1.644  12.474
    6AHEP    C221499   1.078   1.800  12.658
    6AHEP    H221500   1.087   1.804  12.769
    6AHEP    O221501   1.168   1.899  12.609
    6AHEP   HO221502   1.219   1.930  12.683
    6AHEP    C321503   0.935   1.823  12.617
    6AHEP    H321504   0.877   1.751  12.674
    6AHEP    O321505   0.888   1.952  12.652
    6AHEP   HO321506   0.831   1.954  12.730
    6AHEP    C421507   0.920   1.801  12.468
    6AHEP    H421508   0.977   1.881  12.414
    6AHEP    O421509   0.784   1.807  12.425
    6AHEP   HO421510   0.735   1.732  12.458
    6AHEP    C621511   0.944   1.627  12.286
    6AHEP    H621512   0.834   1.628  12.268
    6AHEP    O621513   0.996   1.726  12.198
    6AHEP   HO621514   1.058   1.682  12.136
    6AHEP    C721515   0.984   1.483  12.253
    6AHEP   H7121516   0.951   1.458  12.149
    6AHEP   H7221517   0.931   1.416  12.324
    6AHEP    O721518   1.123   1.457  12.265
    6AHEP   HO721519   1.143   1.446  12.358
    7AGLC    C121520   1.562   1.590  13.302
    7AGLC    H121521   1.604   1.500  13.252
    7AGLC    C521522   1.607   1.820  13.346
    7AGLC    H521523   1.502   1.844  13.318
    7AGLC    O521524   1.649   1.699  13.280
    7AGLC    C221525   1.568   1.565  13.453
    7AGLC    H221526   1.674   1.559  13.483
    7AGLC    O221527   1.515   1.440  13.492
    7AGLC   HO221528   1.417   1.446  13.491
    7AGLC    C321529   1.517   1.682  13.533
    7AGLC    H321530   1.414   1.705  13.497
    7AGLC    O321531   1.510   1.653  13.676
    7AGLC    C421532   1.609   1.799  13.498
    7AGLC    H421533   1.714   1.774  13.529
    7AGLC    O421534   1.565   1.917  13.563
    7AGLC   HO421535   1.641   1.964  13.600
    7AGLC    C621536   1.690   1.932  13.286
    7AGLC   H6121537   1.674   1.934  13.176
    7AGLC   H6221538   1.656   2.031  13.322
    7AGLC    O621539   1.831   1.917  13.310
    7AGLC   HO621540   1.856   1.963  13.389
    8AGLC    C121541   1.379   1.663  13.728
    8AGLC    H121542   1.329   1.754  13.687
    8AGLC    C521543   1.334   1.424  13.758
    8AGLC    H521544   1.438   1.402  13.724
    8AGLC    O521545   1.296   1.549  13.696
    8AGLC    C221546   1.377   1.680  13.880
    8AGLC    H221547   1.270   1.696  13.907
    8AGLC    O221548   1.450   1.793  13.931
    8AGLC    C321549   1.425   1.556  13.949
    8AGLC    H321550   1.528   1.536  13.909
    8AGLC    O321551   1.436   1.584  14.090
    8AGLC    C421552   1.333   1.442  13.910
    8AGLC    H421553   1.229   1.470  13.940
    8AGLC    O421554   1.370   1.321  13.976
    8AGLC   HO421555   1.466   1.313  13.980
    8AGLC    C621556   1.251   1.301  13.711
    8AGLC   H6121557   1.241   1.299  13.599
    8AGLC   H6221558   1.304   1.207  13.738
    8AGLC    O621559   1.122   1.292  13.771
    8AGLC   HO621560   1.130   1.252  13.857
    9AGAL    C121561   1.419   1.920  13.879
    9AGAL    H121562   1.416   1.918  13.769
    9AGAL    C521563   1.286   1.991  14.064
    9AGAL    H521564   1.322   1.897  14.111
    9AGAL    O521565   1.290   1.969  13.921
    9AGAL    C221566   1.530   2.015  13.920
    9AGAL    H221567   1.504   2.113  13.873
    9AGAL    O221568   1.651   1.969  13.856
    9AGAL    C321569   1.529   2.039  14.070
    9AGAL    H321570   1.546   1.943  14.126
    9AGAL    O321571   1.635   2.126  14.109
    9AGAL   HO321572   1.711   2.098  14.056
    9AGAL    C421573   1.391   2.095  14.104
    9AGAL    H421574   1.383   2.114  14.212
    9AGAL    O421575   1.369   2.222  14.044
    9AGAL   HO421576   1.303   2.270  14.096
    9AGAL    C621577   1.145   2.010  14.121
    9AGAL   H6121578   1.083   1.922  14.097
    9AGAL   H6221579   1.150   2.017  14.232
    9AGAL    O621580   1.077   2.126  14.075
    9AGAL   HO621581   1.019   2.101  14.002
   10AGAL    C121582   1.782   1.970  13.911
   10AGAL    H121583   1.817   2.075  13.920
   10AGAL    C521584   1.768   1.765  14.039
   10AGAL    H521585   1.665   1.757  14.000
   10AGAL    O521586   1.796   1.907  14.041
   10AGAL    C221587   1.874   1.899  13.812
   10AGAL    H221588   1.977   1.910  13.849
   10AGAL    O221589   1.878   1.961  13.683
   10AGAL   HO221590   1.972   1.975  13.666
   10AGAL    C321591   1.838   1.750  13.807
   10AGAL    H321592   1.729   1.743  13.782
   10AGAL    O321593   1.909   1.676  13.708
   10AGAL   HO321594   1.849   1.652  13.637
   10AGAL    C421595   1.859   1.690  13.944
   10AGAL    H421596   1.827   1.583  13.944
   10AGAL    O421597   1.995   1.696  13.986
   10AGAL   HO421598   2.015   1.789  14.001
   10AGAL    C621599   1.758   1.697  14.175
   10AGAL   H6121600   1.694   1.762  14.236
   10AGAL   H6221601   1.706   1.599  14.162
   10AGAL    O621602   1.879   1.670  14.247
   10AGAL   HO621603   1.891   1.727  14.324
   11BGLC    C121604   1.333   1.552  14.184
   11BGLC    H121605   1.329   1.442  14.198
   11BGLC    C521606   1.101   1.594  14.247
   11BGLC    H521607   1.084   1.492  14.278
   11BGLC    O521608   1.205   1.610  14.147
   11BGLC    C221609   1.378   1.617  14.315
   11BGLC    H221610   1.388   1.727  14.300
   11BGLC    O221611   1.506   1.569  14.355
   11BGLC   HO221612   1.561   1.645  14.369
   11BGLC    C321613   1.276   1.599  14.427
   11BGLC    H321614   1.268   1.491  14.453
   11BGLC    O321615   1.318   1.678  14.541
   11BGLC    C421616   1.145   1.660  14.378
   11BGLC    H421617   1.161   1.767  14.355
   11BGLC    O421618   1.045   1.655  14.480
   11BGLC   HO421619   1.070   1.715  14.552
   11BGLC    C621620   0.968   1.634  14.184
   11BGLC   H6121621   0.898   1.652  14.266
   11BGLC   H6221622   0.981   1.726  14.125
   11BGLC    O621623   0.910   1.535  14.099
   11BGLC   HO621624   0.826   1.498  14.133
   12BGLCN   C121625   1.330   1.615  14.667
   12BGLCN   H121626   1.429   1.565  14.674
   12BGLCN   C521627   1.242   1.461  14.824
   12BGLCN   H521628   1.342   1.418  14.829
   12BGLCN   O521629   1.225   1.522  14.695
   12BGLCN   C221630   1.321   1.726  14.771
   12BGLCN   H221631   1.215   1.765  14.766
   12BGLCN    N21632   1.417   1.828  14.740
   12BGLCN   HN21633   1.511   1.797  14.732
   12BGLCN    C21634   1.383   1.957  14.728
   12BGLCN    O21635   1.270   1.998  14.747
   12BGLCN   CT21636   1.491   2.055  14.691
   12BGLCN  HT121637   1.513   2.121  14.777
   12BGLCN  HT221638   1.457   2.121  14.608
   12BGLCN  HT321639   1.582   2.000  14.660
   12BGLCN   C321640   1.342   1.674  14.912
   12BGLCN   H321641   1.443   1.629  14.916
   12BGLCN   O321642   1.337   1.779  15.013
   12BGLCN   C421643   1.234   1.569  14.933
   12BGLCN   H421644   1.132   1.613  14.927
   12BGLCN   O421645   1.250   1.514  15.063
   12BGLCN  HO421646   1.320   1.449  15.066
   12BGLCN   C621647   1.139   1.350  14.832
   12BGLCN  H6121648   1.141   1.297  14.930
   12BGLCN  H6221649   1.039   1.397  14.820
   12BGLCN   O621650   1.153   1.254  14.727
   12BGLCN  HO621651   1.216   1.186  14.749
   13AGAL    C121652   1.431   1.768  15.120
   13AGAL    H121653   1.438   1.661  15.151
   13AGAL    C521654   1.560   1.963  15.063
   13AGAL    H521655   1.478   1.980  14.991
   13AGAL    O521656   1.562   1.819  15.084
   13AGAL    C221657   1.393   1.844  15.247
   13AGAL    H221658   1.480   1.832  15.317
   13AGAL    O221659   1.279   1.786  15.313
   13AGAL    C321660   1.385   1.993  15.225
   13AGAL    H321661   1.319   2.011  15.138
   13AGAL    O321662   1.330   2.063  15.336
   13AGAL   HO321663   1.274   2.134  15.304
   13AGAL    C421664   1.522   2.042  15.188
   13AGAL    H421665   1.516   2.150  15.159
   13AGAL    O421666   1.615   2.035  15.296
   13AGAL   HO421667   1.614   1.948  15.337
   13AGAL    C621668   1.680   2.021  14.991
   13AGAL   H6121669   1.696   1.964  14.896
   13AGAL   H6221670   1.657   2.127  14.967
   13AGAL    O621671   1.800   2.022  15.066
   13AGAL   HO621672   1.794   2.091  15.134
   14ARHM    C121673   1.301   1.723  15.437
   14ARHM    H121674   1.405   1.685  15.440
   14ARHM    C521675   1.076   1.647  15.455
   14ARHM    H521676   1.056   1.697  15.358
   14ARHM    O521677   1.215   1.610  15.456
   14ARHM    C221678   1.277   1.824  15.548
   14ARHM    H221679   1.344   1.911  15.530
   14ARHM    O221680   1.297   1.778  15.683
   14ARHM    C321681   1.133   1.868  15.543
   14ARHM    H321682   1.109   1.901  15.439
   14ARHM    O321683   1.108   1.981  15.627
   14ARHM   HO321684   1.105   1.950  15.717
   14ARHM    C421685   1.045   1.746  15.568
   14ARHM    H421686   1.074   1.696  15.663
   14ARHM    O421687   0.907   1.781  15.576
   14ARHM   HO421688   0.872   1.767  15.666
   14ARHM    C621689   0.996   1.516  15.465
   14ARHM   H6121690   1.033   1.439  15.394
   14ARHM   H6221691   0.997   1.482  15.570
   14ARHM   H6321692   0.889   1.529  15.444
   15ARHM    C121693   1.419   1.715  15.711
   15ARHM    H121694   1.497   1.752  15.640
   15ARHM    C521695   1.326   1.509  15.800
   15ARHM    H521696   1.220   1.536  15.780
   15ARHM    O521697   1.413   1.571  15.704
   15ARHM    C221698   1.461   1.757  15.850
   15ARHM    H221699   1.458   1.869  15.857
   15ARHM    O221700   1.597   1.712  15.866
   15ARHM    C321701   1.364   1.701  15.950
   15ARHM    H321702   1.260   1.732  15.920
   15ARHM    O321703   1.393   1.760  16.077
   15ARHM    C421704   1.370   1.550  15.939
   15ARHM    H421705   1.476   1.518  15.952
   15ARHM    O421706   1.294   1.482  16.037
   15ARHM   HO421707   1.314   1.387  16.034
   15ARHM    C621708   1.333   1.356  15.782
   15ARHM   H6121709   1.256   1.301  15.841
   15ARHM   H6221710   1.325   1.331  15.674
   15ARHM   H6321711   1.428   1.316  15.817
   16BMANN   C121712   1.666   1.737  15.987
   16BMANN   H121713   1.621   1.675  16.068
   16BMANN   C521714   1.729   1.894  16.156
   16BMANN   H521715   1.682   1.825  16.231
   16BMANN   O521716   1.664   1.875  16.028
   16BMANN   C221717   1.811   1.693  15.967
   16BMANN   H221718   1.808   1.584  15.940
   16BMANN    N21719   1.883   1.763  15.861
   16BMANN   HN21720   1.937   1.840  15.891
   16BMANN    C21721   1.894   1.723  15.735
   16BMANN    O21722   1.842   1.621  15.691
   16BMANN   CT21723   1.972   1.815  15.645
   16BMANN  HT121724   2.073   1.773  15.623
   16BMANN  HT221725   1.980   1.914  15.693
   16BMANN  HT321726   1.920   1.831  15.549
   16BMANN   C321727   1.881   1.709  16.101
   16BMANN   H321728   1.828   1.646  16.176
   16BMANN   O321729   2.015   1.662  16.096
   16BMANN  HO321730   2.028   1.596  16.164
   16BMANN   C421731   1.875   1.855  16.147
   16BMANN   H421732   1.927   1.919  16.073
   16BMANN   O421733   1.939   1.878  16.272
   16BMANN  HO421734   1.971   1.968  16.282
   16BMANN   C621735   1.714   2.034  16.213
   16BMANN  H6121736   1.717   2.026  16.324
   16BMANN  H6221737   1.799   2.097  16.180
   16BMANN   O621738   1.594   2.101  16.176
   16BMANN  HO621739   1.617   2.179  16.127
   17BGLCN   C121740   1.279   1.795  16.151
   17BGLCN   H121741   1.201   1.718  16.134
   17BGLCN   C521742   1.113   1.963  16.193
   17BGLCN   H521743   1.029   1.891  16.173
   17BGLCN   O521744   1.227   1.923  16.114
   17BGLCN   C221745   1.329   1.795  16.294
   17BGLCN   H221746   1.404   1.877  16.311
   17BGLCN    N21747   1.396   1.670  16.324
   17BGLCN   HN21748   1.363   1.591  16.274
   17BGLCN    C21749   1.489   1.650  16.418
   17BGLCN    O21750   1.542   1.738  16.484
   17BGLCN   CT21751   1.523   1.505  16.439
   17BGLCN  HT121752   1.617   1.475  16.388
   17BGLCN  HT221753   1.438   1.443  16.404
   17BGLCN  HT321754   1.534   1.485  16.548
   17BGLCN   C321755   1.208   1.823  16.379
   17BGLCN   H321756   1.131   1.749  16.346
   17BGLCN   O321757   1.237   1.797  16.520
   17BGLCN   C421758   1.158   1.961  16.340
   17BGLCN   H421759   1.240   2.036  16.348
   17BGLCN   O421760   1.061   2.004  16.432
   17BGLCN  HO421761   1.017   2.086  16.407
   17BGLCN   C621762   1.064   2.102  16.148
   17BGLCN  H6121763   0.953   2.106  16.152
   17BGLCN  H6221764   1.103   2.179  16.217
   17BGLCN   O621765   1.104   2.137  16.016
   17BGLCN  HO621766   1.069   2.071  15.957
   18AGAL    C121767   1.131   1.744  16.598
   18AGAL    H121768   1.056   1.824  16.617
   18AGAL    C521769   1.152   1.520  16.523
   18AGAL    H521770   1.246   1.554  16.477
   18AGAL    O521771   1.065   1.634  16.534
   18AGAL    C221772   1.177   1.691  16.733
   18AGAL    H221773   1.082   1.649  16.776
   18AGAL    O221774   1.217   1.794  16.823
   18AGAL    C321775   1.273   1.572  16.721
   18AGAL    H321776   1.357   1.602  16.653
   18AGAL    O321777   1.332   1.533  16.845
   18AGAL   HO321778   1.426   1.518  16.834
   18AGAL    C421779   1.198   1.459  16.654
   18AGAL    H421780   1.266   1.374  16.630
   18AGAL    O421781   1.091   1.410  16.734
   18AGAL   HO421782   1.130   1.361  16.807
   18AGAL    C621783   1.102   1.428  16.419
   18AGAL   H6121784   1.109   1.488  16.327
   18AGAL   H6221785   1.169   1.341  16.403
   18AGAL    O621786   0.969   1.383  16.438
   18AGAL   HO621787   0.924   1.436  16.504
   19ARHM    C121788   1.167   1.768  16.953
   19ARHM    H121789   1.157   1.659  16.972
   19ARHM    C521790   1.038   1.967  16.961
   19ARHM    H521791   1.075   1.988  16.858
   19ARHM    O521792   1.038   1.825  16.978
   19ARHM    C221793   1.262   1.830  17.051
   19ARHM    H221794   1.363   1.795  17.037
   19ARHM    O221795   1.234   1.789  17.185
   19ARHM    C321796   1.267   1.979  17.033
   19ARHM    H321797   1.292   2.004  16.927
   19ARHM    O321798   1.367   2.037  17.114
   19ARHM   HO321799   1.354   2.007  17.204
   19ARHM    C421800   1.130   2.033  17.062
   19ARHM    H421801   1.102   2.005  17.166
   19ARHM    O421802   1.126   2.175  17.053
   19ARHM   HO421803   1.142   2.202  16.961
   19ARHM    C621804   0.894   2.016  16.966
   19ARHM   H6121805   0.840   1.961  16.885
   19ARHM   H6221806   0.842   1.998  17.062
   19ARHM   H6321807   0.889   2.125  16.947
   20ARHM    C121808   1.271   1.655  17.207
   20ARHM    H121809   1.333   1.613  17.123
   20ARHM    C521810   1.078   1.604  17.333
   20ARHM    H521811   1.045   1.709  17.318
   20ARHM    O521812   1.159   1.567  17.221
   20ARHM    C221813   1.355   1.654  17.331
   20ARHM    H221814   1.436   1.730  17.321
   20ARHM    O221815   1.412   1.524  17.352
   20ARHM    C321816   1.274   1.691  17.450
   20ARHM    H321817   1.231   1.793  17.433
   20ARHM    O321818   1.359   1.691  17.564
   20ARHM    C421819   1.160   1.594  17.461
   20ARHM    H421820   1.194   1.488  17.469
   20ARHM    O421821   1.080   1.625  17.574
   20ARHM   HO421822   0.993   1.596  17.546
   20ARHM    C621823   0.952   1.516  17.332
   20ARHM   H6121824   0.977   1.409  17.345
   20ARHM   H6221825   0.884   1.547  17.413
   20ARHM   H6321826   0.900   1.526  17.235
   21BMANN   C121827   1.528   1.508  17.277
   21BMANN   H121828   1.539   1.595  17.208
   21BMANN   C521829   1.640   1.398  17.102
   21BMANN   H521830   1.645   1.496  17.045
   21BMANN   O521831   1.524   1.397  17.188
   21BMANN   C221832   1.649   1.501  17.370
   21BMANN   H221833   1.646   1.597  17.428
   21BMANN    N21834   1.647   1.389  17.465
   21BMANN   HN21835   1.612   1.304  17.427
   21BMANN    C21836   1.687   1.394  17.594
   21BMANN    O21837   1.747   1.490  17.640
   21BMANN   CT21838   1.655   1.278  17.685
   21BMANN  HT121839   1.723   1.193  17.666
   21BMANN  HT221840   1.552   1.247  17.664
   21BMANN  HT321841   1.662   1.305  17.793
   21BMANN   C321842   1.771   1.502  17.282
   21BMANN   H321843   1.767   1.600  17.229
   21BMANN   O321844   1.892   1.499  17.356
   21BMANN  HO321845   1.891   1.422  17.415
   21BMANN   C421846   1.765   1.387  17.184
   21BMANN   H421847   1.766   1.289  17.238
   21BMANN   O421848   1.876   1.385  17.095
   21BMANN  HO421849   1.930   1.307  17.113
   21BMANN   C621850   1.632   1.289  16.998
   21BMANN  H6121851   1.705   1.310  16.917
   21BMANN  H6221852   1.661   1.193  17.044
   21BMANN   O621853   1.502   1.278  16.942
   21BMANN  HO621854   1.441   1.258  17.014
   22BGLCN   C121855   1.333   1.789  17.660
   22BGLCN   H121856   1.226   1.820  17.660
   22BGLCN   C521857   1.393   2.002  17.746
   22BGLCN   H521858   1.284   2.027  17.747
   22BGLCN   O521859   1.415   1.905  17.643
   22BGLCN   C221860   1.367   1.724  17.791
   22BGLCN   H221861   1.476   1.696  17.786
   22BGLCN    N21862   1.287   1.606  17.809
   22BGLCN   HN21863   1.193   1.610  17.775
   22BGLCN    C21864   1.328   1.497  17.871
   22BGLCN    O21865   1.439   1.483  17.922
   22BGLCN   CT21866   1.227   1.387  17.872
   22BGLCN  HT121867   1.245   1.322  17.786
   22BGLCN  HT221868   1.124   1.427  17.866
   22BGLCN  HT321869   1.240   1.329  17.966
   22BGLCN   C321870   1.345   1.821  17.905
   22BGLCN   H321871   1.239   1.854  17.902
   22BGLCN   O321872   1.369   1.749  18.027
   22BGLCN   C421873   1.431   1.942  17.882
   22BGLCN   H421874   1.537   1.909  17.877
   22BGLCN   O421875   1.422   2.039  17.986
   22BGLCN  HO421876   1.509   2.073  18.010
   22BGLCN   C621877   1.473   2.125  17.714
   22BGLCN  H6121878   1.482   2.187  17.805
   22BGLCN  H6221879   1.575   2.097  17.681
   22BGLCN   O621880   1.408   2.207  17.617
   22BGLCN  HO621881   1.396   2.159  17.534
   23AGAL    C121882   1.315   1.797  18.146
   23AGAL    H121883   1.375   1.883  18.181
   23AGAL    C521884   1.087   1.731  18.109
   23AGAL    H521885   1.122   1.677  18.018
   23AGAL    O521886   1.178   1.840  18.135
   23AGAL    C221887   1.325   1.692  18.254
   23AGAL    H221888   1.284   1.739  18.347
   23AGAL    O221889   1.463   1.654  18.279
   23AGAL    C321890   1.232   1.576  18.223
   23AGAL    H321891   1.254   1.537  18.122
   23AGAL    O321892   1.257   1.467  18.309
   23AGAL   HO321893   1.255   1.496  18.401
   23AGAL    C421894   1.089   1.628  18.222
   23AGAL    H421895   1.016   1.546  18.199
   23AGAL    O421896   1.049   1.686  18.346
   23AGAL   HO421897   0.982   1.752  18.320
   23AGAL    C621898   0.953   1.791  18.070
   23AGAL   H6121899   0.970   1.869  17.994
   23AGAL   H6221900   0.889   1.713  18.020
   23AGAL    O621901   0.885   1.852  18.180
   23AGAL   HO621902   0.797   1.883  18.154
   24ARHM    C121903   1.541   1.734  18.365
   24ARHM    H121904   1.494   1.834  18.375
   24ARHM    C521905   1.751   1.637  18.301
   24ARHM    H521906   1.694   1.572  18.231
   24ARHM    O521907   1.675   1.758  18.318
   24ARHM    C221908   1.546   1.661  18.497
   24ARHM    H221909   1.442   1.635  18.529
   24ARHM    O221910   1.612   1.739  18.598
   24ARHM    C321911   1.622   1.532  18.478
   24ARHM    H321912   1.569   1.474  18.399
   24ARHM    O321913   1.620   1.448  18.593
   24ARHM   HO321914   1.689   1.475  18.654
   24ARHM    C421915   1.763   1.563  18.432
   24ARHM    H421916   1.812   1.631  18.506
   24ARHM    O421917   1.843   1.445  18.418
   24ARHM   HO421918   1.936   1.466  18.437
   24ARHM    C621919   1.887   1.665  18.233
   24ARHM   H6121920   1.921   1.574  18.179
   24ARHM   H6221921   1.874   1.745  18.159
   24ARHM   H6321922   1.965   1.699  18.305
   25ARHM    C121923   1.536   1.844  18.650
   25ARHM    H121924   1.450   1.864  18.583
   25ARHM    C521925   1.713   1.961  18.756
   25ARHM    H521926   1.786   1.884  18.721
   25ARHM    O521927   1.606   1.969  18.661
   25ARHM    C221928   1.481   1.798  18.783
   25ARHM    H221929   1.439   1.695  18.773
   25ARHM    O221930   1.379   1.888  18.826
   25ARHM    C321931   1.595   1.789  18.882
   25ARHM    H321932   1.670   1.715  18.845
   25ARHM    O321933   1.540   1.749  19.007
   25ARHM    C421934   1.664   1.922  18.894
   25ARHM    H421935   1.591   2.000  18.927
   25ARHM    O421936   1.773   1.915  18.987
   25ARHM   HO421937   1.768   1.993  19.043
   25ARHM    C621938   1.785   2.095  18.757
   25ARHM   H6121939   1.816   2.123  18.654
   25ARHM   H6221940   1.724   2.176  18.801
   25ARHM   H6321941   1.875   2.090  18.821
   26BMANN   C121942   1.254   1.868  18.764
   26BMANN   H121943   1.246   1.765  18.722
   26BMANN   C521944   1.100   1.934  18.595
   26BMANN   H521945   1.103   1.831  18.554
   26BMANN   O521946   1.227   1.960  18.658
   26BMANN   C221947   1.152   1.886  18.872
   26BMANN   H221948   1.176   1.807  18.949
   26BMANN    N21949   1.156   2.019  18.929
   26BMANN   HN21950   1.151   2.095  18.865
   26BMANN    C21951   1.166   2.046  19.060
   26BMANN    O21952   1.185   1.958  19.143
   26BMANN   CT21953   1.144   2.189  19.101
   26BMANN  HT121954   1.172   2.257  19.019
   26BMANN  HT221955   1.196   2.217  19.195
   26BMANN  HT321956   1.036   2.200  19.121
   26BMANN   C321957   1.018   1.852  18.812
   26BMANN   H321958   1.028   1.754  18.764
   26BMANN   O321959   0.916   1.844  18.910
   26BMANN  HO321960   0.930   1.765  18.964
   26BMANN   C421961   0.988   1.945  18.697
   26BMANN   H421962   0.986   2.050  18.731
   26BMANN   O421963   0.863   1.912  18.639
   26BMANN  HO421964   0.796   1.959  18.691
   26BMANN   C621965   1.088   2.029  18.476
   26BMANN  H6121966   1.188   2.040  18.428
   26BMANN  H6221967   1.019   1.986  18.399
   26BMANN   O621968   1.039   2.159  18.508
   26BMANN  HO621969   0.955   2.152  18.554
   27BGLCN   C121970   1.612   1.657  19.084
   27BGLCN   H121971   1.722   1.675  19.079
   27BGLCN   C521972   1.654   1.428  19.128
   27BGLCN   H521973   1.762   1.456  19.130
   27BGLCN   O521974   1.586   1.523  19.043
   27BGLCN   C221975   1.558   1.679  19.223
   27BGLCN   H221976   1.449   1.653  19.220
   27BGLCN    N21977   1.571   1.818  19.266
   27BGLCN   HN21978   1.656   1.864  19.244
   27BGLCN    C21979   1.471   1.880  19.333
   27BGLCN    O21980   1.380   1.817  19.386
   27BGLCN   CT21981   1.472   2.031  19.339
   27BGLCN  HT121982   1.551   2.071  19.273
   27BGLCN  HT221983   1.484   2.068  19.442
   27BGLCN  HT321984   1.373   2.068  19.303
   27BGLCN   C321985   1.624   1.584  19.318
   27BGLCN   H321986   1.734   1.603  19.314
   27BGLCN   O321987   1.571   1.618  19.449
   27BGLCN   C421988   1.600   1.442  19.270
   27BGLCN   H421989   1.491   1.420  19.269
   27BGLCN   O421990   1.666   1.349  19.354
   27BGLCN  HO421991   1.760   1.361  19.344
   27BGLCN   C621992   1.646   1.289  19.068
   27BGLCN  H6121993   1.716   1.222  19.122
   27BGLCN  H6221994   1.543   1.246  19.081
   27BGLCN   O621995   1.680   1.291  18.929
   27BGLCN  HO621996   1.668   1.204  18.892
   28AGAL    C121997   1.643   1.574  19.561
   28AGAL    H121998   1.628   1.465  19.569
   28AGAL    C521999   1.814   1.741  19.548
   28AGAL    H522000   1.747   1.797  19.479
   28AGAL    O522001   1.784   1.600  19.541
   28AGAL    C222002   1.601   1.632  19.697
   28AGAL    H222003   1.672   1.579  19.766
   28AGAL    O222004   1.470   1.604  19.747
   28AGAL    C322005   1.632   1.780  19.705
   28AGAL    H322006   1.580   1.831  19.621
   28AGAL    O322007   1.588   1.848  19.823
   28AGAL   HO322008   1.528   1.920  19.797
   28AGAL    C422009   1.779   1.795  19.684
   28AGAL    H422010   1.798   1.903  19.679
   28AGAL    O422011   1.857   1.736  19.788
   28AGAL   HO422012   1.892   1.806  19.843
   28AGAL    C622013   1.956   1.771  19.501
   28AGAL   H6122014   1.962   1.748  19.392
   28AGAL   H6222015   1.980   1.879  19.514
   28AGAL    O622016   2.059   1.696  19.567
   28AGAL   HO622017   2.068   1.605  19.535
   29ARHM    C122018   1.475   1.574  19.885
   29ARHM    H122019   1.563   1.622  19.932
   29ARHM    C522020   1.373   1.362  19.851
   29ARHM    H522021   1.366   1.389  19.743
   29ARHM    O522022   1.485   1.433  19.907
   29ARHM    C222023   1.353   1.626  19.953
   29ARHM    H222024   1.345   1.735  19.928
   29ARHM    O222025   1.361   1.607  20.096
   29ARHM    C322026   1.232   1.556  19.897
   29ARHM    H322027   1.227   1.575  19.787
   29ARHM    O322028   1.114   1.611  19.953
   29ARHM   HO322029   1.054   1.537  19.963
   29ARHM    C422030   1.243   1.406  19.918
   29ARHM    H422031   1.249   1.384  20.028
   29ARHM    O422032   1.128   1.335  19.871
   29ARHM   HO422033   1.103   1.360  19.782
   29ARHM    C622034   1.414   1.215  19.859
   29ARHM   H6122035   1.515   1.205  19.813
   29ARHM   H6222036   1.418   1.180  19.964
   29ARHM   H6322037   1.343   1.152  19.800
   30ARHM    C122038   1.407   1.716  20.173
   30ARHM    H122039   1.344   1.806  20.153
   30ARHM    C522040   1.635   1.643  20.186
   30ARHM    H522041   1.602   1.554  20.128
   30ARHM    O522042   1.546   1.750  20.153
   30ARHM    C222043   1.392   1.680  20.319
   30ARHM    H222044   1.286   1.651  20.339
   30ARHM    O222045   1.431   1.793  20.396
   30ARHM    C322046   1.483   1.566  20.358
   30ARHM    H322047   1.461   1.482  20.288
   30ARHM    O322048   1.453   1.517  20.490
   30ARHM    C422049   1.626   1.607  20.333
   30ARHM    H422050   1.654   1.697  20.392
   30ARHM    O422051   1.720   1.506  20.369
   30ARHM   HO422052   1.733   1.441  20.300
   30ARHM    C622053   1.778   1.676  20.141
   30ARHM   H6122054   1.844   1.589  20.159
   30ARHM   H6222055   1.779   1.698  20.033
   30ARHM   H6322056   1.818   1.763  20.198
   31BMANN   C122057   1.328   1.881  20.426
   31BMANN   H122058   1.235   1.825  20.452
   31BMANN   C522059   1.203   2.072  20.357
   31BMANN   H522060   1.114   2.011  20.386
   31BMANN   O522061   1.305   1.976  20.322
   31BMANN   C222062   1.378   1.955  20.545
   31BMANN   H222063   1.388   1.881  20.628
   31BMANN    N22064   1.511   2.012  20.519
   31BMANN   HN22065   1.536   2.019  20.423
   31BMANN    C22066   1.599   2.033  20.617
   31BMANN    O22067   1.575   2.004  20.732
   31BMANN   CT22068   1.731   2.091  20.578
   31BMANN  HT122069   1.722   2.163  20.496
   31BMANN  HT222070   1.794   2.010  20.543
   31BMANN  HT322071   1.784   2.140  20.661
   31BMANN   C322072   1.272   2.053  20.586
   31BMANN   H322073   1.176   1.999  20.603
   31BMANN   O322074   1.302   2.109  20.710
   31BMANN  HO322075   1.374   2.058  20.752
   31BMANN   C422076   1.246   2.153  20.477
   31BMANN   H422077   1.338   2.209  20.449
   31BMANN   O422078   1.146   2.248  20.511
   31BMANN  HO422079   1.073   2.208  20.559
   31BMANN   C622080   1.159   2.161  20.241
   31BMANN  H6122081   1.066   2.216  20.268
   31BMANN  H6222082   1.237   2.239  20.224
   31BMANN   O622083   1.138   2.090  20.119
   31BMANN  HO622084   1.059   2.036  20.123
   32BGLCN   C122085   1.510   1.588  20.597
   32BGLCN   H122086   1.510   1.696  20.577
   32BGLCN   C522087   1.705   1.631  20.729
   32BGLCN   H522088   1.698   1.737  20.694
   32BGLCN   O522089   1.645   1.549  20.627
   32BGLCN   C222090   1.427   1.566  20.722
   32BGLCN   H222091   1.442   1.459  20.751
   32BGLCN    N22092   1.286   1.589  20.694
   32BGLCN   HN22093   1.271   1.655  20.622
   32BGLCN    C22094   1.182   1.520  20.746
   32BGLCN    O22095   1.193   1.432  20.828
   32BGLCN   CT22096   1.049   1.563  20.693
   32BGLCN  HT122097   1.069   1.621  20.602
   32BGLCN  HT222098   0.992   1.629  20.761
   32BGLCN  HT322099   0.985   1.475  20.668
   32BGLCN   C322100   1.482   1.658  20.829
   32BGLCN   H322101   1.486   1.760  20.784
   32BGLCN   O322102   1.399   1.665  20.946
   32BGLCN   C422103   1.624   1.615  20.856
   32BGLCN   H422104   1.624   1.508  20.887
   32BGLCN   O422105   1.684   1.691  20.960
   32BGLCN  HO422106   1.667   1.647  21.044
   32BGLCN   C622107   1.853   1.601  20.742
   32BGLCN  H6122108   1.905   1.673  20.808
   32BGLCN  H6222109   1.865   1.500  20.786
   32BGLCN   O622110   1.919   1.606  20.615
   32BGLCN  HO622111   1.883   1.679  20.564
   33AGAL    C122112   1.395   1.794  21.005
   33AGAL    H122113   1.494   1.843  20.997
   33AGAL    C522114   1.164   1.830  20.957
   33AGAL    H522115   1.169   1.725  20.920
   33AGAL    O522116   1.298   1.880  20.942
   33AGAL    C222117   1.357   1.781  21.151
   33AGAL    H222118   1.346   1.885  21.189
   33AGAL    O222119   1.467   1.724  21.224
   33AGAL    C322120   1.217   1.720  21.167
   33AGAL    H322121   1.212   1.624  21.109
   33AGAL    O322122   1.182   1.680  21.299
   33AGAL   HO322123   1.195   1.751  21.361
   33AGAL    C422124   1.117   1.816  21.102
   33AGAL    H422125   1.016   1.772  21.103
   33AGAL    O422126   1.098   1.939  21.169
   33AGAL   HO422127   1.172   1.971  21.220
   33AGAL    C622128   1.071   1.898  20.860
   33AGAL   H6122129   1.105   1.878  20.757
   33AGAL   H6222130   0.975   1.849  20.867
   33AGAL    O622131   1.049   2.037  20.876
   33AGAL   HO622132   1.115   2.092  20.829
   34ARHM    C122133   1.502   1.793  21.342
   34ARHM    H122134   1.410   1.809  21.401
   34ARHM    C522135   1.686   1.919  21.244
   34ARHM    H522136   1.661   1.877  21.143
   34ARHM    O522137   1.564   1.923  21.321
   34ARHM    C222138   1.598   1.702  21.418
   34ARHM    H222139   1.553   1.599  21.422
   34ARHM    O222140   1.624   1.744  21.554
   34ARHM    C322141   1.727   1.691  21.337
   34ARHM    H322142   1.704   1.649  21.236
   34ARHM    O322143   1.823   1.604  21.399
   34ARHM   HO322144   1.861   1.549  21.331
   34ARHM    C422145   1.785   1.828  21.316
   34ARHM    H422146   1.804   1.877  21.415
   34ARHM    O422147   1.908   1.820  21.244
   34ARHM   HO422148   1.977   1.791  21.305
   34ARHM    C622149   1.747   2.060  21.221
   34ARHM   H6122150   1.769   2.113  21.315
   34ARHM   H6222151   1.844   2.049  21.169
   34ARHM   H6322152   1.683   2.124  21.155
   35ARHM    C122153   1.515   1.760  21.642
   35ARHM    H122154   1.438   1.681  21.623
   35ARHM    C522155   1.551   1.998  21.657
   35ARHM    H522156   1.638   1.991  21.587
   35ARHM    O522157   1.456   1.892  21.632
   35ARHM    C222158   1.562   1.746  21.786
   35ARHM    H222159   1.609   1.645  21.801
   35ARHM    O222160   1.453   1.760  21.880
   35ARHM    C322161   1.666   1.850  21.819
   35ARHM    H322162   1.752   1.841  21.748
   35ARHM    O322163   1.720   1.827  21.949
   35ARHM   HO322164   1.652   1.792  22.007
   35ARHM    C422165   1.604   1.988  21.801
   35ARHM    H422166   1.516   2.001  21.869
   35ARHM    O422167   1.697   2.093  21.832
   35ARHM   HO422168   1.783   2.072  21.793
   35ARHM    C622169   1.485   2.132  21.620
   35ARHM   H6122170   1.462   2.140  21.512
   35ARHM   H6222171   1.390   2.139  21.674
   35ARHM   H6322172   1.551   2.218  21.648
   36BMANN   C122173   1.363   1.652  21.883
   36BMANN   H122174   1.414   1.560  21.848
   36BMANN   C522175   1.164   1.550  21.807
   36BMANN   H522176   1.225   1.462  21.778
   36BMANN   O522177   1.247   1.669  21.802
   36BMANN   C222178   1.320   1.636  22.028
   36BMANN   H222179   1.414   1.618  22.085
   36BMANN    N22180   1.256   1.754  22.086
   36BMANN   HN22181   1.198   1.807  22.025
   36BMANN    C22182   1.264   1.785  22.216
   36BMANN    O22183   1.337   1.723  22.292
   36BMANN   CT22184   1.177   1.896  22.268
   36BMANN  HT122185   1.077   1.891  22.221
   36BMANN  HT222186   1.222   1.995  22.249
   36BMANN  HT322187   1.165   1.886  22.378
   36BMANN   C322188   1.234   1.511  22.038
   36BMANN   H322189   1.292   1.423  22.001
   36BMANN   O322190   1.191   1.482  22.171
   36BMANN  HO322191   1.227   1.402  22.209
   36BMANN   C422192   1.115   1.527  21.949
   36BMANN   H422193   1.054   1.614  21.981
   36BMANN   O422194   1.034   1.411  21.958
   36BMANN  HO422195   1.014   1.405  22.052
   36BMANN   C622196   1.050   1.557  21.708
   36BMANN  H6122197   1.090   1.573  21.605
   36BMANN  H6222198   1.001   1.457  21.706
   36BMANN   O622199   0.954   1.656  21.744
   36BMANN  HO622200   0.887   1.617  21.802
    1ECLIP HB6S22201   2.006   7.122  11.779
    1ECLIP  OB622202   2.070   7.269  11.908
    1ECLIP  CB622203   1.977   7.225  11.806
    1ECLIP HB6R22204   1.874   7.221  11.846
    1ECLIP  CB522205   1.975   7.310  11.680
    1ECLIP  OB522206   2.111   7.315  11.632
    1ECLIP  HB522207   1.940   7.411  11.710
    1ECLIP  CB122208   2.125   7.395  11.515
    1ECLIP  HB122209   2.088   7.499  11.533
    1ECLIP  OA622210   2.258   7.406  11.469
    1ECLIP  CA622211   2.340   7.290  11.493
    1ECLIP HA6R22212   2.280   7.198  11.511
    1ECLIP HA6S22213   2.405   7.309  11.581
    1ECLIP  CB422214   1.883   7.255  11.569
    1ECLIP  HB422215   1.909   7.150  11.542
    1ECLIP  OB422216   1.750   7.269  11.620
    1ECLIP   PB22217   1.664   7.136  11.667
    1ECLIP OPB422218   1.577   7.180  11.783
    1ECLIP OPB322219   1.769   7.031  11.706
    1ECLIP OPB222220   1.588   7.098  11.541
    1ECLIP  CB322221   1.897   7.340  11.445
    1ECLIP  OB322222   1.824   7.294  11.330
    1ECLIP  HB322223   1.873   7.447  11.470
    1ECLIP  C7122224   1.699   7.335  11.314
    1ECLIP  O7122225   1.654   7.436  11.365
    1ECLIP  C7222226   1.652   7.283  11.175
    1ECLIP H72R22227   1.725   7.313  11.096
    1ECLIP H72S22228   1.552   7.326  11.153
    1ECLIP  CB222229   2.042   7.339  11.403
    1ECLIP  HB222230   2.073   7.231  11.387
    1ECLIP  NB222231   2.062   7.417  11.281
    1ECLIP HNB222232   2.082   7.514  11.293
    1ECLIP  CA422233   2.486   7.395  11.316
    1ECLIP  HA422234   2.399   7.458  11.287
    1ECLIP  OA422235   2.558   7.465  11.419
    1ECLIP HOA422236   2.509   7.447  11.499
    1ECLIP  CA522237   2.427   7.266  11.371
    1ECLIP  HA522238   2.503   7.188  11.394
    1ECLIP  OA522239   2.340   7.214  11.271
    1ECLIP  CA122240   2.406   7.182  11.148
    1ECLIP  HA122241   2.321   7.163  11.079
    1ECLIP  OA122242   2.488   7.066  11.155
    1ECLIP OPA222243   2.501   6.891  11.345
    1ECLIP OPA322244   2.276   6.928  11.231
    1ECLIP OPA422245   2.463   6.817  11.107
    1ECLIP   PA22246   2.427   6.921  11.211
    1ECLIP  CA322247   2.566   7.370  11.189
    1ECLIP  HA322248   2.651   7.302  11.210
    1ECLIP  OA322249   2.616   7.502  11.156
    1ECLIP  C3122250   2.536   7.585  11.085
    1ECLIP  O3122251   2.531   7.582  10.963
    1ECLIP  C3222252   2.522   7.717  11.163
    1ECLIP H32R22253   2.577   7.795  11.106
    1ECLIP H32S22254   2.569   7.705  11.262
    1ECLIP  CA222255   2.470   7.307  11.088
    1ECLIP  HA222256   2.385   7.378  11.070
    1ECLIP  NA222257   2.535   7.279  10.959
    1ECLIP HNA222258   2.625   7.318  10.948
    1ECLIP  C7322259   1.645   7.128  11.172
    1ECLIP H73R22260   1.593   7.094  11.265
    1ECLIP  O7322261   1.780   7.083  11.163
    1ECLIP  C8122262   1.816   6.975  11.230
    1ECLIP  O8122263   1.741   6.899  11.289
    1ECLIP  C8222264   1.949   6.922  11.170
    1ECLIP H82R22265   1.979   6.830  11.223
    1ECLIP H82S22266   2.028   6.997  11.191
    1ECLIP  C8322267   1.943   6.896  11.017
    1ECLIP H83R22268   1.957   6.994  10.966
    1ECLIP H83S22269   1.844   6.857  10.990
    1ECLIP  C8422270   2.056   6.806  10.966
    1ECLIP H84R22271   2.041   6.701  10.996
    1ECLIP H84S22272   2.151   6.844  11.012
    1ECLIP  C8522273   2.076   6.816  10.814
    1ECLIP H85R22274   2.068   6.925  10.791
    1ECLIP H85S22275   1.992   6.767  10.759
    1ECLIP  C8622276   2.216   6.772  10.765
    1ECLIP H86R22277   2.217   6.665  10.735
    1ECLIP H86S22278   2.288   6.782  10.849
    1ECLIP  C8722279   2.271   6.862  10.652
    1ECLIP H87R22280   2.368   6.821  10.616
    1ECLIP H87S22281   2.293   6.963  10.694
    1ECLIP  C8822282   2.171   6.882  10.538
    1ECLIP H88R22283   2.092   6.953  10.571
    1ECLIP H88S22284   2.116   6.786  10.524
    1ECLIP  C8922285   2.234   6.933  10.408
    1ECLIP H89R22286   2.333   6.981  10.426
    1ECLIP H89S22287   2.170   7.011  10.362
    1ECLIP C81022288   2.246   6.819  10.306
    1ECLIPH810R22289   2.164   6.748  10.329
    1ECLIPH810S22290   2.343   6.767  10.323
    1ECLIP C81122291   2.235   6.865  10.160
    1ECLIPH811R22292   2.279   6.789  10.090
    1ECLIPH811S22293   2.292   6.960  10.152
    1ECLIP C81222294   2.093   6.896  10.110
    1ECLIPH812R22295   2.104   6.940  10.008
    1ECLIPH812S22296   2.046   6.970  10.177
    1ECLIP C81322297   1.997   6.777  10.100
    1ECLIPH813R22298   2.041   6.703  10.029
    1ECLIPH813S22299   1.985   6.726  10.199
    1ECLIP C81422300   1.859   6.817  10.049
    1ECLIPH814R22301   1.865   6.881   9.958
    1ECLIPH814S22302   1.805   6.874  10.128
    1ECLIPH814T22303   1.799   6.727  10.025
    1ECLIP  C7422304   1.571   7.068  11.049
    1ECLIP H74R22305   1.465   7.097  11.041
    1ECLIP H74S22306   1.572   6.958  11.068
    1ECLIP  C7522307   1.645   7.089  10.914
    1ECLIP H75R22308   1.632   6.995  10.855
    1ECLIP H75S22309   1.754   7.100  10.933
    1ECLIP  C7622310   1.598   7.209  10.831
    1ECLIP H76R22311   1.642   7.302  10.874
    1ECLIP H76S22312   1.487   7.220  10.835
    1ECLIP  C7722313   1.637   7.203  10.682
    1ECLIP H77R22314   1.584   7.117  10.635
    1ECLIP H77S22315   1.744   7.183  10.667
    1ECLIP  C7822316   1.607   7.339  10.616
    1ECLIP H78R22317   1.502   7.367  10.643
    1ECLIP H78S22318   1.672   7.412  10.668
    1ECLIP  C7922319   1.636   7.356  10.466
    1ECLIP H79R22320   1.738   7.399  10.454
    1ECLIP H79S22321   1.565   7.428  10.419
    1ECLIP C71022322   1.624   7.229  10.382
    1ECLIPH710R22323   1.688   7.148  10.423
    1ECLIPH710S22324   1.518   7.196  10.385
    1ECLIP C71122325   1.664   7.248  10.236
    1ECLIPH711R22326   1.599   7.326  10.191
    1ECLIPH711S22327   1.770   7.281  10.229
    1ECLIP C71222328   1.652   7.112  10.164
    1ECLIPH712R22329   1.543   7.086  10.162
    1ECLIPH712S22330   1.704   7.037  10.226
    1ECLIP C71322331   1.718   7.107  10.027
    1ECLIPH713R22332   1.826   7.134  10.027
    1ECLIPH713S22333   1.695   7.012   9.971
    1ECLIP C71422334   1.647   7.204   9.948
    1ECLIPH714R22335   1.546   7.179   9.974
    1ECLIPH714S22336   1.643   7.303   9.994
    1ECLIPH714T22337   1.673   7.206   9.839
    1ECLIP  C5122338   2.047   7.364  11.159
    1ECLIP  O5122339   2.043   7.243  11.144
    1ECLIP  C5222340   2.029   7.458  11.042
    1ECLIP H52R22341   1.921   7.482  11.030
    1ECLIP H52S22342   2.084   7.551  11.061
    1ECLIP  C5322343   2.081   7.392  10.913
    1ECLIP H53R22344   2.170   7.328  10.935
    1ECLIP  O5322345   2.111   7.500  10.822
    1ECLIP  C6122346   2.238   7.522  10.789
    1ECLIP  O6122347   2.332   7.454  10.822
    1ECLIP  C6222348   2.247   7.643  10.696
    1ECLIP H62R22349   2.246   7.735  10.758
    1ECLIP H62S22350   2.153   7.643  10.637
    1ECLIP  C6322351   2.375   7.638  10.607
    1ECLIP H63R22352   2.384   7.536  10.564
    1ECLIP H63S22353   2.466   7.657  10.669
    1ECLIP  C6422354   2.378   7.736  10.487
    1ECLIP H64R22355   2.476   7.729  10.435
    1ECLIP H64S22356   2.366   7.838  10.529
    1ECLIP  C6522357   2.263   7.704  10.391
    1ECLIP H65R22358   2.172   7.718  10.451
    1ECLIP H65S22359   2.269   7.598  10.359
    1ECLIP  C6622360   2.246   7.793  10.267
    1ECLIP H66R22361   2.237   7.900  10.294
    1ECLIP H66S22362   2.152   7.757  10.217
    1ECLIP  C6722363   2.352   7.778  10.161
    1ECLIP H67R22364   2.455   7.798  10.201
    1ECLIP H67S22365   2.337   7.851  10.077
    1ECLIP  C6822366   2.358   7.633  10.112
    1ECLIP H68R22367   2.264   7.601  10.059
    1ECLIP H68S22368   2.391   7.563  10.188
    1ECLIP  C6922369   2.479   7.630  10.021
    1ECLIP H69R22370   2.523   7.726  10.037
    1ECLIP H69S22371   2.405   7.675   9.948
    1ECLIP C61022372   2.582   7.492   9.974
    1ECLIPH610R22373   2.510   7.416  10.011
    1ECLIPH610S22374   2.658   7.491  10.051
    1ECLIP C61122375   2.634   7.441   9.797
    1ECLIPH611R22376   2.696   7.530   9.780
    1ECLIPH611S22377   2.714   7.375   9.776
    1ECLIP C61222378   2.536   7.386   9.644
    1ECLIPH612R22379   2.435   7.343   9.642
    1ECLIPH612S22380   2.440   7.447   9.612
    1ECLIPH612T22381   2.514   7.452   9.570
    1ECLIP  C5422382   1.968   7.304  10.853
    1ECLIP H54R22383   1.885   7.373  10.824
    1ECLIP H54S22384   1.930   7.238  10.934
    1ECLIP  C5522385   2.004   7.215  10.733
    1ECLIP H55R22386   1.926   7.138  10.719
    1ECLIP H55S22387   2.097   7.160  10.756
    1ECLIP  C5622388   2.011   7.301  10.606
    1ECLIP H56R22389   2.084   7.382  10.622
    1ECLIP H56S22390   1.912   7.349  10.587
    1ECLIP  C5722391   2.058   7.233  10.478
    1ECLIP H57R22392   1.998   7.142  10.455
    1ECLIP H57S22393   2.163   7.199  10.491
    1ECLIP  C5822394   2.054   7.334  10.363
    1ECLIP H58R22395   1.957   7.388  10.358
    1ECLIP H58S22396   2.130   7.412  10.383
    1ECLIP  C5922397   2.081   7.264  10.230
    1ECLIP H59R22398   2.002   7.187  10.210
    1ECLIP H59S22399   2.179   7.214  10.237
    1ECLIP C51022400   2.075   7.358  10.112
    1ECLIPH510R22401   2.119   7.459  10.123
    1ECLIPH510S22402   1.968   7.372  10.120
    1ECLIP C51122403   2.128   7.295   9.984
    1ECLIPH511R22404   2.237   7.301   9.980
    1ECLIPH511S22405   2.088   7.191   9.965
    1ECLIP C51222406   2.108   7.373   9.860
    1ECLIPH512R22407   2.113   7.304   9.772
    1ECLIPH512S22408   2.005   7.362   9.863
    1ECLIP C51322409   2.131   7.534   9.843
    1ECLIPH513R22410   2.193   7.508   9.763
    1ECLIPH513S22411   2.128   7.604   9.920
    1ECLIP C51422412   2.148   7.637   9.717
    1ECLIPH514R22413   2.040   7.662   9.732
    1ECLIPH514S22414   2.149   7.739   9.689
    1ECLIPH514T22415   2.171   7.589   9.615
    1ECLIP  C3322416   2.377   7.769  11.182
    1ECLIP H33R22417   2.381   7.873  11.222
    1ECLIP  O3322418   2.315   7.688  11.280
    1ECLIP HO3322419   2.333   7.711  11.371
    1ECLIP  C3422420   2.287   7.772  11.056
    1ECLIP H34R22421   2.277   7.668  11.018
    1ECLIP H34S22422   2.338   7.831  10.977
    1ECLIP  C3522423   2.146   7.830  11.080
    1ECLIP H35R22424   2.152   7.936  11.111
    1ECLIP H35S22425   2.097   7.773  11.162
    1ECLIP  C3622426   2.057   7.820  10.957
    1ECLIP H36R22427   2.093   7.731  10.902
    1ECLIP H36S22428   2.066   7.910  10.890
    1ECLIP  C3722429   1.913   7.787  10.991
    1ECLIP H37R22430   1.870   7.884  11.012
    1ECLIP H37S22431   1.898   7.740  11.089
    1ECLIP  C3822432   1.837   7.708  10.882
    1ECLIP H38R22433   1.849   7.600  10.885
    1ECLIP H38S22434   1.729   7.724  10.906
    1ECLIP  C3922435   1.883   7.741  10.737
    1ECLIP H39R22436   1.989   7.755  10.719
    1ECLIP H39S22437   1.867   7.842  10.707
    1ECLIP C31022438   1.802   7.673  10.629
    1ECLIPH310R22439   1.695   7.690  10.658
    1ECLIPH310S22440   1.808   7.566  10.630
    1ECLIP C31122441   1.856   7.719  10.493
    1ECLIPH311R22442   1.895   7.820  10.505
    1ECLIPH311S22443   1.949   7.667  10.470
    1ECLIP C31222444   1.766   7.697  10.373
    1ECLIPH312R22445   1.699   7.610  10.386
    1ECLIPH312S22446   1.691   7.776  10.365
    1ECLIP C31322447   1.849   7.690  10.245
    1ECLIPH313R22448   1.885   7.791  10.214
    1ECLIPH313S22449   1.938   7.625  10.256
    1ECLIP C31422450   1.767   7.636  10.135
    1ECLIPH314R22451   1.673   7.687  10.128
    1ECLIPH314S22452   1.822   7.650  10.038
    1ECLIPH314T22453   1.726   7.534  10.148
    1ECLIP  C1122454   2.493   7.194  10.862
    1ECLIP  O1122455   2.378   7.155  10.846
    1ECLIP  C1222456   2.603   7.147  10.769
    1ECLIP H12R22457   2.627   7.042  10.791
    1ECLIP H12S22458   2.692   7.210  10.787
    1ECLIP  C1322459   2.565   7.161  10.622
    1ECLIP H13R22460   2.460   7.128  10.601
    1ECLIP  O1322461   2.653   7.077  10.548
    1ECLIP HO1322462   2.618   7.044  10.465
    1ECLIP  C1422463   2.580   7.309  10.580
    1ECLIP H14R22464   2.668   7.354  10.632
    1ECLIP H14S22465   2.488   7.360  10.614
    1ECLIP  C1522466   2.595   7.335  10.431
    1ECLIP H15R22467   2.681   7.277  10.393
    1ECLIP H15S22468   2.620   7.443  10.419
    1ECLIP  C1622469   2.466   7.300  10.356
    1ECLIP H16R22470   2.393   7.383  10.364
    1ECLIP H16S22471   2.418   7.211  10.403
    1ECLIP  C1722472   2.496   7.273  10.210
    1ECLIP H17R22473   2.568   7.353  10.183
    1ECLIP H17S22474   2.405   7.280  10.146
    1ECLIP  C1822475   2.564   7.139  10.185
    1ECLIP H18R22476   2.655   7.137  10.247
    1ECLIP H18S22477   2.495   7.057  10.216
    1ECLIP  C1922478   2.603   7.118  10.040
    1ECLIP H19R22479   2.665   7.026  10.030
    1ECLIP H19S22480   2.664   7.204  10.002
    1ECLIP C11022481   2.479   7.107   9.955
    1ECLIPH110R22482   2.411   7.024   9.985
    1ECLIPH110S22483   2.425   7.203   9.952
    1ECLIP C11122484   2.522   7.080   9.817
    1ECLIPH111R22485   2.609   7.140   9.780
    1ECLIPH111S22486   2.558   6.977   9.839
    1ECLIP C11222487   2.404   7.087   9.720
    1ECLIPH112R22488   2.339   7.003   9.751
    1ECLIPH112S22489   2.341   7.175   9.732
    1ECLIP C11322490   2.446   7.112   9.578
    1ECLIPH113R22491   2.524   7.184   9.555
    1ECLIPH113S22492   2.535   7.062   9.554
    1ECLIP C11422493   2.346   7.149   9.472
    1ECLIPH114R22494   2.328   7.256   9.500
    1ECLIPH114S22495   2.251   7.102   9.454
    1ECLIPH114T22496   2.387   7.114   9.374
    2AKDO    C122497   1.938   7.454  11.980
    2AKDO   O1122498   1.812   7.453  11.977
    2AKDO   O1222499   2.014   7.549  11.943
    2AKDO    C222500   2.006   7.322  12.024
    2AKDO    C622501   1.965   7.106  12.122
    2AKDO    H622502   2.016   7.064  12.031
    2AKDO    O622503   1.909   7.231  12.082
    2AKDO    C322504   2.115   7.344  12.129
    2AKDO   H3122505   2.073   7.401  12.215
    2AKDO   H3222506   2.195   7.405  12.082
    2AKDO    C422507   2.177   7.215  12.174
    2AKDO    H422508   2.216   7.161  12.084
    2AKDO    O422509   2.278   7.235  12.273
    2AKDO    C522510   2.072   7.124  12.232
    2AKDO    H522511   2.119   7.023  12.245
    2AKDO    O522512   2.031   7.178  12.362
    2AKDO    C722513   1.856   7.006  12.153
    2AKDO    H722514   1.802   7.038  12.244
    2AKDO    O722515   1.915   6.877  12.174
    2AKDO   HO722516   1.913   6.836  12.088
    2AKDO    C822517   1.755   6.999  12.039
    2AKDO   H8122518   1.716   7.102  12.021
    2AKDO   H8222519   1.808   6.967  11.946
    2AKDO    O822520   1.644   6.912  12.070
    2AKDO   HO822521   1.570   6.952  12.022
    3AKDO    C122522   2.459   7.189  12.117
    3AKDO   O1122523   2.451   7.242  12.003
    3AKDO   O1222524   2.485   7.068  12.144
    3AKDO    C222525   2.409   7.274  12.238
    3AKDO    C622526   2.367   7.500  12.315
    3AKDO    H622527   2.260   7.476  12.334
    3AKDO    O622528   2.418   7.416  12.209
    3AKDO    C322529   2.487   7.249  12.369
    3AKDO   H3122530   2.594   7.273  12.352
    3AKDO   H3222531   2.483   7.142  12.396
    3AKDO    C422532   2.429   7.335  12.480
    3AKDO    H422533   2.319   7.316  12.485
    3AKDO    O422534   2.483   7.310  12.609
    3AKDO   HO422535   2.411   7.283  12.669
    3AKDO    C522536   2.447   7.478  12.442
    3AKDO    H522537   2.406   7.540  12.525
    3AKDO    O522538   2.585   7.512  12.424
    3AKDO   HO522539   2.617   7.455  12.354
    3AKDO    C722540   2.373   7.644  12.272
    3AKDO    H722541   2.480   7.670  12.249
    3AKDO    O722542   2.327   7.730  12.377
    3AKDO   HO722543   2.346   7.817  12.344
    3AKDO    C822544   2.289   7.662  12.148
    3AKDO   H8122545   2.321   7.590  12.069
    3AKDO   H8222546   2.182   7.642  12.168
    3AKDO    O822547   2.309   7.795  12.097
    3AKDO   HO822548   2.396   7.784  12.061
    4AHEP    C122549   1.991   7.085  12.462
    4AHEP    H122550   1.891   7.052  12.427
    4AHEP    C522551   2.198   6.984  12.536
    4AHEP    H522552   2.249   7.070  12.488
    4AHEP    O522553   2.071   6.966  12.467
    4AHEP    C222554   1.967   7.131  12.608
    4AHEP    H222555   1.911   7.228  12.604
    4AHEP    O222556   1.881   7.039  12.675
    4AHEP   HO222557   1.817   7.087  12.727
    4AHEP    C322558   2.095   7.155  12.686
    4AHEP    H322559   2.155   7.240  12.646
    4AHEP    O322560   2.063   7.181  12.825
    4AHEP    C422561   2.174   7.026  12.682
    4AHEP    H422562   2.121   6.943  12.734
    4AHEP    O422563   2.300   7.056  12.743
    4AHEP    P422564   2.348   6.985  12.887
    4AHEP  OP4222565   2.440   7.091  12.950
    4AHEP  OP4322566   2.421   6.858  12.841
    4AHEP  OP4422567   2.222   6.953  12.966
    4AHEP    C622568   2.283   6.856  12.517
    4AHEP    H622569   2.387   6.885  12.546
    4AHEP    O622570   2.247   6.744  12.602
    4AHEP   HO622571   2.318   6.730  12.668
    4AHEP    C722572   2.288   6.805  12.371
    4AHEP   H7122573   2.369   6.731  12.356
    4AHEP   H7222574   2.305   6.891  12.302
    4AHEP    O722575   2.170   6.739  12.322
    4AHEP   HO722576   2.171   6.655  12.367
    5AHEP    C122577   2.106   7.302  12.883
    5AHEP    H122578   2.201   7.337  12.835
    5AHEP    C522579   1.881   7.366  12.932
    5AHEP    H522580   1.852   7.265  12.896
    5AHEP    O522581   2.004   7.402  12.865
    5AHEP    C222582   2.132   7.285  13.033
    5AHEP    H222583   2.207   7.203  13.045
    5AHEP    O222584   2.188   7.406  13.085
    5AHEP   HO222585   2.281   7.391  13.101
    5AHEP    C322586   2.006   7.246  13.109
    5AHEP    H322587   1.969   7.149  13.068
    5AHEP    O322588   2.022   7.234  13.252
    5AHEP    C422589   1.903   7.353  13.083
    5AHEP    H422590   1.939   7.452  13.121
    5AHEP    O422591   1.779   7.310  13.142
    5AHEP    P422592   1.714   7.400  13.268
    5AHEP  OP4222593   1.600   7.316  13.325
    5AHEP  OP4322594   1.668   7.531  13.208
    5AHEP  OP4422595   1.824   7.435  13.369
    5AHEP    C622596   1.769   7.464  12.894
    5AHEP    H622597   1.674   7.429  12.941
    5AHEP    O622598   1.798   7.597  12.941
    5AHEP   HO622599   1.859   7.643  12.884
    5AHEP    C722600   1.744   7.461  12.744
    5AHEP   H7122601   1.634   7.473  12.729
    5AHEP   H7222602   1.770   7.363  12.698
    5AHEP    O722603   1.806   7.572  12.679
    6AHEP    C122604   1.926   7.539  12.616
    6AHEP    H122605   1.959   7.436  12.640
    6AHEP    C522606   1.864   7.674  12.433
    6AHEP    H522607   1.772   7.703  12.488
    6AHEP    O522608   1.906   7.543  12.474
    6AHEP    C222609   2.034   7.635  12.660
    6AHEP    H222610   2.041   7.627  12.771
    6AHEP    O222611   2.161   7.596  12.610
    6AHEP   HO222612   2.210   7.559  12.683
    6AHEP    C322613   1.997   7.776  12.623
    6AHEP    H322614   1.902   7.804  12.674
    6AHEP    O322615   2.100   7.871  12.660
    6AHEP   HO322616   2.071   7.928  12.733
    6AHEP    C422617   1.975   7.770  12.474
    6AHEP    H422618   2.069   7.752  12.418
    6AHEP    O422619   1.940   7.895  12.432
    6AHEP   HO422620   1.847   7.911  12.451
    6AHEP    C622621   1.822   7.681  12.286
    6AHEP    H622622   1.776   7.781  12.268
    6AHEP    O622623   1.934   7.672  12.197
    6AHEP   HO622624   1.920   7.599  12.135
    6AHEP    C722625   1.709   7.583  12.253
    6AHEP   H7122626   1.671   7.603  12.150
    6AHEP   H7222627   1.625   7.601  12.324
    6AHEP    O722628   1.744   7.445  12.265
    6AHEP   HO722629   1.744   7.426  12.358
    7AGLC    C122630   2.051   7.105  13.301
    7AGLC    H122631   1.987   7.028  13.252
    7AGLC    C522632   2.279   7.165  13.346
    7AGLC    H522633   2.255   7.270  13.318
    7AGLC    O522634   2.189   7.077  13.278
    7AGLC    C222635   2.032   7.092  13.452
    7AGLC    H222636   2.076   6.994  13.477
    7AGLC    O222637   1.897   7.084  13.494
    7AGLC   HO222638   1.861   7.175  13.491
    7AGLC    C322639   2.116   7.187  13.533
    7AGLC    H322640   2.092   7.289  13.497
    7AGLC    O322641   2.087   7.180  13.675
    7AGLC    C422642   2.260   7.153  13.497
    7AGLC    H422643   2.282   7.048  13.529
    7AGLC    O422644   2.348   7.245  13.562
    7AGLC   HO422645   2.420   7.195  13.604
    7AGLC    C622646   2.418   7.137  13.287
    7AGLC   H6122647   2.410   7.153  13.177
    7AGLC   H6222648   2.494   7.209  13.326
    7AGLC    O622649   2.467   7.005  13.308
    7AGLC   HO622650   2.508   7.002  13.393
    8AGLC    C122651   2.039   7.303  13.728
    8AGLC    H122652   2.099   7.387  13.687
    8AGLC    C522653   1.803   7.241  13.758
    8AGLC    H522654   1.830   7.139  13.725
    8AGLC    O522655   1.899   7.329  13.695
    8AGLC    C222656   2.054   7.313  13.880
    8AGLC    H222657   2.023   7.417  13.906
    8AGLC    O222658   2.187   7.295  13.931
    8AGLC    C322659   1.962   7.216  13.949
    8AGLC    H322660   1.988   7.115  13.908
    8AGLC    O322661   1.992   7.219  14.090
    8AGLC    C422662   1.820   7.251  13.909
    8AGLC    H422663   1.800   7.357  13.940
    8AGLC    O422664   1.725   7.166  13.974
    8AGLC   HO422665   1.761   7.078  13.977
    8AGLC    C622666   1.658   7.263  13.710
    8AGLC   H6122667   1.652   7.271  13.599
    8AGLC   H6222668   1.595   7.175  13.738
    8AGLC    O622669   1.590   7.375  13.766
    8AGLC   HO622670   1.565   7.357  13.856
    9AGAL    C122671   2.289   7.378  13.880
    9AGAL    H122672   2.286   7.379  13.769
    9AGAL    C522673   2.296   7.527  14.064
    9AGAL    H522674   2.226   7.454  14.111
    9AGAL    O522675   2.279   7.514  13.922
    9AGAL    C222676   2.423   7.318  13.921
    9AGAL    H222677   2.500   7.383  13.874
    9AGAL    O222678   2.432   7.189  13.857
    9AGAL    C322679   2.445   7.328  14.072
    9AGAL    H322680   2.365   7.272  14.125
    9AGAL    O322681   2.569   7.269  14.111
    9AGAL   HO322682   2.571   7.188  14.058
    9AGAL    C422683   2.436   7.477  14.106
    9AGAL    H422684   2.444   7.490  14.216
    9AGAL    O422685   2.543   7.552  14.049
    9AGAL   HO422686   2.550   7.636  14.096
    9AGAL    C622687   2.253   7.662  14.121
    9AGAL   H6122688   2.146   7.682  14.097
    9AGAL   H6222689   2.261   7.662  14.232
    9AGAL    O622690   2.329   7.772  14.074
    9AGAL   HO622691   2.278   7.816  14.005
   10AGAL    C122692   2.490   7.071  13.911
   10AGAL    H122693   2.600   7.084  13.920
   10AGAL    C522694   2.299   6.996  14.041
   10AGAL    H522695   2.247   7.086  14.001
   10AGAL    O522696   2.439   7.030  14.042
   10AGAL    C222697   2.464   6.959  13.811
   10AGAL    H222698   2.519   6.870  13.848
   10AGAL    O222699   2.523   6.981  13.683
   10AGAL   HO222700   2.573   6.899  13.664
   10AGAL    C322701   2.315   6.926  13.807
   10AGAL    H322702   2.262   7.021  13.781
   10AGAL    O322703   2.278   6.830  13.709
   10AGAL   HO322704   2.230   6.875  13.640
   10AGAL    C422705   2.270   6.883  13.945
   10AGAL    H422706   2.160   6.865  13.944
   10AGAL    O422707   2.335   6.764  13.986
   10AGAL   HO422708   2.428   6.785  13.998
   10AGAL    C622709   2.232   6.976  14.179
   10AGAL   H6122710   2.263   7.058  14.246
   10AGAL   H6222711   2.122   6.982  14.163
   10AGAL    O622712   2.253   6.853  14.250
   10AGAL   HO622713   2.311   6.873  14.323
   11BGLC    C122714   1.920   7.297  14.185
   11BGLC    H122715   1.819   7.254  14.197
   11BGLC    C522716   1.851   7.521  14.250
   11BGLC    H522717   1.746   7.488  14.274
   11BGLC    O522718   1.915   7.437  14.149
   11BGLC    C222719   1.997   7.285  14.315
   11BGLC    H222720   2.102   7.323  14.300
   11BGLC    O222721   2.008   7.147  14.353
   11BGLC   HO222722   2.101   7.130  14.367
   11BGLC    C322723   1.938   7.367  14.427
   11BGLC    H322724   1.837   7.329  14.454
   11BGLC    O322725   2.026   7.365  14.541
   11BGLC    C422726   1.932   7.511  14.379
   11BGLC    H422727   2.035   7.545  14.354
   11BGLC    O422728   1.886   7.597  14.482
   11BGLC   HO422729   1.954   7.599  14.550
   11BGLC    C622730   1.839   7.658  14.189
   11BGLC   H6122731   1.815   7.740  14.263
   11BGLC   H6222732   1.926   7.689  14.129
   11BGLC    O622733   1.735   7.646  14.095
   11BGLC   HO622734   1.667   7.711  14.126
   12BGLCN   C122735   1.976   7.326  14.668
   12BGLCN   H122736   1.973   7.215  14.673
   12BGLCN   C522737   1.797   7.335  14.824
   12BGLCN   H522738   1.795   7.224  14.831
   12BGLCN   O522739   1.847   7.377  14.696
   12BGLCN   C222740   2.072   7.382  14.772
   12BGLCN   H222741   2.060   7.494  14.767
   12BGLCN    N22742   2.207   7.341  14.742
   12BGLCN   HN22743   2.218   7.243  14.734
   12BGLCN    C22744   2.306   7.430  14.728
   12BGLCN    O22745   2.288   7.549  14.743
   12BGLCN   CT22746   2.442   7.377  14.691
   12BGLCN  HT122747   2.511   7.380  14.778
   12BGLCN  HT222748   2.487   7.434  14.607
   12BGLCN  HT322749   2.423   7.276  14.656
   12BGLCN   C322750   2.033   7.341  14.913
   12BGLCN   H322751   2.036   7.230  14.917
   12BGLCN   O322752   2.129   7.389  15.012
   12BGLCN   C422753   1.891   7.391  14.933
   12BGLCN   H422754   1.887   7.503  14.926
   12BGLCN   O422755   1.843   7.355  15.061
   12BGLCN  HO422756   1.826   7.261  15.066
   12BGLCN   C622757   1.654   7.384  14.832
   12BGLCN  H6122758   1.607   7.361  14.929
   12BGLCN  H6222759   1.654   7.495  14.820
   12BGLCN   O622760   1.573   7.329  14.727
   12BGLCN  HO622761   1.541   7.241  14.749
   13AGAL    C122762   2.156   7.300  15.121
   13AGAL    H122763   2.062   7.249  15.151
   13AGAL    C522764   2.388   7.269  15.064
   13AGAL    H522765   2.368   7.351  14.991
   13AGAL    O522766   2.260   7.205  15.085
   13AGAL    C222767   2.209   7.368  15.247
   13AGAL    H222768   2.235   7.285  15.317
   13AGAL    O222769   2.108   7.447  15.313
   13AGAL    C322770   2.341   7.440  15.225
   13AGAL    H322771   2.329   7.507  15.138
   13AGAL    O322772   2.381   7.520  15.335
   13AGAL   HO322773   2.412   7.606  15.304
   13AGAL    C422774   2.444   7.338  15.188
   13AGAL    H422775   2.539   7.390  15.159
   13AGAL    O422776   2.476   7.248  15.295
   13AGAL   HO422777   2.396   7.218  15.337
   13AGAL    C622778   2.491   7.185  14.992
   13AGAL   H6122779   2.447   7.146  14.898
   13AGAL   H6222780   2.578   7.250  14.967
   13AGAL    O622781   2.539   7.077  15.071
   13AGAL   HO622782   2.607   7.111  15.132
   14ARHM    C122783   2.060   7.400  15.437
   14ARHM    H122784   2.069   7.288  15.441
   14ARHM    C522785   1.898   7.571  15.449
   14ARHM    H522786   1.934   7.610  15.352
   14ARHM    O522787   1.922   7.430  15.456
   14ARHM    C222788   2.142   7.465  15.548
   14ARHM    H222789   2.249   7.442  15.530
   14ARHM    O222790   2.106   7.427  15.682
   14ARHM    C322791   2.120   7.614  15.541
   14ARHM    H322792   2.141   7.649  15.437
   14ARHM    O322793   2.205   7.691  15.627
   14ARHM   HO322794   2.192   7.666  15.718
   14ARHM    C422795   1.974   7.640  15.562
   14ARHM    H422796   1.942   7.587  15.653
   14ARHM    O422797   1.943   7.778  15.574
   14ARHM   HO422798   1.921   7.808  15.662
   14ARHM    C622799   1.747   7.591  15.457
   14ARHM   H6122800   1.692   7.519  15.394
   14ARHM   H6222801   1.724   7.573  15.561
   14ARHM   H6322802   1.713   7.693  15.429
   15ARHM    C122803   2.103   7.290  15.712
   15ARHM    H122804   2.165   7.234  15.640
   15ARHM    C522805   1.880   7.287  15.799
   15ARHM    H522806   1.857   7.394  15.779
   15ARHM    O522807   1.972   7.234  15.703
   15ARHM    C222808   2.158   7.269  15.851
   15ARHM    H222809   2.256   7.322  15.858
   15ARHM    O222810   2.179   7.127  15.865
   15ARHM    C322811   2.066   7.334  15.950
   15ARHM    H322812   2.051   7.440  15.921
   15ARHM    O322813   2.131   7.331  16.077
   15ARHM    C422814   1.933   7.264  15.939
   15ARHM    H422815   1.950   7.154  15.952
   15ARHM    O422816   1.836   7.303  16.036
   15ARHM   HO422817   1.766   7.237  16.034
   15ARHM    C622818   1.748   7.214  15.778
   15ARHM   H6122819   1.670   7.259  15.840
   15ARHM   H6222820   1.718   7.209  15.672
   15ARHM   H6322821   1.766   7.113  15.814
   16BMANN   C122822   2.230   7.076  15.987
   16BMANN   H122823   2.154   7.090  16.067
   16BMANN   C522824   2.398   7.085  16.157
   16BMANN   H522825   2.316   7.099  16.232
   16BMANN   O522826   2.353   7.134  16.029
   16BMANN   C222827   2.252   6.925  15.967
   16BMANN   H222828   2.152   6.882  15.939
   16BMANN    N22829   2.346   6.889  15.862
   16BMANN   HN22830   2.440   6.876  15.891
   16BMANN    C22831   2.315   6.863  15.735
   16BMANN    O22832   2.201   6.871  15.691
   16BMANN   CT22833   2.432   6.831  15.645
   16BMANN  HT122834   2.437   6.723  15.623
   16BMANN  HT222835   2.528   6.862  15.691
   16BMANN  HT322836   2.420   6.886  15.551
   16BMANN   C322837   2.296   6.868  16.101
   16BMANN   H322838   2.217   6.891  16.176
   16BMANN   O322839   2.305   6.727  16.096
   16BMANN  HO322840   2.262   6.686  16.173
   16BMANN   C422841   2.425   6.936  16.147
   16BMANN   H422842   2.506   6.917  16.073
   16BMANN   O422843   2.473   6.889  16.273
   16BMANN  HO422844   2.568   6.901  16.283
   16BMANN   C622845   2.519   7.158  16.214
   16BMANN  H6122846   2.513   7.153  16.325
   16BMANN  H6222847   2.611   7.107  16.181
   16BMANN   O622848   2.532   7.295  16.180
   16BMANN  HO622849   2.598   7.312  16.113
   17BGLCN   C122850   2.115   7.449  16.150
   17BGLCN   H122851   2.012   7.487  16.135
   17BGLCN   C522852   2.195   7.672  16.192
   17BGLCN   H522853   2.095   7.717  16.173
   17BGLCN   O522854   2.209   7.552  16.113
   17BGLCN   C222855   2.138   7.406  16.294
   17BGLCN   H222856   2.244   7.373  16.311
   17BGLCN    N22857   2.054   7.292  16.324
   17BGLCN   HN22858   1.969   7.289  16.274
   17BGLCN    C22859   2.075   7.198  16.417
   17BGLCN    O22860   2.176   7.186  16.485
   17BGLCN   CT22861   1.957   7.107  16.437
   17BGLCN  HT122862   1.971   7.008  16.388
   17BGLCN  HT222863   1.865   7.157  16.402
   17BGLCN  HT322864   1.941   7.094  16.546
   17BGLCN   C322865   2.110   7.528  16.379
   17BGLCN   H322866   2.011   7.564  16.346
   17BGLCN   O322867   2.100   7.489  16.519
   17BGLCN   C422868   2.213   7.634  16.340
   17BGLCN   H422869   2.316   7.593  16.351
   17BGLCN   O422870   2.199   7.750  16.421
   17BGLCN  HO422871   2.275   7.810  16.412
   17BGLCN   C622872   2.299   7.776  16.149
   17BGLCN  H6122873   2.256   7.878  16.155
   17BGLCN  H6222874   2.387   7.772  16.217
   17BGLCN   O622875   2.348   7.762  16.016
   17BGLCN  HO622876   2.277   7.751  15.953
   18AGAL    C122877   2.007   7.561  16.597
   18AGAL    H122878   2.049   7.662  16.615
   18AGAL    C522879   1.812   7.448  16.522
   18AGAL    H522880   1.884   7.377  16.477
   18AGAL    O522881   1.879   7.574  16.534
   18AGAL    C222882   1.979   7.497  16.733
   18AGAL    H222883   1.901   7.565  16.775
   18AGAL    O222884   2.090   7.501  16.823
   18AGAL    C322885   1.912   7.360  16.721
   18AGAL    H322886   1.974   7.297  16.653
   18AGAL    O322887   1.904   7.291  16.845
   18AGAL   HO322888   1.930   7.199  16.836
   18AGAL    C422889   1.777   7.380  16.654
   18AGAL    H422890   1.729   7.282  16.630
   18AGAL    O422891   1.687   7.455  16.733
   18AGAL   HO422892   1.658   7.400  16.807
   18AGAL    C622893   1.710   7.455  16.414
   18AGAL   H6122894   1.765   7.481  16.321
   18AGAL   H6222895   1.661   7.357  16.400
   18AGAL    O622896   1.611   7.554  16.434
   18AGAL   HO622897   1.639   7.619  16.500
   19ARHM    C122898   2.046   7.537  16.953
   19ARHM    H122899   1.942   7.502  16.971
   19ARHM    C522900   2.167   7.741  16.961
   19ARHM    H522901   2.202   7.717  16.858
   19ARHM    O522902   2.040   7.678  16.978
   19ARHM    C222903   2.143   7.474  17.047
   19ARHM    H222904   2.155   7.365  17.023
   19ARHM    O222905   2.094   7.483  17.182
   19ARHM    C322906   2.278   7.539  17.032
   19ARHM    H322907   2.311   7.528  16.926
   19ARHM    O322908   2.375   7.474  17.113
   19ARHM   HO322909   2.337   7.466  17.201
   19ARHM    C422910   2.267   7.686  17.061
   19ARHM    H422911   2.229   7.699  17.165
   19ARHM    O422912   2.392   7.753  17.054
   19ARHM   HO422913   2.423   7.750  16.962
   19ARHM    C622914   2.150   7.894  16.965
   19ARHM   H6122915   2.078   7.919  16.884
   19ARHM   H6222916   2.111   7.932  17.061
   19ARHM   H6322917   2.246   7.945  16.943
   20ARHM    C122918   1.986   7.396  17.206
   20ARHM    H122919   1.973   7.322  17.124
   20ARHM    C522920   1.857   7.548  17.332
   20ARHM    H522921   1.938   7.624  17.318
   20ARHM    O522922   1.858   7.460  17.220
   20ARHM    C222923   2.020   7.320  17.331
   20ARHM    H222924   2.125   7.279  17.321
   20ARHM    O222925   1.927   7.214  17.352
   20ARHM    C322926   2.020   7.411  17.449
   20ARHM    H322927   2.094   7.492  17.432
   20ARHM    O322928   2.057   7.333  17.563
   20ARHM    C422929   1.883   7.471  17.461
   20ARHM    H422930   1.802   7.395  17.471
   20ARHM    O422931   1.878   7.558  17.574
   20ARHM   HO422932   1.813   7.623  17.549
   20ARHM    C622933   1.724   7.622  17.329
   20ARHM   H6122934   1.634   7.563  17.342
   20ARHM   H6222935   1.724   7.688  17.417
   20ARHM   H6322936   1.710   7.680  17.236
   21BMANN   C122937   1.963   7.101  17.278
   21BMANN   H122938   2.046   7.128  17.209
   21BMANN   C522939   1.912   6.954  17.102
   21BMANN   H522940   2.002   6.991  17.046
   21BMANN   O522941   1.861   7.058  17.188
   21BMANN   C222942   2.008   6.989  17.371
   21BMANN   H222943   2.094   7.033  17.429
   21BMANN    N22944   1.905   6.943  17.466
   21BMANN   HN22945   1.813   6.940  17.428
   21BMANN    C22946   1.927   6.911  17.596
   21BMANN    O22947   2.040   6.898  17.641
   21BMANN   CT22948   1.807   6.889  17.685
   21BMANN  HT122949   1.762   6.790  17.665
   21BMANN  HT222950   1.733   6.970  17.668
   21BMANN  HT322951   1.837   6.894  17.792
   21BMANN   C322952   2.061   6.880  17.282
   21BMANN   H322953   2.148   6.925  17.229
   21BMANN   O322954   2.111   6.770  17.356
   21BMANN  HO322955   2.044   6.744  17.419
   21BMANN   C422956   1.955   6.835  17.183
   21BMANN   H422957   1.866   6.794  17.237
   21BMANN   O422958   2.000   6.735  17.092
   21BMANN  HO422959   1.960   6.651  17.114
   21BMANN   C622960   1.810   6.915  16.998
   21BMANN  H6122961   1.861   6.857  16.917
   21BMANN  H6222962   1.735   6.848  17.044
   21BMANN   O622963   1.744   7.027  16.941
   21BMANN  HO622964   1.697   7.071  17.014
   22BGLCN   C122965   2.133   7.399  17.660
   22BGLCN   H122966   2.116   7.509  17.660
   22BGLCN   C522967   2.350   7.436  17.745
   22BGLCN   H522968   2.328   7.546  17.747
   22BGLCN   O522969   2.273   7.373  17.642
   22BGLCN   C222970   2.089   7.340  17.791
   22BGLCN   H222971   2.110   7.229  17.786
   22BGLCN    N22972   1.948   7.361  17.808
   22BGLCN   HN22973   1.911   7.446  17.773
   22BGLCN    C22974   1.867   7.276  17.871
   22BGLCN    O22975   1.901   7.171  17.922
   22BGLCN   CT22976   1.724   7.320  17.875
   22BGLCN  HT122977   1.672   7.273  17.790
   22BGLCN  HT222978   1.721   7.429  17.858
   22BGLCN  HT322979   1.675   7.295  17.971
   22BGLCN   C322980   2.167   7.402  17.904
   22BGLCN   H322981   2.151   7.512  17.901
   22BGLCN   O322982   2.110   7.351  18.026
   22BGLCN   C422983   2.313   7.376  17.882
   22BGLCN   H422984   2.330   7.266  17.878
   22BGLCN   O422985   2.394   7.428  17.986
   22BGLCN  HO422986   2.465   7.366  18.009
   22BGLCN   C622987   2.494   7.414  17.711
   22BGLCN  H6122988   2.551   7.423  17.803
   22BGLCN  H6222989   2.513   7.310  17.677
   22BGLCN   O622990   2.545   7.510  17.617
   22BGLCN  HO622991   2.493   7.500  17.536
   23AGAL    C122992   2.132   7.420  18.146
   23AGAL    H122993   2.236   7.401  18.181
   23AGAL    C522994   1.975   7.596  18.109
   23AGAL    H522995   1.942   7.541  18.018
   23AGAL    O522996   2.113   7.562  18.136
   23AGAL    C222997   2.042   7.364  18.255
   23AGAL    H222998   2.068   7.421  18.347
   23AGAL    O222999   2.064   7.224  18.280
   23AGAL    C323000   1.896   7.399  18.224
   23AGAL    H323001   1.872   7.362  18.122
   23AGAL    O323002   1.802   7.335  18.309
   23AGAL   HO323003   1.835   7.341  18.400
   23AGAL    C423004   1.882   7.550  18.222
   23AGAL    H423005   1.778   7.581  18.199
   23AGAL    O423006   1.915   7.611  18.348
   23AGAL   HO423007   1.950   7.699  18.323
   23AGAL    C623008   1.971   7.742  18.070
   23AGAL   H6123009   2.050   7.761  17.994
   23AGAL   H6223010   1.874   7.767  18.019
   23AGAL    O623011   1.993   7.830  18.181
   23AGAL   HO623012   1.991   7.923  18.152
   24ARHM    C123013   2.172   7.187  18.365
   24ARHM    H123014   2.242   7.273  18.375
   24ARHM    C523015   2.175   6.956  18.300
   24ARHM    H523016   2.092   6.979  18.231
   24ARHM    O523017   2.252   7.076  18.318
   24ARHM    C223018   2.110   7.151  18.497
   24ARHM    H223019   2.042   7.234  18.529
   24ARHM    O223020   2.208   7.124  18.598
   24ARHM    C323021   2.025   7.028  18.480
   24ARHM    H323022   1.949   7.050  18.401
   24ARHM    O323023   1.953   7.000  18.601
   24ARHM   HO323024   2.005   6.939  18.653
   24ARHM    C423025   2.113   6.914  18.433
   24ARHM    H423026   2.196   6.898  18.506
   24ARHM    O423027   2.040   6.792  18.422
   24ARHM   HO423028   2.099   6.717  18.438
   24ARHM    C623029   2.262   6.846  18.233
   24ARHM   H6123030   2.196   6.774  18.181
   24ARHM   H6223031   2.329   6.892  18.159
   24ARHM   H6323032   2.324   6.789  18.305
   25ARHM    C123033   2.269   7.238  18.651
   25ARHM    H123034   2.252   7.324  18.583
   25ARHM    C523035   2.453   7.128  18.756
   25ARHM    H523036   2.414   7.029  18.721
   25ARHM    O523037   2.412   7.229  18.663
   25ARHM    C223038   2.204   7.268  18.783
   25ARHM    H223039   2.093   7.263  18.773
   25ARHM    O223040   2.243   7.399  18.826
   25ARHM    C323041   2.245   7.163  18.882
   25ARHM    H323042   2.211   7.063  18.845
   25ARHM    O323043   2.186   7.194  19.008
   25ARHM    C423044   2.395   7.157  18.893
   25ARHM    H423045   2.435   7.256  18.927
   25ARHM    O423046   2.432   7.057  18.987
   25ARHM   HO423047   2.504   7.093  19.039
   25ARHM    C623048   2.607   7.116  18.757
   25ARHM   H6123049   2.645   7.105  18.654
   25ARHM   H6223050   2.653   7.206  18.803
   25ARHM   H6323051   2.637   7.027  18.816
   26BMANN   C123052   2.172   7.503  18.764
   26BMANN   H123053   2.076   7.467  18.722
   26BMANN   C523054   2.165   7.672  18.595
   26BMANN   H523055   2.073   7.625  18.554
   26BMANN   O523056   2.244   7.569  18.658
   26BMANN   C223057   2.141   7.603  18.872
   26BMANN   H223058   2.082   7.547  18.949
   26BMANN    N23059   2.264   7.657  18.930
   26BMANN   HN23060   2.328   7.695  18.863
   26BMANN    C23061   2.293   7.659  19.060
   26BMANN    O23062   2.224   7.604  19.144
   26BMANN   CT23063   2.413   7.741  19.102
   26BMANN  HT123064   2.488   7.744  19.020
   26BMANN  HT223065   2.462   7.707  19.196
   26BMANN  HT323066   2.376   7.844  19.119
   26BMANN   C323067   2.052   7.709  18.811
   26BMANN   H323068   1.960   7.661  18.770
   26BMANN   O323069   2.006   7.799  18.911
   26BMANN  HO323070   1.940   7.753  18.964
   26BMANN   C423071   2.125   7.778  18.698
   26BMANN   H423072   2.218   7.827  18.734
   26BMANN   O423073   2.044   7.878  18.638
   26BMANN  HO423074   2.050   7.959  18.692
   26BMANN   C623075   2.245   7.722  18.475
   26BMANN  H6123076   2.297   7.636  18.427
   26BMANN  H6223077   2.176   7.767  18.400
   26BMANN   O623078   2.343   7.821  18.504
   26BMANN  HO623079   2.300   7.891  18.554
   27BGLCN   C123080   2.134   7.089  19.084
   27BGLCN   H123081   2.197   6.998  19.080
   27BGLCN   C523082   1.946   6.955  19.128
   27BGLCN   H523083   2.016   6.868  19.130
   27BGLCN   O523084   2.002   7.056  19.043
   27BGLCN   C223085   2.130   7.148  19.223
   27BGLCN   H223086   2.060   7.235  19.220
   27BGLCN    N23087   2.261   7.197  19.266
   27BGLCN   HN23088   2.339   7.140  19.245
   27BGLCN    C23089   2.274   7.314  19.333
   27BGLCN    O23090   2.179   7.370  19.388
   27BGLCN   CT23091   2.411   7.378  19.338
   27BGLCN  HT123092   2.482   7.322  19.274
   27BGLCN  HT223093   2.450   7.381  19.442
   27BGLCN  HT323094   2.402   7.483  19.303
   27BGLCN   C323095   2.073   7.047  19.319
   27BGLCN   H323096   2.137   6.956  19.314
   27BGLCN   O323097   2.082   7.109  19.449
   27BGLCN   C423098   1.935   7.008  19.270
   27BGLCN   H423099   1.867   7.097  19.270
   27BGLCN   O423100   1.877   6.906  19.350
   27BGLCN  HO423101   1.931   6.827  19.344
   27BGLCN   C623102   1.817   6.905  19.067
   27BGLCN  H6123103   1.784   6.816  19.124
   27BGLCN  H6223104   1.734   6.978  19.080
   27BGLCN   O623105   1.835   6.870  18.928
   27BGLCN  HO623106   1.751   6.842  18.890
   28AGAL    C123107   2.072   7.026  19.561
   28AGAL    H123108   1.966   6.993  19.569
   28AGAL    C523109   2.297   6.943  19.549
   28AGAL    H523110   2.319   7.027  19.479
   28AGAL    O523111   2.156   6.910  19.542
   28AGAL    C223112   2.108   7.089  19.697
   28AGAL    H223113   2.091   7.004  19.766
   28AGAL    O223114   2.026   7.196  19.748
   28AGAL    C323115   2.255   7.124  19.705
   28AGAL    H323116   2.278   7.193  19.621
   28AGAL    O323117   2.295   7.193  19.823
   28AGAL   HO323118   2.332   7.278  19.798
   28AGAL    C423119   2.334   6.998  19.685
   28AGAL    H423120   2.442   7.024  19.685
   28AGAL    O423121   2.310   6.901  19.787
   28AGAL   HO423122   2.385   6.900  19.847
   28AGAL    C623123   2.382   6.825  19.502
   28AGAL   H6123124   2.365   6.813  19.393
   28AGAL   H6223125   2.491   6.841  19.516
   28AGAL    O623126   2.353   6.701  19.567
   28AGAL   HO623127   2.280   6.657  19.524
   29ARHM    C123128   2.000   7.176  19.886
   29ARHM    H123129   2.081   7.118  19.933
   29ARHM    C523130   1.766   7.180  19.847
   29ARHM    H523131   1.786   7.196  19.739
   29ARHM    O523132   1.875   7.109  19.906
   29ARHM    C223133   1.995   7.309  19.956
   29ARHM    H223134   2.090   7.359  19.931
   29ARHM    O223135   1.983   7.295  20.099
   29ARHM    C323136   1.883   7.390  19.900
   29ARHM    H323137   1.904   7.404  19.794
   29ARHM    O323138   1.879   7.520  19.960
   29ARHM   HO323139   1.786   7.545  19.954
   29ARHM    C423140   1.753   7.315  19.915
   29ARHM    H423141   1.743   7.299  20.022
   29ARHM    O423142   1.639   7.388  19.872
   29ARHM   HO423143   1.639   7.417  19.780
   29ARHM    C623144   1.650   7.081  19.860
   29ARHM   H6123145   1.684   6.985  19.814
   29ARHM   H6223146   1.621   7.062  19.965
   29ARHM   H6323147   1.562   7.117  19.803
   30ARHM    C123148   2.102   7.299  20.174
   30ARHM    H123149   2.155   7.395  20.153
   30ARHM    C523150   2.131   7.063  20.186
   30ARHM    H523151   2.037   7.055  20.128
   30ARHM    O523152   2.192   7.188  20.152
   30ARHM    C223153   2.061   7.297  20.319
   30ARHM    H223154   1.988   7.379  20.339
   30ARHM    O223155   2.179   7.312  20.396
   30ARHM    C323156   1.997   7.167  20.359
   30ARHM    H323157   1.911   7.150  20.288
   30ARHM    O323158   1.939   7.173  20.491
   30ARHM    C423159   2.096   7.056  20.333
   30ARHM    H423160   2.189   7.069  20.392
   30ARHM    O423161   2.047   6.928  20.370
   30ARHM   HO423162   1.988   6.892  20.302
   30ARHM    C623163   2.223   6.948  20.142
   30ARHM   H6123164   2.171   6.851  20.160
   30ARHM   H6223165   2.242   6.957  20.033
   30ARHM   H6323166   2.318   6.949  20.198
   31BMANN   C123167   2.214   7.443  20.426
   31BMANN   H123168   2.124   7.502  20.453
   31BMANN   C523169   2.333   7.638  20.357
   31BMANN   H523170   2.240   7.691  20.388
   31BMANN   O523171   2.290   7.505  20.322
   31BMANN   C223172   2.303   7.429  20.545
   31BMANN   H223173   2.239   7.389  20.628
   31BMANN    N23174   2.409   7.334  20.519
   31BMANN   HN23175   2.432   7.319  20.423
   31BMANN    C23176   2.467   7.262  20.615
   31BMANN    O23177   2.431   7.269  20.732
   31BMANN   CT23178   2.576   7.170  20.570
   31BMANN  HT123179   2.638   7.222  20.493
   31BMANN  HT223180   2.533   7.078  20.526
   31BMANN  HT323181   2.638   7.138  20.656
   31BMANN   C323182   2.347   7.568  20.586
   31BMANN   H323183   2.257   7.630  20.604
   31BMANN   O323184   2.414   7.564  20.709
   31BMANN  HO323185   2.396   7.477  20.749
   31BMANN   C423186   2.426   7.633  20.476
   31BMANN   H423187   2.516   7.573  20.448
   31BMANN   O423188   2.468   7.765  20.509
   31BMANN  HO423189   2.403   7.810  20.562
   31BMANN   C623190   2.393   7.716  20.242
   31BMANN  H6123191   2.405   7.823  20.269
   31BMANN  H6223192   2.495   7.680  20.224
   31BMANN   O623193   2.321   7.703  20.119
   31BMANN  HO623194   2.238   7.748  20.116
   32BGLCN   C123195   2.028   7.152  20.597
   32BGLCN   H123196   2.126   7.199  20.576
   32BGLCN   C523197   2.150   6.995  20.728
   32BGLCN   H523198   2.244   7.046  20.694
   32BGLCN   O523199   2.050   7.014  20.627
   32BGLCN   C223200   1.973   7.218  20.722
   32BGLCN   H223201   1.883   7.159  20.751
   32BGLCN    N23202   1.934   7.354  20.694
   32BGLCN   HN23203   1.987   7.397  20.624
   32BGLCN    C23204   1.827   7.417  20.747
   32BGLCN    O23205   1.751   7.364  20.826
   32BGLCN   CT23206   1.807   7.555  20.692
   32BGLCN  HT123207   1.867   7.559  20.599
   32BGLCN  HT223208   1.845   7.633  20.760
   32BGLCN  HT323209   1.701   7.577  20.669
   32BGLCN   C323210   2.079   7.208  20.828
   32BGLCN   H323211   2.173   7.248  20.784
   32BGLCN   O323212   2.049   7.284  20.946
   32BGLCN   C423213   2.102   7.061  20.856
   32BGLCN   H423214   2.004   7.016  20.887
   32BGLCN   O423215   2.195   7.039  20.960
   32BGLCN  HO423216   2.149   7.041  21.044
   32BGLCN   C623217   2.185   6.848  20.740
   32BGLCN  H6123218   2.274   6.832  20.805
   32BGLCN  H6223219   2.099   6.794  20.785
   32BGLCN   O623220   2.215   6.788  20.615
   32BGLCN  HO623221   2.265   6.852  20.560
   33AGAL    C123222   2.164   7.344  21.004
   33AGAL    H123223   2.251   7.276  20.997
   33AGAL    C523224   2.100   7.568  20.955
   33AGAL    H523225   2.006   7.520  20.920
   33AGAL    O523226   2.202   7.468  20.941
   33AGAL    C223227   2.137   7.374  21.151
   33AGAL    H223228   2.227   7.427  21.189
   33AGAL    O223229   2.131   7.251  21.224
   33AGAL    C323230   2.023   7.473  21.166
   33AGAL    H323231   1.933   7.438  21.108
   33AGAL    O323232   1.975   7.486  21.299
   33AGAL   HO323233   2.044   7.510  21.361
   33AGAL    C423234   2.068   7.602  21.099
   33AGAL    H423235   1.980   7.668  21.091
   33AGAL    O423236   2.173   7.673  21.165
   33AGAL   HO423237   2.224   7.617  21.223
   33AGAL    C623238   2.117   7.687  20.860
   33AGAL   H6123239   2.112   7.645  20.758
   33AGAL   H6223240   2.036   7.761  20.873
   33AGAL    O623241   2.236   7.763  20.869
   33AGAL   HO623242   2.313   7.720  20.830
   34ARHM    C123243   2.209   7.248  21.342
   34ARHM    H123244   2.185   7.338  21.402
   34ARHM    C523245   2.401   7.136  21.244
   34ARHM    H523246   2.354   7.140  21.143
   34ARHM    O523247   2.353   7.248  21.321
   34ARHM    C223248   2.167   7.122  21.417
   34ARHM    H223249   2.055   7.118  21.422
   34ARHM    O223250   2.217   7.117  21.553
   34ARHM    C323251   2.213   7.001  21.336
   34ARHM    H323252   2.166   7.005  21.235
   34ARHM    O323253   2.170   6.877  21.396
   34ARHM   HO323254   2.152   6.810  21.330
   34ARHM    C423255   2.363   7.007  21.316
   34ARHM    H423256   2.415   7.010  21.415
   34ARHM    O423257   2.409   6.892  21.243
   34ARHM   HO423258   2.414   6.819  21.307
   34ARHM    C623259   2.556   7.142  21.220
   34ARHM   H6123260   2.614   7.144  21.314
   34ARHM   H6223261   2.588   7.049  21.169
   34ARHM   H6323262   2.586   7.226  21.155
   35ARHM    C123263   2.186   7.222  21.642
   35ARHM    H123264   2.082   7.258  21.623
   35ARHM    C523265   2.415   7.291  21.656
   35ARHM    H523266   2.446   7.211  21.587
   35ARHM    O523267   2.279   7.332  21.631
   35ARHM    C223268   2.193   7.173  21.787
   35ARHM    H223269   2.122   7.089  21.802
   35ARHM    O223270   2.160   7.280  21.878
   35ARHM    C323271   2.332   7.123  21.818
   35ARHM    H323272   2.359   7.041  21.747
   35ARHM    O323273   2.339   7.064  21.948
   35ARHM   HO323274   2.277   7.107  22.009
   35ARHM    C423275   2.430   7.238  21.800
   35ARHM    H423276   2.403   7.321  21.869
   35ARHM    O423277   2.564   7.199  21.826
   35ARHM   HO423278   2.580   7.110  21.791
   35ARHM    C623279   2.507   7.410  21.622
   35ARHM   H6123280   2.506   7.434  21.513
   35ARHM   H6223281   2.475   7.499  21.678
   35ARHM   H6323282   2.612   7.383  21.646
   36BMANN   C123283   2.023   7.313  21.883
   36BMANN   H123284   1.961   7.227  21.849
   36BMANN   C523285   1.846   7.449  21.809
   36BMANN   H523286   1.792   7.355  21.779
   36BMANN   O523287   1.988   7.425  21.801
   36BMANN   C223288   1.992   7.345  22.029
   36BMANN   H223289   2.013   7.250  22.085
   36BMANN    N23290   2.072   7.453  22.085
   36BMANN   HN23291   2.093   7.528  22.024
   36BMANN    C23292   2.099   7.460  22.216
   36BMANN    O23293   2.077   7.369  22.294
   36BMANN   CT23294   2.161   7.585  22.270
   36BMANN  HT123295   2.114   7.673  22.223
   36BMANN  HT223296   2.270   7.586  22.251
   36BMANN  HT323297   2.148   7.589  22.380
   36BMANN   C323298   1.844   7.372  22.039
   36BMANN   H323299   1.793   7.283  21.999
   36BMANN   O323300   1.797   7.400  22.172
   36BMANN  HO323301   1.746   7.324  22.204
   36BMANN   C423302   1.805   7.484  21.949
   36BMANN   H423303   1.855   7.578  21.982
   36BMANN   O423304   1.666   7.504  21.958
   36BMANN  HO423305   1.654   7.530  22.051
   36BMANN   C623306   1.805   7.553  21.712
   36BMANN  H6123307   1.836   7.523  21.609
   36BMANN  H6223308   1.693   7.558  21.708
   36BMANN   O623309   1.860   7.679  21.750
   36BMANN  HO623310   1.793   7.730  21.798
    1ECLIP HB6S23311   4.164   0.384  11.779
    1ECLIP  OB623312   4.202   0.230  11.907
    1ECLIP  CB623313   4.249   0.319  11.805
    1ECLIP HB6R23314   4.330   0.384  11.845
    1ECLIP  CB523315   4.304   0.252  11.679
    1ECLIP  OB523316   4.199   0.166  11.631
    1ECLIP  HB523317   4.394   0.193  11.707
    1ECLIP  CB123318   4.238   0.093  11.515
    1ECLIP  HB123319   4.329   0.032  11.533
    1ECLIP  OA623320   4.138   0.005  11.472
    1ECLIP  CA623321   4.002   0.048  11.496
    1ECLIP HA6R23322   3.995   0.158  11.514
    1ECLIP HA6S23323   3.963  -0.009  11.582
    1ECLIP  CB423324   4.345   0.351  11.570
    1ECLIP  HB423325   4.260   0.419  11.541
    1ECLIP  OB423326   4.460   0.420  11.621
    1ECLIP   PB23327   4.447   0.580  11.666
    1ECLIP OPB423328   4.538   0.603  11.786
    1ECLIP OPB323329   4.300   0.597  11.702
    1ECLIP OPB223330   4.489   0.659  11.543
    1ECLIP  CB323331   4.384   0.273  11.448
    1ECLIP  OB323332   4.413   0.351  11.334
    1ECLIP  HB323333   4.468   0.203  11.472
    1ECLIP  C7123334   4.532   0.403  11.319
    1ECLIP  O7123335   4.634   0.339  11.351
    1ECLIP  C7223336   4.516   0.463  11.176
    1ECLIP H72R23337   4.492   0.393  11.096
    1ECLIP H72S23338   4.599   0.513  11.142
    1ECLIP  CB223339   4.268   0.187  11.403
    1ECLIP  HB223340   4.179   0.255  11.387
    1ECLIP  NB223341   4.302   0.114  11.281
    1ECLIP HNB223342   4.340   0.023  11.294
    1ECLIP  CA423343   3.947  -0.116  11.326
    1ECLIP  HA423344   4.057  -0.107  11.306
    1ECLIP  OA423345   3.923  -0.214  11.428
    1ECLIP HOA423346   3.970  -0.189  11.507
    1ECLIP  CA523347   3.917   0.019  11.376
    1ECLIP  HA523348   3.809   0.031  11.396
    1ECLIP  OA523349   3.957   0.112  11.275
    1ECLIP  CA123350   3.884   0.100  11.152
    1ECLIP  HA123351   3.940   0.166  11.081
    1ECLIP  OA123352   3.748   0.134  11.154
    1ECLIP OPA223353   3.637   0.250  11.336
    1ECLIP OPA323354   3.842   0.361  11.226
    1ECLIP OPA423355   3.628   0.343  11.097
    1ECLIP   PA23356   3.712   0.284  11.208
    1ECLIP  CA323357   3.873  -0.140  11.198
    1ECLIP  HA323358   3.764  -0.155  11.212
    1ECLIP  OA323359   3.942  -0.265  11.189
    1ECLIP  C3123360   4.068  -0.265  11.148
    1ECLIP  O3123361   4.108  -0.215  11.046
    1ECLIP  C3223362   4.145  -0.356  11.236
    1ECLIP H32R23363   4.165  -0.456  11.208
    1ECLIP H32S23364   4.076  -0.414  11.301
    1ECLIP  CA223365   3.909  -0.031  11.094
    1ECLIP  HA223366   4.016  -0.028  11.072
    1ECLIP  NA223367   3.834  -0.037  10.968
    1ECLIP HNA223368   3.794  -0.126  10.953
    1ECLIP  C7323369   4.443   0.596  11.170
    1ECLIP H73R23370   4.472   0.654  11.263
    1ECLIP  O7323371   4.311   0.551  11.164
    1ECLIP  C8123372   4.222   0.617  11.233
    1ECLIP  O8123373   4.244   0.723  11.290
    1ECLIP  C8223374   4.087   0.577  11.171
    1ECLIP H82R23375   4.007   0.632  11.223
    1ECLIP H82S23376   4.072   0.469  11.192
    1ECLIP  C8323377   4.078   0.598  11.017
    1ECLIP H83R23378   4.128   0.513  10.966
    1ECLIP H83S23379   4.133   0.691  10.990
    1ECLIP  C8423380   3.934   0.602  10.965
    1ECLIP H84R23381   3.882   0.696  10.996
    1ECLIP H84S23382   3.881   0.515  11.013
    1ECLIP  C8523383   3.925   0.582  10.813
    1ECLIP H85R23384   3.997   0.500  10.791
    1ECLIP H85S23385   3.961   0.672  10.760
    1ECLIP  C8623386   3.787   0.532  10.765
    1ECLIP H86R23387   3.721   0.617  10.736
    1ECLIP H86S23388   3.735   0.480  10.849
    1ECLIP  C8723389   3.798   0.428  10.652
    1ECLIP H87R23390   3.696   0.401  10.616
    1ECLIP H87S23391   3.841   0.334  10.694
    1ECLIP  C8823392   3.889   0.473  10.538
    1ECLIP H88R23393   3.995   0.463  10.571
    1ECLIP H88S23394   3.874   0.582  10.524
    1ECLIP  C8923395   3.869   0.394  10.408
    1ECLIP H89R23396   3.821   0.295  10.426
    1ECLIP H89S23397   3.968   0.370  10.362
    1ECLIP C81023398   3.791   0.477  10.306
    1ECLIPH810R23399   3.813   0.583  10.329
    1ECLIPH810S23400   3.682   0.459  10.323
    1ECLIP C81123401   3.828   0.447  10.160
    1ECLIPH811R23402   3.747   0.480  10.090
    1ECLIPH811S23403   3.840   0.337  10.152
    1ECLIP C81223404   3.959   0.509  10.110
    1ECLIPH812R23405   3.977   0.467  10.008
    1ECLIPH812S23406   4.042   0.478  10.177
    1ECLIP C81323407   3.962   0.662  10.100
    1ECLIPH813R23408   3.883   0.693  10.029
    1ECLIPH813S23409   3.941   0.709  10.199
    1ECLIP C81423410   4.097   0.714  10.051
    1ECLIPH814R23411   4.131   0.659   9.962
    1ECLIPH814S23412   4.174   0.701  10.130
    1ECLIPH814T23413   4.090   0.821  10.026
    1ECLIP  C7423414   4.468   0.688  11.046
    1ECLIP H74R23415   4.565   0.735  11.026
    1ECLIP H74S23416   4.404   0.777  11.068
    1ECLIP  C7523417   4.428   0.626  10.912
    1ECLIP H75R23418   4.384   0.710  10.853
    1ECLIP H75S23419   4.349   0.551  10.932
    1ECLIP  C7623420   4.539   0.559  10.829
    1ECLIP H76R23421   4.564   0.460  10.874
    1ECLIP H76S23422   4.631   0.620  10.827
    1ECLIP  C7723423   4.504   0.541  10.681
    1ECLIP H77R23424   4.498   0.642  10.635
    1ECLIP H77S23425   4.407   0.493  10.667
    1ECLIP  C7823426   4.607   0.447  10.617
    1ECLIP H78R23427   4.704   0.486  10.644
    1ECLIP H78S23428   4.603   0.349  10.669
    1ECLIP  C7923429   4.595   0.416  10.467
    1ECLIP H79R23430   4.540   0.321  10.454
    1ECLIP H79S23431   4.691   0.396  10.416
    1ECLIP C71023432   4.533   0.528  10.389
    1ECLIPH710R23433   4.432   0.555  10.426
    1ECLIPH710S23434   4.598   0.617  10.387
    1ECLIP C71123435   4.518   0.486  10.250
    1ECLIPH711R23436   4.621   0.461  10.215
    1ECLIPH711S23437   4.452   0.397  10.234
    1ECLIP C71223438   4.446   0.602  10.190
    1ECLIPH712R23439   4.513   0.691  10.169
    1ECLIPH712S23440   4.353   0.634  10.238
    1ECLIP C71323441   4.408   0.546  10.067
    1ECLIPH713R23442   4.334   0.466  10.042
    1ECLIPH713S23443   4.350   0.638  10.038
    1ECLIP C71423444   4.551   0.518  10.014
    1ECLIPH714R23445   4.594   0.606   9.965
    1ECLIPH714S23446   4.589   0.417   9.991
    1ECLIPH714T23447   4.542   0.489   9.923
    1ECLIP  C5123448   4.279   0.165  11.159
    1ECLIP  O5123449   4.209   0.264  11.144
    1ECLIP  C5223450   4.351   0.102  11.042
    1ECLIP H52R23451   4.452   0.148  11.029
    1ECLIP H52S23452   4.363  -0.006  11.061
    1ECLIP  C5323453   4.270   0.122  10.912
    1ECLIP H53R23454   4.161   0.119  10.935
    1ECLIP  O5323455   4.312   0.019  10.821
    1ECLIP  C6123456   4.225  -0.076  10.790
    1ECLIP  O6123457   4.106  -0.076  10.813
    1ECLIP  C6223458   4.292  -0.178  10.696
    1ECLIP H62R23459   4.348  -0.250  10.758
    1ECLIP H62S23460   4.366  -0.121  10.637
    1ECLIP  C6323461   4.188  -0.251  10.607
    1ECLIP H63R23462   4.118  -0.176  10.564
    1ECLIP H63S23463   4.127  -0.322  10.668
    1ECLIP  C6423464   4.244  -0.330  10.488
    1ECLIP H64R23465   4.159  -0.380  10.439
    1ECLIP H64S23466   4.315  -0.405  10.528
    1ECLIP  C6523467   4.314  -0.236  10.389
    1ECLIP H65R23468   4.396  -0.192  10.450
    1ECLIP H65S23469   4.245  -0.155  10.358
    1ECLIP  C6623470   4.380  -0.296  10.262
    1ECLIP H66R23471   4.452  -0.375  10.292
    1ECLIP H66S23472   4.436  -0.210  10.218
    1ECLIP  C6723473   4.294  -0.346  10.145
    1ECLIP H67R23474   4.213  -0.408  10.170
    1ECLIP H67S23475   4.352  -0.402  10.070
    1ECLIP  C6823476   4.199  -0.247  10.084
    1ECLIP H68R23477   4.264  -0.166  10.050
    1ECLIP H68S23478   4.128  -0.214  10.164
    1ECLIP  C6923479   4.128  -0.311   9.964
    1ECLIP H69R23480   4.109  -0.420   9.974
    1ECLIP H69S23481   4.200  -0.302   9.881
    1ECLIP C61023482   3.997  -0.240   9.932
    1ECLIPH610R23483   4.010  -0.130   9.939
    1ECLIPH610S23484   3.922  -0.271  10.006
    1ECLIP C61123485   3.946  -0.279   9.795
    1ECLIPH611R23486   3.942  -0.388   9.797
    1ECLIPH611S23487   3.842  -0.245   9.780
    1ECLIP C61223488   4.034  -0.228   9.682
    1ECLIPH612R23489   4.021  -0.119   9.673
    1ECLIPH612S23490   4.141  -0.251   9.699
    1ECLIPH612T23491   4.007  -0.267   9.584
    1ECLIP  C5423492   4.307   0.261  10.853
    1ECLIP H54R23493   4.414   0.256  10.824
    1ECLIP H54S23494   4.297   0.336  10.934
    1ECLIP  C5523495   4.224   0.309  10.733
    1ECLIP H55R23496   4.239   0.418  10.719
    1ECLIP H55S23497   4.116   0.296  10.757
    1ECLIP  C5623498   4.270   0.237  10.605
    1ECLIP H56R23499   4.262   0.128  10.622
    1ECLIP H56S23500   4.377   0.259  10.587
    1ECLIP  C5723501   4.192   0.262  10.477
    1ECLIP H57R23502   4.184   0.371  10.454
    1ECLIP H57S23503   4.088   0.225  10.491
    1ECLIP  C5823504   4.258   0.185  10.361
    1ECLIP H58R23505   4.367   0.200  10.358
    1ECLIP H58S23506   4.244   0.076  10.382
    1ECLIP  C5923507   4.199   0.224  10.224
    1ECLIP H59R23508   4.210   0.334  10.208
    1ECLIP H59S23509   4.091   0.203  10.232
    1ECLIP C51023510   4.268   0.160  10.101
    1ECLIPH510R23511   4.283   0.051  10.118
    1ECLIPH510S23512   4.369   0.205  10.088
    1ECLIP C51123513   4.189   0.182   9.969
    1ECLIPH511R23514   4.107   0.107   9.967
    1ECLIPH511S23515   4.145   0.282   9.963
    1ECLIP C51223516   4.266   0.169   9.839
    1ECLIPH512R23517   4.225   0.218   9.750
    1ECLIPH512S23518   4.374   0.200   9.849
    1ECLIP C51323519   4.241   0.037   9.779
    1ECLIPH513R23520   4.156  -0.024   9.756
    1ECLIPH513S23521   4.235  -0.020   9.877
    1ECLIP C51423522   4.337   0.032   9.659
    1ECLIPH514R23523   4.439   0.075   9.666
    1ECLIPH514S23524   4.365  -0.066   9.655
    1ECLIPH514T23525   4.298   0.031   9.557
    1ECLIP  C3323526   4.291  -0.339  11.206
    1ECLIP H33R23527   4.346  -0.433  11.236
    1ECLIP  O3323528   4.305  -0.240  11.301
    1ECLIP HO3323529   4.261  -0.277  11.379
    1ECLIP  C3423530   4.350  -0.302  11.065
    1ECLIP H34R23531   4.309  -0.212  11.019
    1ECLIP H34S23532   4.339  -0.380  10.986
    1ECLIP  C3523533   4.494  -0.261  11.081
    1ECLIP H35R23534   4.542  -0.352  11.117
    1ECLIP H35S23535   4.492  -0.187  11.164
    1ECLIP  C3623536   4.557  -0.202  10.956
    1ECLIP H36R23537   4.473  -0.153  10.903
    1ECLIP H36S23538   4.597  -0.281  10.888
    1ECLIP  C3723539   4.661  -0.093  10.989
    1ECLIP H37R23540   4.758  -0.144  10.999
    1ECLIP H37S23541   4.628  -0.047  11.084
    1ECLIP  C3823542   4.678   0.014  10.880
    1ECLIP H38R23543   4.593   0.086  10.878
    1ECLIP H38S23544   4.769   0.073  10.902
    1ECLIP  C3923545   4.688  -0.047  10.740
    1ECLIP H39R23546   4.598  -0.111  10.718
    1ECLIP H39S23547   4.779  -0.110  10.734
    1ECLIP C31023548   4.697   0.053  10.624
    1ECLIPH310R23549   4.798   0.100  10.632
    1ECLIPH310S23550   4.620   0.132  10.632
    1ECLIP C31123551   4.670  -0.015  10.488
    1ECLIPH311R23552   4.709  -0.119  10.489
    1ECLIPH311S23553   4.559  -0.022  10.473
    1ECLIP C31223554   4.724   0.062  10.367
    1ECLIPH312R23555   4.716   0.171  10.385
    1ECLIPH312S23556   4.831   0.035  10.354
    1ECLIP C31323557   4.648   0.027  10.237
    1ECLIPH313R23558   4.679  -0.077  10.211
    1ECLIPH313S23559   4.538   0.026  10.254
    1ECLIP C31423560   4.680   0.119  10.120
    1ECLIPH314R23561   4.789   0.115  10.098
    1ECLIPH314S23562   4.626   0.089  10.028
    1ECLIPH314T23563   4.652   0.224  10.142
    1ECLIP  C1123564   3.821   0.046  10.864
    1ECLIP  O1123565   3.895   0.140  10.840
    1ECLIP  C1223566   3.708   0.013  10.770
    1ECLIP H12R23567   3.619   0.074  10.795
    1ECLIP H12S23568   3.673  -0.091  10.781
    1ECLIP  C1323569   3.748   0.048  10.627
    1ECLIP H13R23570   3.804   0.139  10.606
    1ECLIP  O1323571   3.624   0.041  10.557
    1ECLIP HO1323572   3.628   0.072  10.466
    1ECLIP  C1423573   3.856  -0.046  10.574
    1ECLIP H14R23574   3.811  -0.116  10.632
    1ECLIP H14S23575   3.956  -0.067  10.611
    1ECLIP  C1523576   3.844  -0.079  10.435
    1ECLIP H15R23577   3.734  -0.092  10.428
    1ECLIP H15S23578   3.901  -0.167  10.397
    1ECLIP  C1623579   3.925  -0.002  10.344
    1ECLIP H16R23580   4.030  -0.040  10.359
    1ECLIP H16S23581   3.906   0.092  10.395
    1ECLIP  C1723582   3.876  -0.020  10.201
    1ECLIP H17R23583   3.875  -0.124  10.166
    1ECLIP H17S23584   3.951   0.025  10.134
    1ECLIP  C1823585   3.735   0.035  10.182
    1ECLIP H18R23586   3.663  -0.022  10.245
    1ECLIP H18S23587   3.737   0.141  10.216
    1ECLIP  C1923588   3.687   0.030  10.037
    1ECLIP H19R23589   3.581   0.062  10.030
    1ECLIP H19S23590   3.694  -0.069   9.987
    1ECLIP C11023591   3.777   0.110   9.948
    1ECLIPH110R23592   3.784   0.216   9.982
    1ECLIPH110S23593   3.878   0.064   9.949
    1ECLIP C11123594   3.721   0.098   9.808
    1ECLIPH111R23595   3.697  -0.004   9.779
    1ECLIPH111S23596   3.627   0.159   9.809
    1ECLIP C11223597   3.824   0.137   9.701
    1ECLIPH112R23598   3.835   0.226   9.761
    1ECLIPH112S23599   3.931   0.120   9.712
    1ECLIP C11323600   3.758   0.106   9.559
    1ECLIPH113R23601   3.782   0.001   9.542
    1ECLIPH113S23602   3.652   0.129   9.567
    1ECLIP C11423603   3.799   0.139   9.413
    1ECLIPH114R23604   3.742   0.234   9.396
    1ECLIPH114S23605   3.904   0.167   9.433
    1ECLIPH114T23606   3.745   0.181   9.325
    2AKDO    C123607   4.425   0.177  11.957
    2AKDO   O1123608   4.529   0.239  11.989
    2AKDO   O1223609   4.422   0.066  11.897
    2AKDO    C223610   4.288   0.227  12.020
    2AKDO    C623611   4.188   0.420  12.121
    2AKDO    H623612   4.126   0.420  12.029
    2AKDO    O623613   4.309   0.356  12.080
    2AKDO    C323614   4.211   0.147  12.127
    2AKDO   H3123615   4.274   0.131  12.218
    2AKDO   H3223616   4.184   0.047  12.083
    2AKDO    C423617   4.087   0.212  12.171
    2AKDO    H423618   4.023   0.232  12.083
    2AKDO    O423619   4.022   0.139  12.271
    2AKDO    C523620   4.115   0.343  12.232
    2AKDO    H523621   4.015   0.393  12.245
    2AKDO    O523622   4.180   0.321  12.362
    2AKDO    C723623   4.212   0.566  12.148
    2AKDO    H723624   4.274   0.561  12.236
    2AKDO    O723625   4.089   0.636  12.173
    2AKDO   HO723626   4.057   0.658  12.085
    2AKDO    C823627   4.289   0.635  12.038
    2AKDO   H8123628   4.383   0.575  12.021
    2AKDO   H8223629   4.230   0.628  11.944
    2AKDO    O823630   4.325   0.772  12.072
    2AKDO   HO823631   4.409   0.783  12.024
    3AKDO    C123632   3.847   0.077  12.113
    3AKDO   O1123633   3.892   0.072  11.996
    3AKDO   O1223634   3.739   0.127  12.153
    3AKDO    C223635   3.940   0.038  12.230
    3AKDO    C623636   4.113  -0.116  12.310
    3AKDO    H623637   4.194  -0.041  12.324
    3AKDO    O623638   4.018  -0.084  12.206
    3AKDO    C323639   3.857   0.029  12.361
    3AKDO   H3123640   3.768  -0.040  12.344
    3AKDO   H3223641   3.803   0.115  12.390
    3AKDO    C423642   3.959   0.001  12.477
    3AKDO    H423643   4.042   0.072  12.487
    3AKDO    O423644   3.900  -0.026  12.608
    3AKDO   HO423645   3.947   0.012  12.683
    3AKDO    C523646   4.032  -0.118  12.437
    3AKDO    H523647   4.088  -0.157  12.524
    3AKDO    O523648   3.917  -0.181  12.410
    3AKDO   HO523649   3.914  -0.253  12.342
    3AKDO    C723650   4.174  -0.257  12.274
    3AKDO    H723651   4.103  -0.338  12.243
    3AKDO    O723652   4.276  -0.305  12.364
    3AKDO   HO723653   4.316  -0.389  12.337
    3AKDO    C823654   4.246  -0.253  12.161
    3AKDO   H8123655   4.193  -0.197  12.078
    3AKDO   H8223656   4.329  -0.198  12.193
    3AKDO    O823657   4.306  -0.381  12.131
    3AKDO   HO823658   4.260  -0.399  12.051
    4AHEP    C123659   4.154   0.416  12.463
    4AHEP    H123660   4.212   0.501  12.427
    4AHEP    C523661   3.931   0.376  12.536
    4AHEP    H523662   3.941   0.276  12.488
    4AHEP    O523663   4.020   0.465  12.468
    4AHEP    C223664   4.203   0.397  12.608
    4AHEP    H223665   4.306   0.357  12.604
    4AHEP    O223666   4.216   0.524  12.672
    4AHEP   HO223667   4.292   0.526  12.731
    4AHEP    C323668   4.115   0.303  12.687
    4AHEP    H323669   4.120   0.199  12.647
    4AHEP    O323670   4.157   0.306  12.826
    4AHEP    C423671   3.974   0.358  12.682
    4AHEP    H423672   3.966   0.456  12.733
    4AHEP    O423673   3.892   0.259  12.743
    4AHEP    P423674   3.812   0.287  12.884
    4AHEP  OP4223675   3.807   0.148  12.945
    4AHEP  OP4323676   3.675   0.338  12.841
    4AHEP  OP4423677   3.894   0.385  12.968
    4AHEP    C623678   3.787   0.429  12.517
    4AHEP    H623679   3.723   0.347  12.553
    4AHEP    O623680   3.749   0.539  12.602
    4AHEP   HO623681   3.679   0.505  12.661
    4AHEP    C723682   3.751   0.464  12.371
    4AHEP   H7123683   3.640   0.473  12.356
    4AHEP   H7223684   3.788   0.385  12.302
    4AHEP    O723685   3.810   0.587  12.331
    4AHEP   HO723686   3.754   0.654  12.371
    5AHEP    C123687   4.195   0.185  12.885
    5AHEP    H123688   4.135   0.107  12.838
    5AHEP    C523689   4.414   0.265  12.932
    5AHEP    H523690   4.376   0.363  12.896
    5AHEP    O523691   4.336   0.162  12.867
    5AHEP    C223692   4.164   0.177  13.035
    5AHEP    H223693   4.055   0.198  13.046
    5AHEP    O223694   4.187   0.046  13.091
    5AHEP   HO223695   4.104  -0.002  13.090
    5AHEP    C323696   4.242   0.283  13.111
    5AHEP    H323697   4.213   0.382  13.069
    5AHEP    O323698   4.221   0.280  13.254
    5AHEP    C423699   4.389   0.260  13.082
    5AHEP    H423700   4.420   0.160  13.119
    5AHEP    O423701   4.465   0.366  13.141
    5AHEP    P423702   4.571   0.334  13.265
    5AHEP  OP4223703   4.613   0.468  13.324
    5AHEP  OP4323704   4.696   0.266  13.207
    5AHEP  OP4423705   4.495   0.245  13.363
    5AHEP    C623706   4.563   0.259  12.892
    5AHEP    H623707   4.619   0.336  12.944
    5AHEP    O623708   4.631   0.144  12.937
    5AHEP   HO623709   4.606   0.068  12.884
    5AHEP    C723710   4.585   0.280  12.746
    5AHEP   H7123711   4.679   0.335  12.729
    5AHEP   H7223712   4.505   0.342  12.700
    5AHEP    O723713   4.607   0.156  12.684
    6AHEP    C123714   4.492   0.125  12.622
    6AHEP    H123715   4.410   0.197  12.639
    6AHEP    C523716   4.625   0.055  12.447
    6AHEP    H523717   4.714   0.082  12.506
    6AHEP    O523718   4.512   0.132  12.482
    6AHEP    C223719   4.461  -0.003  12.673
    6AHEP    H223720   4.446  -0.019  12.782
    6AHEP    O223721   4.326   0.001  12.641
    6AHEP   HO223722   4.297  -0.085  12.677
    6AHEP    C323723   4.574  -0.100  12.642
    6AHEP    H323724   4.671  -0.077  12.686
    6AHEP    O323725   4.541  -0.219  12.723
    6AHEP   HO323726   4.604  -0.294  12.730
    6AHEP    C423727   4.598  -0.088  12.483
    6AHEP    H423728   4.515  -0.126  12.415
    6AHEP    O423729   4.724  -0.147  12.446
    6AHEP   HO423730   4.809  -0.118  12.483
    6AHEP    C623731   4.677   0.090  12.312
    6AHEP    H623732   4.775   0.044  12.293
    6AHEP    O623733   4.596   0.032  12.228
    6AHEP   HO623734   4.552   0.091  12.164
    6AHEP    C723735   4.692   0.225  12.259
    6AHEP   H7123736   4.727   0.215  12.151
    6AHEP   H7223737   4.770   0.260  12.328
    6AHEP    O723738   4.574   0.303  12.268
    6AHEP   HO723739   4.556   0.308  12.361
    7AGLC    C123740   4.122   0.369  13.303
    7AGLC    H123741   4.126   0.467  13.252
    7AGLC    C523742   3.976   0.185  13.344
    7AGLC    H523743   4.058   0.116  13.315
    7AGLC    O523744   3.995   0.311  13.280
    7AGLC    C223745   4.128   0.393  13.454
    7AGLC    H223746   4.036   0.448  13.482
    7AGLC    O223747   4.233   0.480  13.493
    7AGLC   HO223748   4.315   0.427  13.494
    7AGLC    C323749   4.119   0.265  13.533
    7AGLC    H323750   4.200   0.199  13.497
    7AGLC    O323751   4.135   0.283  13.676
    7AGLC    C423752   3.984   0.204  13.496
    7AGLC    H423753   3.901   0.272  13.530
    7AGLC    O423754   3.976   0.075  13.559
    7AGLC   HO423755   3.886   0.073  13.601
    7AGLC    C623756   3.850   0.133  13.278
    7AGLC   H6123757   3.863   0.128  13.168
    7AGLC   H6223758   3.824   0.029  13.293
    7AGLC    O623759   3.740   0.211  13.318
    7AGLC   HO623760   3.683   0.165  13.379
    8AGLC    C123761   4.250   0.220  13.729
    8AGLC    H123762   4.256   0.117  13.687
    8AGLC    C523763   4.399   0.410  13.757
    8AGLC    H523764   4.316   0.476  13.724
    8AGLC    O523765   4.375   0.282  13.694
    8AGLC    C223766   4.249   0.206  13.880
    8AGLC    H223767   4.335   0.141  13.907
    8AGLC    O223768   4.137   0.143  13.936
    8AGLC    C323769   4.259   0.337  13.949
    8AGLC    H323770   4.175   0.400  13.908
    8AGLC    O323771   4.236   0.316  14.090
    8AGLC    C423772   4.392   0.395  13.909
    8AGLC    H423773   4.471   0.322  13.940
    8AGLC    O423774   4.414   0.520  13.973
    8AGLC   HO423775   4.330   0.566  13.977
    8AGLC    C623776   4.528   0.480  13.710
    8AGLC   H6123777   4.538   0.477  13.599
    8AGLC   H6223778   4.524   0.587  13.739
    8AGLC    O623779   4.648   0.430  13.771
    8AGLC   HO623780   4.657   0.473  13.856
    9AGAL    C123781   4.114   0.022  13.881
    9AGAL    H123782   4.110   0.022  13.770
    9AGAL    C523783   4.185  -0.113  14.057
    9AGAL    H523784   4.193  -0.014  14.107
    9AGAL    O523785   4.198  -0.087  13.918
    9AGAL    C223786   3.979  -0.005  13.922
    9AGAL    H223787   3.992  -0.102  13.866
    9AGAL    O223788   3.883   0.083  13.856
    9AGAL    C323789   3.958  -0.030  14.072
    9AGAL    H323790   3.988   0.057  14.132
    9AGAL    O323791   3.826  -0.047  14.122
    9AGAL   HO323792   3.758  -0.016  14.061
    9AGAL    C423793   4.041  -0.151  14.100
    9AGAL    H423794   4.036  -0.175  14.209
    9AGAL    O423795   3.990  -0.259  14.023
    9AGAL   HO423796   3.999  -0.339  14.078
    9AGAL    C623797   4.309  -0.182  14.113
    9AGAL   H6123798   4.401  -0.125  14.099
    9AGAL   H6223799   4.273  -0.167  14.216
    9AGAL    O623800   4.352  -0.320  14.090
    9AGAL   HO623801   4.362  -0.345  13.997
   10AGAL    C123802   3.757   0.131  13.909
   10AGAL    H123803   3.676   0.053  13.918
   10AGAL    C523804   3.857   0.305  14.041
   10AGAL    H523805   3.953   0.264  14.002
   10AGAL    O523806   3.765   0.195  14.039
   10AGAL    C223807   3.703   0.234  13.811
   10AGAL    H223808   3.606   0.271  13.849
   10AGAL    O223809   3.674   0.176  13.683
   10AGAL   HO223810   3.582   0.201  13.662
   10AGAL    C323811   3.802   0.350  13.806
   10AGAL    H323812   3.902   0.307  13.781
   10AGAL    O323813   3.775   0.451  13.710
   10AGAL   HO323814   3.834   0.436  13.636
   10AGAL    C423815   3.811   0.411  13.943
   10AGAL    H423816   3.888   0.490  13.941
   10AGAL    O423817   3.687   0.469  13.981
   10AGAL   HO423818   3.627   0.396  14.003
   10AGAL    C623819   3.896   0.359  14.180
   10AGAL   H6123820   3.923   0.276  14.246
   10AGAL   H6223821   3.988   0.420  14.165
   10AGAL    O623822   3.799   0.440  14.248
   10AGAL   HO623823   3.768   0.394  14.327
   11BGLC    C123824   4.340   0.299  14.184
   11BGLC    H123825   4.395   0.394  14.197
   11BGLC    C523826   4.534   0.169  14.248
   11BGLC    H523827   4.600   0.257  14.268
   11BGLC    O523828   4.429   0.189  14.150
   11BGLC    C223829   4.269   0.265  14.315
   11BGLC    H223830   4.207   0.171  14.301
   11BGLC    O223831   4.177   0.364  14.355
   11BGLC   HO223832   4.093   0.321  14.363
   11BGLC    C323833   4.364   0.249  14.428
   11BGLC    H323834   4.423   0.337  14.457
   11BGLC    O323835   4.296   0.185  14.541
   11BGLC    C423836   4.456   0.147  14.380
   11BGLC    H423837   4.372   0.076  14.355
   11BGLC    O423838   4.543   0.118  14.490
   11BGLC   HO423839   4.506   0.048  14.546
   11BGLC    C623840   4.630   0.061  14.190
   11BGLC   H6123841   4.691   0.007  14.266
   11BGLC   H6223842   4.575  -0.015  14.131
   11BGLC    O623843   4.725   0.114  14.098
   11BGLC   HO623844   4.814   0.113  14.134
   12BGLCN   C123845   4.312   0.240  14.669
   12BGLCN   H123846   4.248   0.330  14.675
   12BGLCN   C523847   4.462   0.341  14.824
   12BGLCN   H523848   4.397   0.432  14.831
   12BGLCN   O523849   4.446   0.278  14.696
   12BGLCN   C223850   4.271   0.138  14.776
   12BGLCN   H223851   4.347   0.056  14.767
   12BGLCN    N23852   4.134   0.095  14.761
   12BGLCN   HN23853   4.071   0.166  14.738
   12BGLCN    C23854   4.095  -0.029  14.748
   12BGLCN    O23855   4.166  -0.119  14.732
   12BGLCN   CT23856   3.959  -0.068  14.717
   12BGLCN  HT123857   3.918  -0.118  14.801
   12BGLCN  HT223858   3.965  -0.150  14.639
   12BGLCN  HT323859   3.900   0.014  14.677
   12BGLCN   C323860   4.281   0.198  14.914
   12BGLCN   H323861   4.209   0.283  14.916
   12BGLCN   O323862   4.241   0.109  15.020
   12BGLCN   C423863   4.423   0.242  14.932
   12BGLCN   H423864   4.491   0.154  14.925
   12BGLCN   O423865   4.438   0.295  15.062
   12BGLCN  HO423866   4.396   0.382  15.069
   12BGLCN   C623867   4.606   0.387  14.831
   12BGLCN  H6123868   4.628   0.435  14.929
   12BGLCN  H6223869   4.672   0.298  14.822
   12BGLCN   O623870   4.639   0.478  14.726
   12BGLCN  HO623871   4.611   0.567  14.750
   13AGAL    C123872   4.154   0.154  15.124
   13AGAL    H123873   4.195   0.253  15.156
   13AGAL    C523874   3.948   0.037  15.065
   13AGAL    H523875   4.001  -0.012  14.986
   13AGAL    O523876   4.015   0.165  15.082
   13AGAL    C223877   4.146   0.073  15.256
   13AGAL    H223878   4.077   0.126  15.324
   13AGAL    O223879   4.276   0.074  15.313
   13AGAL    C323880   4.077  -0.061  15.246
   13AGAL    H323881   4.119  -0.124  15.184
   13AGAL    O323882   4.081  -0.142  15.363
   13AGAL   HO323883   4.112  -0.233  15.355
   13AGAL    C423884   3.940  -0.043  15.197
   13AGAL    H423885   3.903  -0.146  15.170
   13AGAL    O423886   3.855   0.006  15.297
   13AGAL   HO423887   3.904   0.075  15.342
   13AGAL    C623888   3.818   0.041  14.992
   13AGAL   H6123889   3.829   0.097  14.897
   13AGAL   H6223890   3.784  -0.064  14.970
   13AGAL    O623891   3.724   0.106  15.071
   13AGAL   HO623892   3.692   0.039  15.134
   14ARHM    C123893   4.285   0.144  15.435
   14ARHM    H123894   4.212   0.225  15.438
   14ARHM    C523895   4.524   0.112  15.431
   14ARHM    H523896   4.520   0.057  15.339
   14ARHM    O523897   4.416   0.201  15.449
   14ARHM    C223898   4.248   0.041  15.533
   14ARHM    H223899   4.142   0.004  15.527
   14ARHM    O223900   4.271   0.078  15.671
   14ARHM    C323901   4.341  -0.063  15.506
   14ARHM    H323902   4.363  -0.102  15.409
   14ARHM    O323903   4.265  -0.179  15.566
   14ARHM   HO323904   4.302  -0.196  15.658
   14ARHM    C423905   4.502   0.008  15.526
   14ARHM    H423906   4.510   0.065  15.624
   14ARHM    O423907   4.620  -0.080  15.516
   14ARHM   HO423908   4.650  -0.117  15.605
   14ARHM    C623909   4.647   0.201  15.463
   14ARHM   H6123910   4.650   0.286  15.393
   14ARHM   H6223911   4.664   0.213  15.572
   14ARHM   H6323912   4.749   0.179  15.440
   15ARHM    C123913   4.192   0.188  15.710
   15ARHM    H123914   4.103   0.195  15.642
   15ARHM    C523915   4.368   0.331  15.800
   15ARHM    H523916   4.450   0.258  15.782
   15ARHM    O523917   4.262   0.315  15.703
   15ARHM    C223918   4.134   0.171  15.850
   15ARHM    H223919   4.085   0.071  15.857
   15ARHM    O223920   4.033   0.274  15.863
   15ARHM    C323921   4.245   0.176  15.952
   15ARHM    H323922   4.323   0.101  15.923
   15ARHM    O323923   4.187   0.137  16.079
   15ARHM    C423924   4.309   0.314  15.939
   15ARHM    H423925   4.230   0.391  15.952
   15ARHM    O423926   4.411   0.340  16.035
   15ARHM   HO423927   4.428   0.436  16.034
   15ARHM    C623928   4.428   0.472  15.782
   15ARHM   H6123929   4.521   0.485  15.841
   15ARHM   H6223930   4.447   0.489  15.674
   15ARHM   H6323931   4.357   0.550  15.817
   16BMANN   C123932   3.961   0.289  15.984
   16BMANN   H123933   4.030   0.321  16.066
   16BMANN   C523934   3.825   0.188  16.157
   16BMANN   H523935   3.903   0.221  16.232
   16BMANN   O523936   3.896   0.173  16.026
   16BMANN   C223937   3.848   0.387  15.967
   16BMANN   H223938   3.896   0.476  15.933
   16BMANN    N23939   3.753   0.356  15.862
   16BMANN   HN23940   3.668   0.313  15.891
   16BMANN    C23941   3.762   0.396  15.734
   16BMANN    O23942   3.855   0.464  15.691
   16BMANN   CT23943   3.651   0.354  15.644
   16BMANN  HT123944   3.582   0.436  15.622
   16BMANN  HT223945   3.594   0.270  15.689
   16BMANN  HT323946   3.694   0.316  15.549
   16BMANN   C323947   3.778   0.410  16.100
   16BMANN   H323948   3.857   0.440  16.175
   16BMANN   O323949   3.682   0.513  16.095
   16BMANN  HO323950   3.704   0.578  16.162
   16BMANN   C423951   3.716   0.284  16.147
   16BMANN   H423952   3.643   0.244  16.073
   16BMANN   O423953   3.646   0.291  16.272
   16BMANN  HO423954   3.590   0.212  16.280
   16BMANN   C623955   3.762   0.070  16.221
   16BMANN  H6123956   3.779   0.054  16.330
   16BMANN  H6223957   3.665   0.031  16.183
   16BMANN   O623958   3.846  -0.012  16.165
   16BMANN  HO623959   3.798  -0.081  16.120
   17BGLCN   C123960   4.267   0.066  16.170
   17BGLCN   H123961   4.375   0.091  16.140
   17BGLCN   C523962   4.345  -0.172  16.245
   17BGLCN   H523963   4.453  -0.129  16.215
   17BGLCN   O523964   4.249  -0.076  16.172
   17BGLCN   C223965   4.238   0.087  16.307
   17BGLCN   H223966   4.133   0.047  16.318
   17BGLCN    N23967   4.233   0.226  16.327
   17BGLCN   HN23968   4.296   0.280  16.272
   17BGLCN    C23969   4.159   0.282  16.420
   17BGLCN    O23970   4.072   0.223  16.484
   17BGLCN   CT23971   4.198   0.422  16.443
   17BGLCN  HT123972   4.130   0.487  16.390
   17BGLCN  HT223973   4.300   0.439  16.405
   17BGLCN  HT323974   4.193   0.447  16.550
   17BGLCN   C323975   4.336   0.007  16.389
   17BGLCN   H323976   4.432   0.040  16.345
   17BGLCN   O323977   4.330   0.055  16.519
   17BGLCN   C423978   4.321  -0.143  16.370
   17BGLCN   H423979   4.213  -0.182  16.369
   17BGLCN   O423980   4.429  -0.233  16.395
   17BGLCN  HO423981   4.381  -0.318  16.410
   17BGLCN   C623982   4.334  -0.346  16.192
   17BGLCN  H6123983   4.433  -0.397  16.196
   17BGLCN  H6223984   4.246  -0.381  16.248
   17BGLCN   O623985   4.315  -0.405  16.055
   17BGLCN  HO623986   4.326  -0.340  15.980
   18AGAL    C123987   4.458   0.065  16.572
   18AGAL    H123988   4.508  -0.032  16.541
   18AGAL    C523989   4.526   0.260  16.513
   18AGAL    H523990   4.424   0.263  16.473
   18AGAL    O523991   4.560   0.127  16.512
   18AGAL    C223992   4.429   0.122  16.719
   18AGAL    H223993   4.523   0.108  16.775
   18AGAL    O223994   4.319   0.071  16.800
   18AGAL    C323995   4.389   0.264  16.716
   18AGAL    H323996   4.297   0.269  16.651
   18AGAL    O323997   4.354   0.323  16.844
   18AGAL   HO323998   4.269   0.370  16.835
   18AGAL    C423999   4.506   0.329  16.649
   18AGAL    H424000   4.483   0.434  16.629
   18AGAL    O424001   4.622   0.318  16.731
   18AGAL   HO424002   4.609   0.374  16.810
   18AGAL    C624003   4.613   0.306  16.407
   18AGAL   H6124004   4.580   0.248  16.317
   18AGAL   H6224005   4.588   0.413  16.395
   18AGAL    O624006   4.752   0.281  16.433
   18AGAL   HO624007   4.753   0.216  16.505
   19ARHM    C124008   4.362   0.032  16.927
   19ARHM    H124009   4.434   0.114  16.963
   19ARHM    C524010   4.398  -0.223  16.946
   19ARHM    H524011   4.340  -0.248  16.855
   19ARHM    O524012   4.455  -0.082  16.940
   19ARHM    C224013   4.254   0.030  17.037
   19ARHM    H224014   4.177   0.108  17.013
   19ARHM    O224015   4.284   0.075  17.171
   19ARHM    C324016   4.193  -0.123  17.027
   19ARHM    H324017   4.182  -0.151  16.924
   19ARHM    O324018   4.067  -0.119  17.081
   19ARHM   HO324019   4.081  -0.088  17.173
   19ARHM    C424020   4.295  -0.246  17.062
   19ARHM    H424021   4.306  -0.260  17.174
   19ARHM    O424022   4.304  -0.378  17.064
   19ARHM   HO424023   4.259  -0.385  16.979
   19ARHM    C624024   4.512  -0.336  16.945
   19ARHM   H6124025   4.590  -0.308  16.873
   19ARHM   H6224026   4.558  -0.346  17.047
   19ARHM   H6324027   4.477  -0.439  16.924
   20ARHM    C124028   4.344   0.195  17.205
   20ARHM    H124029   4.315   0.261  17.123
   20ARHM    C524030   4.544   0.144  17.326
   20ARHM    H524031   4.521   0.043  17.302
   20ARHM    O524032   4.486   0.217  17.218
   20ARHM    C224033   4.274   0.225  17.333
   20ARHM    H224034   4.167   0.192  17.325
   20ARHM    O224035   4.282   0.364  17.356
   20ARHM    C324036   4.329   0.148  17.448
   20ARHM    H324037   4.323   0.038  17.433
   20ARHM    O324038   4.252   0.184  17.563
   20ARHM    C424039   4.475   0.184  17.457
   20ARHM    H424040   4.492   0.293  17.467
   20ARHM    O424041   4.528   0.126  17.573
   20ARHM   HO424042   4.622   0.106  17.556
   20ARHM    C624043   4.699   0.158  17.330
   20ARHM   H6124044   4.729   0.264  17.344
   20ARHM   H6224045   4.743   0.097  17.411
   20ARHM   H6324046   4.741   0.122  17.234
   21BMANN   C124047   4.186   0.425  17.278
   21BMANN   H124048   4.136   0.352  17.209
   21BMANN   C524049   4.139   0.572  17.101
   21BMANN   H524050   4.089   0.489  17.045
   21BMANN   O524051   4.242   0.520  17.188
   21BMANN   C224052   4.083   0.486  17.372
   21BMANN   H224053   4.042   0.398  17.429
   21BMANN    N24054   4.138   0.584  17.466
   21BMANN   HN24055   4.206   0.646  17.426
   21BMANN    C24056   4.101   0.597  17.595
   21BMANN    O24057   4.002   0.542  17.641
   21BMANN   CT24058   4.183   0.688  17.684
   21BMANN  HT124059   4.158   0.794  17.665
   21BMANN  HT224060   4.291   0.668  17.667
   21BMANN  HT324061   4.162   0.667  17.792
   21BMANN   C324062   3.975   0.540  17.283
   21BMANN   H324063   3.934   0.452  17.229
   21BMANN   O324064   3.867   0.597  17.356
   21BMANN  HO324065   3.905   0.664  17.413
   21BMANN   C424066   4.032   0.640  17.185
   21BMANN   H424067   4.077   0.727  17.237
   21BMANN   O424068   3.932   0.690  17.099
   21BMANN  HO424069   3.925   0.785  17.109
   21BMANN   C624070   4.195   0.666  16.998
   21BMANN  H6124071   4.120   0.681  16.917
   21BMANN  H6224072   4.212   0.765  17.045
   21BMANN   O624073   4.319   0.620  16.944
   21BMANN  HO624074   4.380   0.603  17.016
   22BGLCN   C124075   4.231   0.086  17.661
   22BGLCN   H124076   4.309   0.009  17.656
   22BGLCN   C524077   4.071  -0.063  17.755
   22BGLCN   H524078   4.165  -0.121  17.773
   22BGLCN   O524079   4.102   0.025  17.647
   22BGLCN   C224080   4.231   0.162  17.792
   22BGLCN   H224081   4.148   0.237  17.785
   22BGLCN    N24082   4.358   0.230  17.809
   22BGLCN   HN24083   4.439   0.183  17.776
   22BGLCN    C24084   4.372   0.346  17.871
   22BGLCN    O24085   4.279   0.407  17.922
   22BGLCN   CT24086   4.514   0.396  17.876
   22BGLCN  HT124087   4.525   0.465  17.790
   22BGLCN  HT224088   4.585   0.311  17.864
   22BGLCN  HT324089   4.535   0.447  17.973
   22BGLCN   C324090   4.202   0.071  17.909
   22BGLCN   H324091   4.273  -0.011  17.918
   22BGLCN   O324092   4.218   0.149  18.028
   22BGLCN   C424093   4.068   0.007  17.889
   22BGLCN   H424094   3.988   0.083  17.887
   22BGLCN   O424095   4.048  -0.093  17.990
   22BGLCN  HO424096   3.960  -0.086  18.030
   22BGLCN   C624097   3.932  -0.134  17.719
   22BGLCN  H6124098   3.914  -0.203  17.805
   22BGLCN  H6224099   3.867  -0.046  17.701
   22BGLCN   O624100   3.894  -0.221  17.608
   22BGLCN  HO624101   3.958  -0.242  17.539
   23AGAL    C124102   4.239   0.081  18.149
   23AGAL    H124103   4.149   0.026  18.181
   23AGAL    C524104   4.467   0.042  18.118
   23AGAL    H524105   4.466   0.098  18.021
   23AGAL    O524106   4.340  -0.015  18.140
   23AGAL    C224107   4.281   0.173  18.257
   23AGAL    H224108   4.296   0.109  18.347
   23AGAL    O224109   4.177   0.267  18.280
   23AGAL    C324110   4.418   0.234  18.228
   23AGAL    H324111   4.417   0.276  18.125
   23AGAL    O324112   4.454   0.339  18.313
   23AGAL   HO324113   4.432   0.315  18.403
   23AGAL    C424114   4.519   0.127  18.227
   23AGAL    H424115   4.623   0.160  18.200
   23AGAL    O424116   4.530   0.051  18.347
   23AGAL   HO424117   4.564  -0.036  18.316
   23AGAL    C624118   4.563  -0.058  18.094
   23AGAL   H6124119   4.522  -0.121  18.014
   23AGAL   H6224120   4.651   0.002  18.067
   23AGAL    O624121   4.604  -0.147  18.194
   23AGAL   HO624122   4.644  -0.225  18.149
   24ARHM    C124123   4.072   0.230  18.365
   24ARHM    H124124   4.069   0.119  18.375
   24ARHM    C524125   3.930   0.411  18.300
   24ARHM    H524126   4.010   0.444  18.231
   24ARHM    O524127   3.942   0.268  18.318
   24ARHM    C224128   4.103   0.297  18.497
   24ARHM    H224129   4.207   0.272  18.530
   24ARHM    O224130   4.008   0.260  18.597
   24ARHM    C324131   4.095   0.446  18.478
   24ARHM    H324132   4.168   0.474  18.399
   24ARHM    O324133   4.138   0.518  18.593
   24ARHM   HO324134   4.064   0.527  18.652
   24ARHM    C424135   3.954   0.482  18.433
   24ARHM    H424136   3.879   0.444  18.506
   24ARHM    O424137   3.938   0.622  18.420
   24ARHM   HO424138   3.847   0.652  18.434
   24ARHM    C624139   3.796   0.446  18.233
   24ARHM   H6124140   3.807   0.543  18.180
   24ARHM   H6224141   3.770   0.369  18.158
   24ARHM   H6324142   3.712   0.454  18.305
   25ARHM    C124143   4.025   0.133  18.650
   25ARHM    H124144   4.092   0.074  18.583
   25ARHM    C524145   3.812   0.112  18.756
   25ARHM    H524146   3.784   0.214  18.722
   25ARHM    O524147   3.904   0.058  18.659
   25ARHM    C224148   4.091   0.142  18.783
   25ARHM    H224149   4.175   0.212  18.775
   25ARHM    O224150   4.136   0.014  18.819
   25ARHM    C324151   4.001   0.200  18.885
   25ARHM    H324152   3.971   0.297  18.851
   25ARHM    O324153   4.072   0.217  19.007
   25ARHM    C424154   3.877   0.118  18.894
   25ARHM    H424155   3.904   0.017  18.929
   25ARHM    O424156   3.791   0.172  18.992
   25ARHM   HO424157   3.751   0.098  19.037
   25ARHM    C624158   3.682   0.027  18.757
   25ARHM   H6124159   3.647   0.009  18.653
   25ARHM   H6224160   3.694  -0.073  18.803
   25ARHM   H6324161   3.604   0.079  18.815
   26BMANN   C124162   4.258  -0.015  18.764
   26BMANN   H124163   4.314   0.073  18.722
   26BMANN   C524164   4.373  -0.134  18.610
   26BMANN   H524165   4.418  -0.043  18.560
   26BMANN   O524166   4.245  -0.105  18.661
   26BMANN   C224167   4.339  -0.074  18.872
   26BMANN   H224168   4.325   0.011  18.943
   26BMANN    N24169   4.295  -0.182  18.958
   26BMANN   HN24170   4.249  -0.250  18.903
   26BMANN    C24171   4.323  -0.217  19.081
   26BMANN    O24172   4.339  -0.112  19.137
   26BMANN   CT24173   4.294  -0.368  19.135
   26BMANN  HT124174   4.232  -0.424  19.059
   26BMANN  HT224175   4.208  -0.385  19.210
   26BMANN  HT324176   4.363  -0.443  19.099
   26BMANN   C324177   4.473  -0.105  18.802
   26BMANN   H324178   4.533  -0.026  18.750
   26BMANN   O324179   4.536  -0.158  18.908
   26BMANN  HO324180   4.593  -0.096  18.958
   26BMANN   C424181   4.470  -0.200  18.694
   26BMANN   H424182   4.476  -0.308  18.711
   26BMANN   O424183   4.578  -0.233  18.621
   26BMANN  HO424184   4.621  -0.301  18.681
   26BMANN   C624185   4.339  -0.222  18.516
   26BMANN  H6124186   4.244  -0.190  18.465
   26BMANN  H6224187   4.428  -0.206  18.449
   26BMANN   O624188   4.329  -0.364  18.549
   26BMANN  HO624189   4.410  -0.416  18.552
   27BGLCN   C124190   4.047   0.331  19.083
   27BGLCN   H124191   3.944   0.366  19.071
   27BGLCN   C524192   4.114   0.552  19.129
   27BGLCN   H524193   4.005   0.574  19.131
   27BGLCN   O524194   4.131   0.438  19.044
   27BGLCN   C224195   4.084   0.290  19.223
   27BGLCN   H224196   4.193   0.261  19.218
   27BGLCN    N24197   4.007   0.178  19.271
   27BGLCN   HN24198   3.912   0.169  19.243
   27BGLCN    C24199   4.071   0.081  19.336
   27BGLCN    O24200   4.183   0.094  19.384
   27BGLCN   CT24201   3.998  -0.048  19.340
   27BGLCN  HT124202   3.911  -0.050  19.274
   27BGLCN  HT224203   3.964  -0.058  19.444
   27BGLCN  HT324204   4.065  -0.133  19.311
   27BGLCN   C324205   4.071   0.403  19.319
   27BGLCN   H324206   3.967   0.439  19.317
   27BGLCN   O324207   4.100   0.347  19.450
   27BGLCN   C424208   4.156   0.516  19.270
   27BGLCN   H424209   4.263   0.486  19.269
   27BGLCN   O424210   4.139   0.631  19.352
   27BGLCN  HO424211   4.048   0.661  19.345
   27BGLCN   C624212   4.183   0.673  19.069
   27BGLCN  H6124213   4.150   0.765  19.122
   27BGLCN  H6224214   4.293   0.664  19.082
   27BGLCN   O624215   4.153   0.685  18.930
   27BGLCN  HO624216   4.194   0.760  18.887
   28AGAL    C124217   4.054   0.418  19.561
   28AGAL    H124218   4.118   0.509  19.569
   28AGAL    C524219   3.824   0.346  19.551
   28AGAL    H524220   3.858   0.266  19.480
   28AGAL    O524221   3.917   0.458  19.542
   28AGAL    C224222   4.065   0.347  19.698
   28AGAL    H224223   4.027   0.427  19.766
   28AGAL    O224224   4.196   0.313  19.746
   28AGAL    C324225   3.970   0.229  19.705
   28AGAL    H324226   3.992   0.161  19.620
   28AGAL    O324227   3.981   0.149  19.821
   28AGAL   HO324228   4.002   0.058  19.799
   28AGAL    C424229   3.830   0.281  19.686
   28AGAL    H424230   3.760   0.195  19.687
   28AGAL    O424231   3.788   0.372  19.786
   28AGAL   HO424232   3.731   0.327  19.849
   28AGAL    C624233   3.682   0.385  19.510
   28AGAL   H6124234   3.681   0.415  19.407
   28AGAL   H6224235   3.612   0.299  19.516
   28AGAL    O624236   3.625   0.499  19.573
   28AGAL   HO624237   3.665   0.580  19.539
   29ARHM    C124238   4.204   0.340  19.885
   29ARHM    H124239   4.103   0.337  19.932
   29ARHM    C524240   4.391   0.483  19.852
   29ARHM    H524241   4.386   0.457  19.743
   29ARHM    O524242   4.260   0.469  19.908
   29ARHM    C224243   4.289   0.239  19.953
   29ARHM    H224244   4.247   0.138  19.928
   29ARHM    O224245   4.290   0.262  20.096
   29ARHM    C324246   4.428   0.247  19.896
   29ARHM    H324247   4.425   0.226  19.787
   29ARHM    O324248   4.507   0.147  19.953
   29ARHM   HO324249   4.594   0.184  19.964
   29ARHM    C424250   4.487   0.385  19.918
   29ARHM    H424251   4.493   0.407  20.027
   29ARHM    O424252   4.620   0.400  19.868
   29ARHM   HO424253   4.635   0.363  19.781
   29ARHM    C624254   4.423   0.632  19.860
   29ARHM   H6124255   4.338   0.687  19.814
   29ARHM   H6224256   4.436   0.666  19.964
   29ARHM   H6324257   4.514   0.655  19.801
   30ARHM    C124258   4.200   0.184  20.173
   30ARHM    H124259   4.215   0.076  20.152
   30ARHM    C524260   4.030   0.352  20.186
   30ARHM    H524261   4.101   0.415  20.127
   30ARHM    O524262   4.061   0.216  20.153
   30ARHM    C224263   4.231   0.210  20.318
   30ARHM    H224264   4.338   0.188  20.339
   30ARHM    O224265   4.146   0.132  20.397
   30ARHM    C324266   4.201   0.351  20.358
   30ARHM    H324267   4.261   0.410  20.287
   30ARHM    O324268   4.249   0.383  20.489
   30ARHM    C424269   4.055   0.380  20.332
   30ARHM    H424270   3.989   0.313  20.391
   30ARHM    O424271   4.017   0.512  20.368
   30ARHM   HO424272   4.038   0.581  20.306
   30ARHM    C624273   3.888   0.388  20.142
   30ARHM   H6124274   3.870   0.496  20.159
   30ARHM   H6224275   3.877   0.368  20.034
   30ARHM   H6324276   3.813   0.328  20.199
   31BMANN   C124277   4.200   0.010  20.424
   31BMANN   H124278   4.307   0.019  20.456
   31BMANN   C524279   4.227  -0.217  20.346
   31BMANN   H524280   4.316  -0.212  20.382
   31BMANN   O524281   4.183  -0.084  20.316
   31BMANN   C224282   4.114  -0.027  20.541
   31BMANN   H224283   4.140   0.037  20.629
   31BMANN    N24284   3.972  -0.004  20.510
   31BMANN   HN24285   3.945  -0.024  20.415
   31BMANN    C24286   3.882   0.039  20.601
   31BMANN    O24287   3.913   0.058  20.718
   31BMANN   CT24288   3.738   0.014  20.563
   31BMANN  HT124289   3.730  -0.074  20.494
   31BMANN  HT224290   3.702   0.106  20.516
   31BMANN  HT324291   3.676  -0.012  20.652
   31BMANN   C324292   4.171  -0.161  20.578
   31BMANN   H324293   4.271  -0.123  20.595
   31BMANN   O324294   4.140  -0.209  20.706
   31BMANN  HO324295   4.077  -0.147  20.748
   31BMANN   C424296   4.159  -0.257  20.462
   31BMANN   H424297   4.051  -0.250  20.432
   31BMANN   O424298   4.231  -0.387  20.482
   31BMANN  HO424299   4.293  -0.392  20.558
   31BMANN   C624300   4.228  -0.335  20.241
   31BMANN  H6124301   4.290  -0.423  20.265
   31BMANN  H6224302   4.128  -0.382  20.231
   31BMANN   O624303   4.263  -0.292  20.115
   31BMANN  HO624304   4.355  -0.259  20.120
   32BGLCN   C124305   4.167   0.345  20.598
   32BGLCN   H124306   4.117   0.249  20.578
   32BGLCN   C524307   3.975   0.397  20.728
   32BGLCN   H524308   3.931   0.300  20.695
   32BGLCN   O524309   4.066   0.440  20.626
   32BGLCN   C224310   4.251   0.327  20.722
   32BGLCN   H224311   4.287   0.429  20.751
   32BGLCN    N24312   4.364   0.240  20.695
   32BGLCN   HN24313   4.351   0.176  20.622
   32BGLCN    C24314   4.488   0.254  20.745
   32BGLCN    O24315   4.517   0.341  20.826
   32BGLCN   CT24316   4.588   0.155  20.691
   32BGLCN  HT124317   4.546   0.114  20.597
   32BGLCN  HT224318   4.608   0.071  20.760
   32BGLCN  HT324319   4.685   0.204  20.668
   32BGLCN   C324320   4.160   0.271  20.828
   32BGLCN   H324321   4.111   0.183  20.783
   32BGLCN   O324322   4.226   0.225  20.944
   32BGLCN   C424323   4.052   0.374  20.856
   32BGLCN   H424324   4.103   0.468  20.889
   32BGLCN   O424325   3.963   0.332  20.958
   32BGLCN  HO424326   3.998   0.364  21.042
   32BGLCN   C624327   3.859   0.494  20.739
   32BGLCN  H6124328   3.780   0.459  20.807
   32BGLCN  H6224329   3.893   0.590  20.785
   32BGLCN   O624330   3.792   0.517  20.615
   32BGLCN  HO624331   3.797   0.439  20.558
   33AGAL    C124332   4.166   0.109  20.997
   33AGAL    H124333   4.057   0.112  20.993
   33AGAL    C524334   4.351  -0.026  20.944
   33AGAL    H524335   4.399   0.070  20.914
   33AGAL    O524336   4.210  -0.012  20.931
   33AGAL    C224337   4.200   0.113  21.142
   33AGAL    H224338   4.168   0.015  21.188
   33AGAL    O224339   4.129   0.217  21.213
   33AGAL    C324340   4.344   0.112  21.156
   33AGAL    H324341   4.405   0.187  21.102
   33AGAL    O324342   4.360   0.149  21.295
   33AGAL   HO324343   4.384   0.073  21.350
   33AGAL    C424344   4.387  -0.026  21.088
   33AGAL    H424345   4.495  -0.046  21.062
   33AGAL    O424346   4.355  -0.132  21.174
   33AGAL   HO424347   4.277  -0.131  21.232
   33AGAL    C624348   4.426  -0.121  20.851
   33AGAL   H6124349   4.407  -0.084  20.750
   33AGAL   H6224350   4.535  -0.130  20.871
   33AGAL    O624351   4.392  -0.256  20.852
   33AGAL   HO624352   4.298  -0.277  20.832
   34ARHM    C124353   4.075   0.175  21.336
   34ARHM    H124354   4.155   0.130  21.399
   34ARHM    C524355   3.854   0.141  21.239
   34ARHM    H524356   3.895   0.162  21.138
   34ARHM    O524357   3.960   0.087  21.314
   34ARHM    C224358   4.034   0.293  21.416
   34ARHM    H224359   4.123   0.359  21.421
   34ARHM    O224360   3.993   0.263  21.553
   34ARHM    C324361   3.925   0.359  21.336
   34ARHM    H324362   3.965   0.381  21.234
   34ARHM    O324363   3.888   0.482  21.398
   34ARHM   HO324364   3.857   0.542  21.328
   34ARHM    C424365   3.809   0.262  21.315
   34ARHM    H424366   3.773   0.224  21.414
   34ARHM    O424367   3.703   0.326  21.246
   34ARHM   HO424368   3.658   0.386  21.307
   34ARHM    C624369   3.741   0.036  21.226
   34ARHM   H6124370   3.697  -0.001  21.319
   34ARHM   H6224371   3.659   0.092  21.178
   34ARHM   H6324372   3.761  -0.051  21.163
   35ARHM    C124373   4.083   0.199  21.642
   35ARHM    H124374   4.188   0.231  21.623
   35ARHM    C524375   3.948   0.003  21.658
   35ARHM    H524376   3.870   0.043  21.587
   35ARHM    O524377   4.077   0.058  21.628
   35ARHM    C224378   4.048   0.227  21.787
   35ARHM    H224379   4.049   0.335  21.807
   35ARHM    O224380   4.141   0.162  21.877
   35ARHM    C324381   3.909   0.182  21.820
   35ARHM    H324382   3.838   0.231  21.749
   35ARHM    O324383   3.868   0.222  21.950
   35ARHM   HO324384   3.944   0.225  22.009
   35ARHM    C424385   3.906   0.034  21.801
   35ARHM    H424386   3.974  -0.019  21.872
   35ARHM    O424387   3.778  -0.018  21.827
   35ARHM   HO424388   3.713   0.044  21.795
   35ARHM    C624389   3.953  -0.147  21.632
   35ARHM   H6124390   3.959  -0.180  21.529
   35ARHM   H6224391   4.026  -0.208  21.686
   35ARHM   H6324392   3.852  -0.177  21.659
   36BMANN   C124393   4.269   0.222  21.882
   36BMANN   H124394   4.265   0.327  21.848
   36BMANN   C524395   4.493   0.220  21.807
   36BMANN   H524396   4.477   0.327  21.779
   36BMANN   O524397   4.366   0.152  21.803
   36BMANN   C224398   4.314   0.219  22.026
   36BMANN   H224399   4.238   0.279  22.081
   36BMANN    N24400   4.311   0.087  22.083
   36BMANN   HN24401   4.338   0.008  22.029
   36BMANN    C24402   4.274   0.069  22.210
   36BMANN    O24403   4.255   0.156  22.295
   36BMANN   CT24404   4.272  -0.069  22.251
   36BMANN  HT124405   4.356  -0.110  22.189
   36BMANN  HT224406   4.205  -0.148  22.231
   36BMANN  HT324407   4.286  -0.072  22.362
   36BMANN   C324408   4.446   0.290  22.037
   36BMANN   H324409   4.436   0.395  22.001
   36BMANN   O324410   4.492   0.291  22.172
   36BMANN  HO324411   4.515   0.380  22.200
   36BMANN   C424412   4.546   0.222  21.949
   36BMANN   H424413   4.562   0.122  21.987
   36BMANN   O424414   4.673   0.282  21.958
   36BMANN  HO424415   4.690   0.276  22.054
   36BMANN   C624416   4.590   0.166  21.705
   36BMANN  H6124417   4.545   0.171  21.603
   36BMANN  H6224418   4.680   0.230  21.705
   36BMANN   O624419   4.630   0.032  21.729
   36BMANN  HO624420   4.704   0.033  21.792
    1ECLIP HB6S24421   7.358   2.553  11.779
    1ECLIP  OB624422   7.482   2.656  11.908
    1ECLIP  CB624423   7.380   2.659  11.806
    1ECLIP HB6R24424   7.286   2.703  11.846
    1ECLIP  CB524425   7.416   2.736  11.680
    1ECLIP  OB524426   7.539   2.679  11.633
    1ECLIP  HB524427   7.431   2.842  11.711
    1ECLIP  CB124428   7.586   2.745  11.515
    1ECLIP  HB124429   7.603   2.854  11.533
    1ECLIP  OA624430   7.708   2.693  11.473
    1ECLIP  CA624431   7.725   2.553  11.498
    1ECLIP HA6R24432   7.631   2.497  11.515
    1ECLIP HA6S24433   7.796   2.541  11.583
    1ECLIP  CB424434   7.309   2.729  11.569
    1ECLIP  HB424435   7.285   2.624  11.542
    1ECLIP  OB424436   7.196   2.802  11.620
    1ECLIP   PB24437   7.058   2.724  11.668
    1ECLIP OPB424438   6.996   2.798  11.787
    1ECLIP OPB324439   7.105   2.585  11.706
    1ECLIP OPB224440   6.967   2.728  11.546
    1ECLIP  CB324441   7.360   2.799  11.445
    1ECLIP  OB324442   7.275   2.790  11.330
    1ECLIP  HB324443   7.388   2.904  11.470
    1ECLIP  C7124444   7.181   2.882  11.314
    1ECLIP  O7124445   7.189   2.994  11.361
    1ECLIP  C7224446   7.118   2.858  11.174
    1ECLIP H72R24447   7.196   2.853  11.096
    1ECLIP H72S24448   7.048   2.942  11.153
    1ECLIP  CB224449   7.489   2.731  11.403
    1ECLIP  HB224450   7.467   2.621  11.388
    1ECLIP  NB224451   7.542   2.792  11.281
    1ECLIP HNB224452   7.604   2.869  11.293
    1ECLIP  CA424453   7.881   2.597  11.323
    1ECLIP  HA424454   7.838   2.691  11.288
    1ECLIP  OA424455   7.981   2.630  11.422
    1ECLIP HOA424456   7.944   2.629  11.511
    1ECLIP  CA524457   7.784   2.497  11.374
    1ECLIP  HA524458   7.827   2.394  11.394
    1ECLIP  OA524459   7.683   2.479  11.275
    1ECLIP  CA124460   7.733   2.424  11.152
    1ECLIP  HA124461   7.650   2.443  11.080
    1ECLIP  OA124462   7.763   2.286  11.153
    1ECLIP OPA224463   7.703   2.138  11.341
    1ECLIP OPA324464   7.517   2.269  11.217
    1ECLIP OPA424465   7.631   2.074  11.099
    1ECLIP   PA24466   7.644   2.185  11.205
    1ECLIP  CA324467   7.922   2.539  11.198
    1ECLIP  HA324468   7.964   2.441  11.237
    1ECLIP  OA324469   7.986   2.627  11.107
    1ECLIP  C3124470   8.002   2.754  11.077
    1ECLIP  O3124471   8.000   2.785  10.960
    1ECLIP  C3224472   8.069   2.854  11.167
    1ECLIP H32R24473   8.146   2.905  11.102
    1ECLIP H32S24474   8.119   2.823  11.260
    1ECLIP  CA224475   7.828   2.514  11.088
    1ECLIP  HA224476   7.779   2.611  11.065
    1ECLIP  NA224477   7.886   2.460  10.958
    1ECLIP HNA224478   7.986   2.450  10.950
    1ECLIP  C7324479   7.043   2.724  11.171
    1ECLIP H73R24480   6.978   2.717  11.262
    1ECLIP  O7324481   7.142   2.621  11.165
    1ECLIP  C8124482   7.121   2.508  11.231
    1ECLIP  O8124483   7.017   2.481  11.291
    1ECLIP  C8224484   7.216   2.402  11.170
    1ECLIP H82R24485   7.201   2.305  11.223
    1ECLIP H82S24486   7.320   2.432  11.192
    1ECLIP  C8324487   7.201   2.382  11.017
    1ECLIP H83R24488   7.257   2.464  10.965
    1ECLIP H83S24489   7.094   2.392  10.990
    1ECLIP  C8424490   7.260   2.250  10.965
    1ECLIP H84R24491   7.197   2.164  10.997
    1ECLIP H84S24492   7.361   2.241  11.013
    1ECLIP  C8524493   7.282   2.250  10.813
    1ECLIP H85R24494   7.324   2.351  10.791
    1ECLIP H85S24495   7.185   2.244  10.760
    1ECLIP  C8624496   7.386   2.147  10.765
    1ECLIP H86R24497   7.336   2.052  10.735
    1ECLIP H86S24498   7.455   2.125  10.850
    1ECLIP  C8724499   7.476   2.202  10.652
    1ECLIP H87R24500   7.544   2.123  10.615
    1ECLIP H87S24501   7.541   2.283  10.694
    1ECLIP  C8824502   7.396   2.265  10.539
    1ECLIP H88R24503   7.359   2.364  10.571
    1ECLIP H88S24504   7.303   2.205  10.524
    1ECLIP  C8924505   7.476   2.282  10.408
    1ECLIP H89R24506   7.585   2.280  10.426
    1ECLIP H89S24507   7.454   2.381  10.362
    1ECLIP C81024508   7.434   2.175  10.306
    1ECLIPH810R24509   7.329   2.149  10.329
    1ECLIPH810S24510   7.497   2.086  10.322
    1ECLIP C81124511   7.445   2.221  10.160
    1ECLIPH811R24512   7.450   2.134  10.090
    1ECLIPH811S24513   7.539   2.280  10.152
    1ECLIP C81224514   7.332   2.313  10.110
    1ECLIPH812R24515   7.362   2.347  10.008
    1ECLIPH812S24516   7.325   2.401  10.177
    1ECLIP C81324517   7.193   2.251  10.100
    1ECLIPH813R24518   7.199   2.166  10.029
    1ECLIPH813S24519   7.159   2.212  10.199
    1ECLIP C81424520   7.089   2.350  10.049
    1ECLIPH814R24521   7.123   2.404   9.958
    1ECLIPH814S24522   7.067   2.425  10.128
    1ECLIPH814T24523   6.994   2.297  10.025
    1ECLIP  C7424524   6.955   2.705  11.046
    1ECLIP H74R24525   6.880   2.786  11.032
    1ECLIP H74S24526   6.904   2.607  11.065
    1ECLIP  C7524527   7.026   2.689  10.911
    1ECLIP H75R24528   6.968   2.612  10.855
    1ECLIP H75S24529   7.127   2.648  10.932
    1ECLIP  C7624530   7.036   2.818  10.830
    1ECLIP H76R24531   7.117   2.881  10.874
    1ECLIP H76S24532   6.942   2.877  10.835
    1ECLIP  C7724533   7.067   2.795  10.681
    1ECLIP H77R24534   6.980   2.743  10.635
    1ECLIP H77S24535   7.153   2.728  10.667
    1ECLIP  C7824536   7.102   2.930  10.616
    1ECLIP H78R24537   7.021   3.002  10.643
    1ECLIP H78S24538   7.194   2.965  10.668
    1ECLIP  C7924539   7.136   2.931  10.466
    1ECLIP H79R24540   7.246   2.923  10.453
    1ECLIP H79S24541   7.105   3.028  10.420
    1ECLIP C71024542   7.067   2.824  10.382
    1ECLIPH710R24543   7.087   2.723  10.423
    1ECLIPH710S24544   6.957   2.843  10.385
    1ECLIP C71124545   7.111   2.822  10.236
    1ECLIPH711R24546   7.089   2.922  10.191
    1ECLIPH711S24547   7.220   2.803  10.229
    1ECLIP C71224548   7.036   2.707  10.170
    1ECLIPH712R24549   6.928   2.733  10.166
    1ECLIPH712S24550   7.051   2.615  10.228
    1ECLIP C71324551   7.083   2.676  10.033
    1ECLIPH713R24552   7.194   2.660  10.024
    1ECLIPH713S24553   7.029   2.595   9.978
    1ECLIP C71424554   7.043   2.797   9.964
    1ECLIPH714R24555   6.942   2.832   9.944
    1ECLIPH714S24556   7.117   2.880   9.979
    1ECLIPH714T24557   7.050   2.752   9.864
    1ECLIP  C5124558   7.504   2.751  11.159
    1ECLIP  O5124559   7.446   2.646  11.144
    1ECLIP  C5224560   7.531   2.843  11.042
    1ECLIP H52R24561   7.447   2.915  11.029
    1ECLIP H52S24562   7.623   2.901  11.061
    1ECLIP  C5324563   7.548   2.761  10.913
    1ECLIP H53R24564   7.598   2.663  10.935
    1ECLIP  O5324565   7.622   2.843  10.822
    1ECLIP  C6124566   7.745   2.806  10.789
    1ECLIP  O6124567   7.797   2.700  10.816
    1ECLIP  C6224568   7.804   2.911  10.695
    1ECLIP H62R24569   7.850   2.990  10.757
    1ECLIP H62S24570   7.721   2.955  10.638
    1ECLIP  C6324571   7.908   2.849  10.599
    1ECLIP H63R24572   7.878   2.750  10.561
    1ECLIP H63S24573   7.993   2.835  10.664
    1ECLIP  C6424574   7.956   2.936  10.482
    1ECLIP H64R24575   8.032   2.885  10.420
    1ECLIP H64S24576   8.000   3.029  10.525
    1ECLIP  C6524577   7.844   2.958  10.386
    1ECLIP H65R24578   7.771   3.012  10.449
    1ECLIP H65S24579   7.805   2.859  10.356
    1ECLIP  C6624580   7.874   3.043  10.262
    1ECLIP H66R24581   7.917   3.141  10.292
    1ECLIP H66S24582   7.774   3.056  10.214
    1ECLIP  C6724583   7.961   2.984  10.153
    1ECLIP H67R24584   8.056   2.960  10.203
    1ECLIP H67S24585   7.986   3.057  10.072
    1ECLIP  C6824586   7.900   2.860  10.092
    1ECLIP H68R24587   7.796   2.870  10.057
    1ECLIP H68S24588   7.912   2.776  10.165
    1ECLIP  C6924589   7.953   2.828   9.960
    1ECLIP H69R24590   8.054   2.862   9.945
    1ECLIP H69S24591   7.930   2.899   9.882
    1ECLIP C61024592   7.947   2.678   9.941
    1ECLIPH610R24593   7.852   2.628   9.946
    1ECLIPH610S24594   8.016   2.622  10.007
    1ECLIP C61124595   7.988   2.676   9.804
    1ECLIPH611R24596   8.072   2.729   9.816
    1ECLIPH611S24597   8.056   2.603   9.763
    1ECLIP C61224598   7.922   2.756   9.701
    1ECLIPH612R24599   7.826   2.723   9.666
    1ECLIPH612S24600   7.955   2.858   9.697
    1ECLIPH612T24601   7.954   2.726   9.610
    1ECLIP  C5424602   7.407   2.734  10.853
    1ECLIP H54R24603   7.365   2.833  10.824
    1ECLIP H54S24604   7.343   2.693  10.934
    1ECLIP  C5524605   7.399   2.639  10.733
    1ECLIP H55R24606   7.294   2.605  10.719
    1ECLIP H55S24607   7.457   2.547  10.756
    1ECLIP  C5624608   7.444   2.711  10.606
    1ECLIP H56R24609   7.546   2.750  10.622
    1ECLIP H56S24610   7.378   2.799  10.587
    1ECLIP  C5724611   7.455   2.629  10.478
    1ECLIP H57R24612   7.360   2.576  10.455
    1ECLIP H57S24613   7.534   2.552  10.491
    1ECLIP  C5824614   7.496   2.722  10.363
    1ECLIP H58R24615   7.435   2.815  10.359
    1ECLIP H58S24616   7.600   2.757  10.383
    1ECLIP  C5924617   7.485   2.654  10.228
    1ECLIP H59R24618   7.382   2.615  10.209
    1ECLIP H59S24619   7.553   2.565  10.233
    1ECLIP C51024620   7.511   2.754  10.117
    1ECLIPH510R24621   7.607   2.809  10.126
    1ECLIPH510S24622   7.425   2.823  10.098
    1ECLIP C51124623   7.517   2.691   9.987
    1ECLIPH511R24624   7.624   2.653   9.987
    1ECLIPH511S24625   7.447   2.605   9.975
    1ECLIP C51224626   7.490   2.784   9.868
    1ECLIPH512R24627   7.457   2.728   9.780
    1ECLIPH512S24628   7.406   2.852   9.865
    1ECLIP C51324629   7.616   2.832   9.807
    1ECLIPH513R24630   7.706   2.771   9.792
    1ECLIPH513S24631   7.665   2.876   9.891
    1ECLIP C51424632   7.567   2.895   9.679
    1ECLIPH514R24633   7.493   2.972   9.679
    1ECLIPH514S24634   7.636   2.949   9.641
    1ECLIPH514T24635   7.614   2.869   9.582
    1ECLIP  C3324636   7.974   2.968  11.185
    1ECLIP H33R24637   8.034   3.054  11.224
    1ECLIP  O3324638   7.882   2.927  11.283
    1ECLIP HO3324639   7.926   2.916  11.367
    1ECLIP  C3424640   7.901   3.011  11.057
    1ECLIP H34R24641   7.842   2.925  11.019
    1ECLIP H34S24642   7.975   3.037  10.978
    1ECLIP  C3524643   7.802   3.125  11.080
    1ECLIP H35R24644   7.858   3.216  11.111
    1ECLIP H35S24645   7.734   3.094  11.162
    1ECLIP  C3624646   7.719   3.158  10.956
    1ECLIP H36R24647   7.708   3.061  10.903
    1ECLIP H36S24648   7.771   3.229  10.889
    1ECLIP  C3724649   7.577   3.207  10.988
    1ECLIP H37R24650   7.582   3.317  11.003
    1ECLIP H37S24651   7.544   3.163  11.085
    1ECLIP  C3824652   7.471   3.176  10.880
    1ECLIP H38R24653   7.442   3.068  10.879
    1ECLIP H38S24654   7.379   3.233  10.904
    1ECLIP  C3924655   7.521   3.210  10.739
    1ECLIP H39R24656   7.617   3.157  10.719
    1ECLIP H39S24657   7.538   3.320  10.734
    1ECLIP C31024658   7.426   3.175  10.624
    1ECLIPH310R24659   7.341   3.246  10.633
    1ECLIPH310S24660   7.388   3.072  10.632
    1ECLIP C31124661   7.499   3.180  10.488
    1ECLIPH311R24662   7.576   3.260  10.489
    1ECLIPH311S24663   7.553   3.084  10.473
    1ECLIP C31224664   7.407   3.196  10.366
    1ECLIPH312R24665   7.311   3.142  10.385
    1ECLIPH312S24666   7.385   3.304  10.354
    1ECLIP C31324667   7.471   3.143  10.237
    1ECLIPH313R24668   7.551   3.215  10.211
    1ECLIPH313S24669   7.519   3.044  10.254
    1ECLIP C31424670   7.374   3.132  10.118
    1ECLIPH314R24671   7.331   3.232  10.096
    1ECLIPH314S24672   7.427   3.095  10.027
    1ECLIPH314T24673   7.292   3.061  10.141
    1ECLIP  C1124674   7.816   2.398  10.861
    1ECLIP  O1124675   7.697   2.414  10.843
    1ECLIP  C1224676   7.892   2.304  10.771
    1ECLIP H12R24677   7.875   2.199  10.796
    1ECLIP H12S24678   7.999   2.326  10.779
    1ECLIP  C1324679   7.857   2.326  10.627
    1ECLIP H13R24680   7.752   2.348  10.603
    1ECLIP  O1324681   7.899   2.211  10.556
    1ECLIP HO1324682   7.868   2.208  10.466
    1ECLIP  C1424683   7.932   2.444  10.581
    1ECLIP H14R24684   8.035   2.435  10.624
    1ECLIP H14S24685   7.886   2.538  10.618
    1ECLIP  C1524686   7.932   2.451  10.432
    1ECLIP H15R24687   8.007   2.382  10.389
    1ECLIP H15S24688   7.960   2.555  10.427
    1ECLIP  C1624689   7.820   2.500  10.348
    1ECLIP H16R24690   7.801   2.611  10.357
    1ECLIP H16S24691   7.740   2.444  10.397
    1ECLIP  C1724692   7.857   2.467  10.205
    1ECLIP H17R24693   7.958   2.507  10.179
    1ECLIP H17S24694   7.785   2.515  10.137
    1ECLIP  C1824695   7.854   2.314  10.192
    1ECLIP H18R24696   7.940   2.272  10.247
    1ECLIP H18S24697   7.757   2.274  10.226
    1ECLIP  C1924698   7.868   2.260  10.055
    1ECLIP H19R24699   7.892   2.154  10.043
    1ECLIP H19S24700   7.943   2.327  10.021
    1ECLIP C11024701   7.774   2.297   9.952
    1ECLIPH110R24702   7.673   2.272   9.988
    1ECLIPH110S24703   7.791   2.409   9.959
    1ECLIP C11124704   7.790   2.231   9.808
    1ECLIPH111R24705   7.881   2.239   9.751
    1ECLIPH111S24706   7.785   2.126   9.823
    1ECLIP C11224707   7.693   2.260   9.691
    1ECLIPH112R24708   7.595   2.232   9.724
    1ECLIPH112S24709   7.676   2.361   9.665
    1ECLIP C11324710   7.737   2.251   9.548
    1ECLIPH113R24711   7.814   2.311   9.500
    1ECLIPH113S24712   7.782   2.157   9.549
    1ECLIP C11424713   7.627   2.294   9.459
    1ECLIPH114R24714   7.539   2.250   9.504
    1ECLIPH114S24715   7.614   2.398   9.433
    1ECLIPH114T24716   7.629   2.261   9.358
    2AKDO    C124717   7.448   2.882  11.979
    2AKDO   O1124718   7.338   2.942  11.981
    2AKDO   O1224719   7.560   2.929  11.945
    2AKDO    C224720   7.449   2.732  12.023
    2AKDO    C624721   7.314   2.559  12.122
    2AKDO    H624722   7.341   2.499  12.031
    2AKDO    O624723   7.321   2.697  12.082
    2AKDO    C324724   7.556   2.703  12.128
    2AKDO   H3124725   7.545   2.772  12.215
    2AKDO   H3224726   7.655   2.721  12.082
    2AKDO    C424727   7.550   2.561  12.172
    2AKDO    H424728   7.562   2.494  12.084
    2AKDO    O424729   7.646   2.534  12.272
    2AKDO    C524730   7.417   2.526  12.232
    2AKDO    H524731   7.414   2.415  12.244
    2AKDO    O524732   7.406   2.594  12.361
    2AKDO    C724733   7.171   2.520  12.153
    2AKDO    H724734   7.139   2.574  12.244
    2AKDO    O724735   7.157   2.378  12.173
    2AKDO   HO724736   7.153   2.341  12.084
    2AKDO    C824737   7.079   2.559  12.039
    2AKDO   H8124738   7.091   2.668  12.022
    2AKDO   H8224739   7.112   2.506  11.945
    2AKDO    O824740   6.942   2.528  12.072
    2AKDO   HO824741   6.891   2.596  12.026
    3AKDO    C124742   7.787   2.407  12.113
    3AKDO   O1124743   7.810   2.456  11.999
    3AKDO   O1224744   7.767   2.285  12.141
    3AKDO    C224745   7.777   2.509  12.233
    3AKDO    C624746   7.844   2.729  12.315
    3AKDO    H624747   7.738   2.758  12.329
    3AKDO    O624748   7.857   2.629  12.210
    3AKDO    C324749   7.825   2.452  12.366
    3AKDO   H3124750   7.915   2.417  12.323
    3AKDO   H3224751   7.782   2.355  12.397
    3AKDO    C424752   7.814   2.553  12.479
    3AKDO    H424753   7.710   2.586  12.487
    3AKDO    O424754   7.856   2.505  12.605
    3AKDO   HO424755   7.790   2.510  12.675
    3AKDO    C524756   7.890   2.675  12.446
    3AKDO    H524757   7.886   2.749  12.528
    3AKDO    O524758   8.020   2.657  12.455
    3AKDO   HO524759   8.043   2.603  12.379
    3AKDO    C724760   7.922   2.852  12.271
    3AKDO    H724761   8.029   2.825  12.250
    3AKDO    O724762   7.918   2.950  12.375
    3AKDO   HO724763   7.977   3.022  12.352
    3AKDO    C824764   7.856   2.905  12.147
    3AKDO   H8124765   7.852   2.826  12.069
    3AKDO   H8224766   7.751   2.937  12.168
    3AKDO    O824767   7.932   3.014  12.095
    3AKDO   HO824768   8.006   2.968  12.056
    4AHEP    C124769   7.330   2.530  12.462
    4AHEP    H124770   7.225   2.546  12.428
    4AHEP    C524771   7.467   2.345  12.536
    4AHEP    H524772   7.552   2.398  12.488
    4AHEP    O524773   7.347   2.388  12.467
    4AHEP    C224774   7.329   2.581  12.608
    4AHEP    H224775   7.322   2.692  12.605
    4AHEP    O224776   7.212   2.535  12.676
    4AHEP   HO224777   7.173   2.610  12.721
    4AHEP    C324778   7.453   2.543  12.687
    4AHEP    H324779   7.544   2.592  12.646
    4AHEP    O324780   7.436   2.581  12.825
    4AHEP    C424781   7.464   2.392  12.682
    4AHEP    H424782   7.378   2.342  12.733
    4AHEP    O424783   7.588   2.360  12.742
    4AHEP    P424784   7.596   2.277  12.885
    4AHEP  OP4224785   7.723   2.335  12.947
    4AHEP  OP4324786   7.606   2.130  12.843
    4AHEP  OP4424787   7.468   2.308  12.964
    4AHEP    C624788   7.484   2.191  12.517
    4AHEP    H624789   7.590   2.170  12.545
    4AHEP    O624790   7.399   2.109  12.602
    4AHEP   HO624791   7.454   2.064  12.668
    4AHEP    C724792   7.464   2.144  12.371
    4AHEP   H7124793   7.503   2.041  12.357
    4AHEP   H7224794   7.519   2.212  12.302
    4AHEP    O724795   7.327   2.141  12.326
    4AHEP   HO724796   7.292   2.065  12.372
    5AHEP    C124797   7.530   2.670  12.883
    5AHEP    H124798   7.630   2.657  12.835
    5AHEP    C524799   7.358   2.829  12.932
    5AHEP    H524800   7.286   2.753  12.895
    5AHEP    O524801   7.484   2.805  12.865
    5AHEP    C224802   7.546   2.643  13.033
    5AHEP    H224803   7.573   2.535  13.045
    5AHEP    O224804   7.655   2.721  13.085
    5AHEP   HO224805   7.729   2.662  13.099
    5AHEP    C324806   7.415   2.666  13.109
    5AHEP    H324807   7.339   2.597  13.066
    5AHEP    O324808   7.421   2.647  13.253
    5AHEP    C424809   7.372   2.808  13.083
    5AHEP    H424810   7.449   2.880  13.121
    5AHEP    O424811   7.244   2.828  13.144
    5AHEP    P424812   7.226   2.940  13.267
    5AHEP  OP4224813   7.084   2.903  13.317
    5AHEP  OP4324814   7.237   3.079  13.203
    5AHEP  OP4424815   7.339   2.910  13.366
    5AHEP    C624816   7.302   2.966  12.893
    5AHEP    H624817   7.202   2.978  12.941
    5AHEP    O624818   7.388   3.072  12.940
    5AHEP   HO624819   7.464   3.084  12.885
    5AHEP    C724820   7.278   2.976  12.743
    5AHEP   H7124821   7.186   3.037  12.728
    5AHEP   H7224822   7.257   2.877  12.698
    5AHEP    O724823   7.385   3.046  12.679
    6AHEP    C124824   7.476   2.963  12.615
    6AHEP    H124825   7.459   2.856  12.639
    6AHEP    C524826   7.484   3.113  12.432
    6AHEP    H524827   7.413   3.179  12.488
    6AHEP    O524828   7.461   2.977  12.473
    6AHEP    C224829   7.617   3.000  12.658
    6AHEP    H224830   7.620   2.989  12.770
    6AHEP    O224831   7.711   2.905  12.611
    6AHEP   HO224832   7.744   2.853  12.684
    6AHEP    C324833   7.647   3.144  12.620
    6AHEP    H324834   7.575   3.210  12.675
    6AHEP    O324835   7.781   3.183  12.655
    6AHEP   HO324836   7.784   3.243  12.729
    6AHEP    C424837   7.626   3.156  12.469
    6AHEP    H424838   7.701   3.095  12.415
    6AHEP    O424839   7.643   3.290  12.426
    6AHEP   HO424840   7.567   3.344  12.449
    6AHEP    C624841   7.448   3.137  12.286
    6AHEP    H624842   7.454   3.247  12.268
    6AHEP    O624843   7.544   3.080  12.198
    6AHEP   HO624844   7.500   3.020  12.135
    6AHEP    C724845   7.303   3.101  12.254
    6AHEP   H7124846   7.278   3.133  12.151
    6AHEP   H7224847   7.237   3.155  12.325
    6AHEP    O724848   7.270   2.963  12.266
    6AHEP   HO724849   7.258   2.942  12.358
    7AGLC    C124850   7.392   2.519  13.302
    7AGLC    H124851   7.304   2.480  13.251
    7AGLC    C524852   7.620   2.467  13.345
    7AGLC    H524853   7.647   2.572  13.318
    7AGLC    O524854   7.498   2.430  13.278
    7AGLC    C224855   7.365   2.514  13.453
    7AGLC    H224856   7.355   2.407  13.481
    7AGLC    O224857   7.241   2.574  13.489
    7AGLC   HO224858   7.258   2.671  13.495
    7AGLC    C324859   7.484   2.561  13.534
    7AGLC    H324860   7.511   2.663  13.497
    7AGLC    O324861   7.456   2.569  13.677
    7AGLC    C424862   7.597   2.465  13.497
    7AGLC    H424863   7.571   2.362  13.530
    7AGLC    O424864   7.716   2.507  13.561
    7AGLC   HO424865   7.762   2.434  13.604
    7AGLC    C624866   7.732   2.382  13.286
    7AGLC   H6124867   7.734   2.399  13.176
    7AGLC   H6224868   7.832   2.409  13.325
    7AGLC    O624869   7.711   2.242  13.304
    7AGLC   HO624870   7.752   2.218  13.386
    8AGLC    C124871   7.470   2.701  13.729
    8AGLC    H124872   7.562   2.748  13.688
    8AGLC    C524873   7.232   2.753  13.758
    8AGLC    H524874   7.209   2.650  13.725
    8AGLC    O524875   7.358   2.787  13.696
    8AGLC    C224876   7.487   2.703  13.880
    8AGLC    H224877   7.507   2.809  13.907
    8AGLC    O224878   7.597   2.626  13.930
    8AGLC    C324879   7.362   2.658  13.949
    8AGLC    H324880   7.339   2.556  13.909
    8AGLC    O324881   7.389   2.647  14.090
    8AGLC    C424882   7.251   2.754  13.910
    8AGLC    H424883   7.283   2.857  13.939
    8AGLC    O424884   7.130   2.723  13.978
    8AGLC   HO424885   7.121   2.628  13.976
    8AGLC    C624886   7.112   2.838  13.711
    8AGLC   H6124887   7.112   2.850  13.599
    8AGLC   H6224888   7.016   2.789  13.738
    8AGLC    O624889   7.105   2.969  13.769
    8AGLC   HO624890   7.067   2.965  13.857
    9AGAL    C124891   7.725   2.654  13.879
    9AGAL    H124892   7.724   2.656  13.768
    9AGAL    C524893   7.794   2.786  14.064
    9AGAL    H524894   7.700   2.752  14.113
    9AGAL    O524895   7.773   2.783  13.921
    9AGAL    C224896   7.816   2.539  13.920
    9AGAL    H224897   7.916   2.559  13.873
    9AGAL    O224898   7.765   2.420  13.857
    9AGAL    C324899   7.832   2.545  14.070
    9AGAL    H324900   7.734   2.535  14.121
    9AGAL    O324901   7.889   2.433  14.131
    9AGAL   HO324902   7.895   2.367  14.059
    9AGAL    C424903   7.892   2.681  14.104
    9AGAL    H424904   7.919   2.686  14.212
    9AGAL    O424905   8.002   2.720  14.024
    9AGAL   HO424906   8.064   2.748  14.092
    9AGAL    C624907   7.825   2.925  14.121
    9AGAL   H6124908   7.738   2.990  14.098
    9AGAL   H6224909   7.832   2.919  14.232
    9AGAL    O624910   7.944   2.990  14.074
    9AGAL   HO624911   7.918   3.046  14.003
   10AGAL    C124912   7.765   2.289  13.912
   10AGAL    H124913   7.870   2.253  13.920
   10AGAL    C524914   7.561   2.309  14.041
   10AGAL    H524915   7.557   2.413  14.001
   10AGAL    O524916   7.700   2.273  14.041
   10AGAL    C224917   7.693   2.200  13.812
   10AGAL    H224918   7.699   2.096  13.850
   10AGAL    O224919   7.759   2.192  13.686
   10AGAL   HO224920   7.754   2.100  13.659
   10AGAL    C324921   7.545   2.240  13.808
   10AGAL    H324922   7.540   2.348  13.780
   10AGAL    O324923   7.469   2.166  13.714
   10AGAL   HO324924   7.450   2.220  13.636
   10AGAL    C424925   7.484   2.222  13.944
   10AGAL    H424926   7.378   2.256  13.944
   10AGAL    O424927   7.487   2.084  13.983
   10AGAL   HO424928   7.579   2.064  14.000
   10AGAL    C624929   7.494   2.319  14.178
   10AGAL   H6124930   7.558   2.381  14.245
   10AGAL   H6224931   7.398   2.375  14.164
   10AGAL    O624932   7.468   2.195  14.245
   10AGAL   HO624933   7.515   2.196  14.329
   11BGLC    C124934   7.362   2.750  14.184
   11BGLC    H124935   7.252   2.757  14.198
   11BGLC    C524936   7.406   2.982  14.246
   11BGLC    H524937   7.299   2.994  14.264
   11BGLC    O524938   7.422   2.876  14.147
   11BGLC    C224939   7.425   2.703  14.315
   11BGLC    H224940   7.535   2.689  14.301
   11BGLC    O224941   7.370   2.578  14.356
   11BGLC   HO224942   7.441   2.514  14.366
   11BGLC    C324943   7.410   2.805  14.426
   11BGLC    H324944   7.302   2.817  14.453
   11BGLC    O324945   7.486   2.762  14.541
   11BGLC    C424946   7.471   2.935  14.378
   11BGLC    H424947   7.579   2.918  14.355
   11BGLC    O424948   7.464   3.034  14.480
   11BGLC   HO424949   7.527   3.009  14.550
   11BGLC    C624950   7.453   3.116  14.188
   11BGLC   H6124951   7.473   3.192  14.266
   11BGLC   H6224952   7.545   3.098  14.129
   11BGLC    O624953   7.360   3.174  14.096
   11BGLC   HO624954   7.315   3.253  14.131
   12BGLCN   C124955   7.424   2.749  14.668
   12BGLCN   H124956   7.372   2.651  14.673
   12BGLCN   C524957   7.268   2.839  14.824
   12BGLCN   H524958   7.216   2.741  14.831
   12BGLCN   O524959   7.329   2.852  14.694
   12BGLCN   C224960   7.536   2.756  14.771
   12BGLCN   H224961   7.577   2.861  14.766
   12BGLCN    N24962   7.635   2.656  14.741
   12BGLCN   HN24963   7.600   2.563  14.732
   12BGLCN    C24964   7.765   2.687  14.726
   12BGLCN    O24965   7.806   2.801  14.741
   12BGLCN   CT24966   7.861   2.577  14.690
   12BGLCN  HT124967   7.925   2.555  14.777
   12BGLCN  HT224968   7.927   2.609  14.608
   12BGLCN  HT324969   7.803   2.487  14.660
   12BGLCN   C324970   7.483   2.737  14.911
   12BGLCN   H324971   7.436   2.637  14.915
   12BGLCN   O324972   7.588   2.740  15.012
   12BGLCN   C424973   7.378   2.844  14.931
   12BGLCN   H424974   7.426   2.944  14.920
   12BGLCN   O424975   7.325   2.831  15.061
   12BGLCN  HO424976   7.257   2.763  15.063
   12BGLCN   C624977   7.165   2.949  14.830
   12BGLCN  H6124978   7.111   2.949  14.928
   12BGLCN  H6224979   7.216   3.047  14.820
   12BGLCN   O624980   7.069   2.938  14.724
   12BGLCN  HO624981   6.998   2.881  14.755
   13AGAL    C124982   7.574   2.646  15.119
   13AGAL    H124983   7.467   2.643  15.151
   13AGAL    C524984   7.764   2.512  15.063
   13AGAL    H524985   7.784   2.594  14.990
   13AGAL    O524986   7.620   2.515  15.083
   13AGAL    C224987   7.651   2.682  15.246
   13AGAL    H224988   7.637   2.596  15.316
   13AGAL    O224989   7.595   2.798  15.311
   13AGAL    C324990   7.801   2.686  15.225
   13AGAL    H324991   7.823   2.752  15.138
   13AGAL    O324992   7.870   2.741  15.335
   13AGAL   HO324993   7.946   2.793  15.307
   13AGAL    C424994   7.844   2.547  15.188
   13AGAL    H424995   7.952   2.551  15.159
   13AGAL    O424996   7.834   2.453  15.294
   13AGAL   HO424997   7.749   2.459  15.340
   13AGAL    C624998   7.817   2.391  14.992
   13AGAL   H6124999   7.763   2.376  14.896
   13AGAL   H6225000   7.924   2.412  14.971
   13AGAL    O625001   7.811   2.272  15.068
   13AGAL   HO625002   7.885   2.272  15.131
   14ARHM    C125003   7.533   2.777  15.437
   14ARHM    H125004   7.492   2.674  15.441
   14ARHM    C525005   7.463   3.003  15.454
   14ARHM    H525006   7.515   3.023  15.357
   14ARHM    O525007   7.422   2.865  15.455
   14ARHM    C225008   7.635   2.798  15.548
   14ARHM    H225009   7.720   2.728  15.530
   14ARHM    O225010   7.586   2.780  15.682
   14ARHM    C325011   7.682   2.941  15.542
   14ARHM    H325012   7.716   2.964  15.439
   14ARHM    O325013   7.795   2.965  15.626
   14ARHM   HO325014   7.766   2.962  15.717
   14ARHM    C425015   7.562   3.032  15.568
   14ARHM    H425016   7.511   3.005  15.664
   14ARHM    O425017   7.598   3.170  15.576
   14ARHM   HO425018   7.593   3.201  15.666
   14ARHM    C625019   7.337   3.090  15.462
   14ARHM   H6125020   7.259   3.053  15.393
   14ARHM   H6225021   7.302   3.091  15.567
   14ARHM   H6325022   7.358   3.195  15.432
   15ARHM    C125023   7.521   2.659  15.711
   15ARHM    H125024   7.556   2.580  15.640
   15ARHM    C525025   7.319   2.760  15.800
   15ARHM    H525026   7.349   2.866  15.781
   15ARHM    O525027   7.377   2.670  15.704
   15ARHM    C225028   7.562   2.616  15.850
   15ARHM    H225029   7.674   2.616  15.857
   15ARHM    O225030   7.513   2.481  15.867
   15ARHM    C325031   7.509   2.715  15.950
   15ARHM    H325032   7.544   2.817  15.920
   15ARHM    O325033   7.566   2.684  16.078
   15ARHM    C425034   7.358   2.714  15.940
   15ARHM    H425035   7.323   2.609  15.953
   15ARHM    O425036   7.291   2.792  16.038
   15ARHM   HO425037   7.198   2.767  16.033
   15ARHM    C625038   7.166   2.754  15.782
   15ARHM   H6125039   7.112   2.831  15.841
   15ARHM   H6225040   7.141   2.763  15.674
   15ARHM   H6325041   7.132   2.657  15.818
   16BMANN   C125042   7.537   2.411  15.987
   16BMANN   H125043   7.476   2.458  16.067
   16BMANN   C525044   7.688   2.345  16.157
   16BMANN   H525045   7.622   2.395  16.232
   16BMANN   O525046   7.674   2.409  16.029
   16BMANN   C225047   7.488   2.267  15.967
   16BMANN   H225048   7.380   2.274  15.940
   16BMANN    N25049   7.555   2.191  15.863
   16BMANN   HN25050   7.635   2.141  15.893
   16BMANN    C25051   7.517   2.184  15.735
   16BMANN    O25052   7.419   2.243  15.691
   16BMANN   CT25053   7.606   2.103  15.644
   16BMANN  HT125054   7.561   2.005  15.622
   16BMANN  HT225055   7.705   2.087  15.690
   16BMANN  HT325056   7.620   2.158  15.548
   16BMANN   C325057   7.503   2.195  16.100
   16BMANN   H325058   7.450   2.254  16.175
   16BMANN   O325059   7.449   2.063  16.098
   16BMANN  HO325060   7.382   2.055  16.166
   16BMANN   C425061   7.646   2.199  16.149
   16BMANN   H425062   7.702   2.140  16.077
   16BMANN   O425063   7.670   2.135  16.275
   16BMANN  HO425064   7.761   2.104  16.273
   16BMANN   C625065   7.826   2.359  16.217
   16BMANN  H6125066   7.822   2.354  16.327
   16BMANN  H6225067   7.879   2.269  16.186
   16BMANN   O625068   7.903   2.474  16.179
   16BMANN  HO625069   7.972   2.443  16.118
   17BGLCN   C125070   7.605   2.797  16.151
   17BGLCN   H125071   7.530   2.877  16.135
   17BGLCN   C525072   7.777   2.959  16.193
   17BGLCN   H525073   7.708   3.044  16.173
   17BGLCN   O525074   7.735   2.846  16.115
   17BGLCN   C225075   7.605   2.747  16.294
   17BGLCN   H225076   7.684   2.670  16.311
   17BGLCN    N25077   7.478   2.684  16.325
   17BGLCN   HN25078   7.402   2.719  16.273
   17BGLCN    C25079   7.453   2.591  16.417
   17BGLCN    O25080   7.538   2.532  16.483
   17BGLCN   CT25081   7.307   2.562  16.439
   17BGLCN  HT125082   7.275   2.469  16.389
   17BGLCN  HT225083   7.248   2.649  16.403
   17BGLCN  HT325084   7.289   2.553  16.547
   17BGLCN   C325085   7.636   2.868  16.380
   17BGLCN   H325086   7.563   2.946  16.346
   17BGLCN   O325087   7.610   2.839  16.520
   17BGLCN   C425088   7.776   2.917  16.341
   17BGLCN   H425089   7.848   2.832  16.350
   17BGLCN   O425090   7.821   3.022  16.427
   17BGLCN  HO425091   7.911   3.051  16.407
   17BGLCN   C625092   7.917   3.004  16.148
   17BGLCN  H6125093   7.926   3.115  16.152
   17BGLCN  H6225094   7.994   2.962  16.217
   17BGLCN   O625095   7.951   2.963  16.015
   17BGLCN  HO625096   7.886   2.995  15.952
   18AGAL    C125097   7.559   2.946  16.598
   18AGAL    H125098   7.642   3.019  16.617
   18AGAL    C525099   7.334   2.933  16.522
   18AGAL    H525100   7.366   2.837  16.477
   18AGAL    O525101   7.451   3.016  16.534
   18AGAL    C225102   7.505   2.902  16.733
   18AGAL    H225103   7.466   2.997  16.776
   18AGAL    O225104   7.606   2.856  16.824
   18AGAL    C325105   7.383   2.809  16.721
   18AGAL    H325106   7.411   2.725  16.653
   18AGAL    O325107   7.344   2.750  16.845
   18AGAL   HO325108   7.326   2.656  16.836
   18AGAL    C425109   7.273   2.888  16.654
   18AGAL    H425110   7.186   2.823  16.631
   18AGAL    O425111   7.223   2.994  16.734
   18AGAL   HO425112   7.174   2.959  16.810
   18AGAL    C625113   7.246   2.988  16.414
   18AGAL   H6125114   7.307   2.987  16.320
   18AGAL   H6225115   7.159   2.921  16.400
   18AGAL    O625116   7.199   3.120  16.439
   18AGAL   HO625117   7.261   3.163  16.499
   19ARHM    C125118   7.583   2.907  16.953
   19ARHM    H125119   7.474   2.923  16.972
   19ARHM    C525120   7.785   3.029  16.963
   19ARHM    H525121   7.804   2.994  16.859
   19ARHM    O525122   7.643   3.034  16.978
   19ARHM    C225123   7.640   2.806  17.048
   19ARHM    H225124   7.602   2.704  17.024
   19ARHM    O225125   7.601   2.837  17.182
   19ARHM    C325126   7.790   2.801  17.033
   19ARHM    H325127   7.816   2.776  16.927
   19ARHM    O325128   7.845   2.699  17.115
   19ARHM   HO325129   7.813   2.713  17.205
   19ARHM    C425130   7.848   2.937  17.062
   19ARHM    H425131   7.820   2.966  17.166
   19ARHM    O425132   7.989   2.944  17.052
   19ARHM   HO425133   8.017   2.922  16.962
   19ARHM    C625134   7.840   3.170  16.969
   19ARHM   H6125135   7.785   3.215  16.886
   19ARHM   H6225136   7.820   3.227  17.061
   19ARHM   H6325137   7.949   3.176  16.944
   20ARHM    C125138   7.465   2.808  17.207
   20ARHM    H125139   7.421   2.748  17.123
   20ARHM    C525140   7.420   3.003  17.333
   20ARHM    H525141   7.526   3.033  17.317
   20ARHM    O525142   7.381   2.923  17.222
   20ARHM    C225143   7.461   2.724  17.331
   20ARHM    H225144   7.536   2.641  17.321
   20ARHM    O225145   7.330   2.671  17.352
   20ARHM    C325146   7.501   2.805  17.449
   20ARHM    H325147   7.605   2.845  17.432
   20ARHM    O325148   7.500   2.718  17.563
   20ARHM    C425149   7.407   2.922  17.460
   20ARHM    H425150   7.301   2.890  17.468
   20ARHM    O425151   7.438   3.003  17.573
   20ARHM   HO425152   7.408   3.090  17.546
   20ARHM    C625153   7.334   3.132  17.332
   20ARHM   H6125154   7.226   3.113  17.345
   20ARHM   H6225155   7.369   3.200  17.413
   20ARHM   H6325156   7.346   3.185  17.236
   21BMANN   C125157   7.312   2.555  17.277
   21BMANN   H125158   7.399   2.542  17.208
   21BMANN   C525159   7.200   2.449  17.101
   21BMANN   H525160   7.296   2.439  17.044
   21BMANN   O525161   7.202   2.564  17.187
   21BMANN   C225162   7.300   2.436  17.371
   21BMANN   H225163   7.397   2.436  17.428
   21BMANN    N25164   7.188   2.443  17.465
   21BMANN   HN25165   7.102   2.477  17.428
   21BMANN    C25166   7.192   2.403  17.595
   21BMANN    O25167   7.285   2.337  17.640
   21BMANN   CT25168   7.075   2.439  17.684
   21BMANN  HT125169   6.990   2.371  17.666
   21BMANN  HT225170   7.046   2.544  17.668
   21BMANN  HT325171   7.103   2.428  17.791
   21BMANN   C325172   7.299   2.314  17.282
   21BMANN   H325173   7.397   2.314  17.228
   21BMANN   O325174   7.292   2.194  17.358
   21BMANN  HO325175   7.213   2.200  17.412
   21BMANN   C425176   7.185   2.324  17.182
   21BMANN   H425177   7.089   2.332  17.235
   21BMANN   O425178   7.174   2.214  17.093
   21BMANN  HO425179   7.097   2.160  17.116
   21BMANN   C625180   7.088   2.460  17.000
   21BMANN  H6125181   7.103   2.383  16.923
   21BMANN  H6225182   6.991   2.434  17.047
   21BMANN   O625183   7.080   2.590  16.942
   21BMANN  HO625184   7.059   2.653  17.012
   22BGLCN   C125185   7.597   2.743  17.661
   22BGLCN   H125186   7.631   2.848  17.661
   22BGLCN   C525187   7.807   2.685  17.747
   22BGLCN   H525188   7.836   2.792  17.747
   22BGLCN   O525189   7.712   2.660  17.643
   22BGLCN   C225190   7.531   2.710  17.792
   22BGLCN   H225191   7.500   2.602  17.787
   22BGLCN    N25192   7.415   2.793  17.809
   22BGLCN   HN25193   7.423   2.886  17.774
   22BGLCN    C25194   7.304   2.757  17.873
   22BGLCN    O25195   7.285   2.648  17.925
   22BGLCN   CT25196   7.199   2.862  17.878
   22BGLCN  HT125197   7.131   2.840  17.792
   22BGLCN  HT225198   7.242   2.963  17.865
   22BGLCN  HT325199   7.141   2.859  17.973
   22BGLCN   C325200   7.630   2.732  17.905
   22BGLCN   H325201   7.664   2.838  17.901
   22BGLCN   O325202   7.556   2.711  18.026
   22BGLCN   C425203   7.752   2.649  17.883
   22BGLCN   H425204   7.730   2.544  17.871
   22BGLCN   O425205   7.847   2.652  17.989
   22BGLCN  HO425206   7.871   2.559  18.008
   22BGLCN   C625207   7.923   2.602  17.712
   22BGLCN  H6125208   7.980   2.591  17.805
   22BGLCN  H6225209   7.895   2.499  17.680
   22BGLCN   O625210   8.004   2.673  17.617
   22BGLCN  HO625211   7.967   2.665  17.529
   23AGAL    C125212   7.606   2.762  18.146
   23AGAL    H125213   7.690   2.698  18.181
   23AGAL    C525214   7.546   2.991  18.109
   23AGAL    H525215   7.492   2.956  18.018
   23AGAL    O525216   7.653   2.897  18.136
   23AGAL    C225217   7.501   2.754  18.254
   23AGAL    H225218   7.550   2.793  18.346
   23AGAL    O225219   7.458   2.618  18.280
   23AGAL    C325220   7.386   2.850  18.224
   23AGAL    H325221   7.348   2.829  18.122
   23AGAL    O325222   7.275   2.833  18.312
   23AGAL   HO325223   7.311   2.829  18.401
   23AGAL    C425224   7.442   2.993  18.222
   23AGAL    H425225   7.363   3.067  18.198
   23AGAL    O425226   7.499   3.033  18.347
   23AGAL   HO425227   7.572   3.092  18.321
   23AGAL    C625228   7.608   3.123  18.070
   23AGAL   H6125229   7.686   3.106  17.994
   23AGAL   H6225230   7.533   3.188  18.020
   23AGAL    O625231   7.663   3.190  18.183
   23AGAL   HO625232   7.718   3.265  18.159
   24ARHM    C125233   7.537   2.536  18.365
   24ARHM    H125234   7.638   2.581  18.374
   24ARHM    C525235   7.432   2.331  18.297
   24ARHM    H525236   7.370   2.390  18.226
   24ARHM    O525237   7.557   2.400  18.319
   24ARHM    C225238   7.464   2.534  18.496
   24ARHM    H225239   7.442   2.639  18.530
   24ARHM    O225240   7.540   2.465  18.596
   24ARHM    C325241   7.331   2.465  18.477
   24ARHM    H325242   7.275   2.519  18.398
   24ARHM    O325243   7.249   2.471  18.593
   24ARHM   HO325244   7.270   2.396  18.651
   24ARHM    C425245   7.357   2.324  18.427
   24ARHM    H425246   7.427   2.277  18.496
   24ARHM    O425247   7.240   2.244  18.416
   24ARHM   HO425248   7.256   2.153  18.444
   24ARHM    C625249   7.459   2.193  18.234
   24ARHM   H6125250   7.368   2.161  18.179
   24ARHM   H6225251   7.541   2.203  18.159
   24ARHM   H6325252   7.490   2.115  18.306
   25ARHM    C125253   7.645   2.538  18.651
   25ARHM    H125254   7.669   2.623  18.584
   25ARHM    C525255   7.759   2.356  18.757
   25ARHM    H525256   7.680   2.287  18.722
   25ARHM    O525257   7.768   2.465  18.662
   25ARHM    C225258   7.602   2.594  18.783
   25ARHM    H225259   7.500   2.640  18.774
   25ARHM    O225260   7.696   2.694  18.825
   25ARHM    C325261   7.590   2.482  18.882
   25ARHM    H325262   7.514   2.408  18.845
   25ARHM    O325263   7.551   2.537  19.007
   25ARHM    C425264   7.720   2.409  18.894
   25ARHM    H425265   7.801   2.478  18.928
   25ARHM    O425266   7.703   2.304  18.987
   25ARHM   HO425267   7.786   2.295  19.038
   25ARHM    C625268   7.890   2.275  18.758
   25ARHM   H6125269   7.920   2.249  18.655
   25ARHM   H6225270   7.972   2.335  18.803
   25ARHM   H6325271   7.877   2.182  18.817
   26BMANN   C125272   7.679   2.818  18.763
   26BMANN   H125273   7.577   2.830  18.722
   26BMANN   C525274   7.750   2.971  18.595
   26BMANN   H525275   7.647   2.972  18.554
   26BMANN   O525276   7.773   2.844  18.658
   26BMANN   C225277   7.699   2.921  18.870
   26BMANN   H225278   7.622   2.901  18.947
   26BMANN    N25279   7.833   2.914  18.928
   26BMANN   HN25280   7.909   2.918  18.865
   26BMANN    C25281   7.859   2.903  19.059
   26BMANN    O25282   7.771   2.881  19.141
   26BMANN   CT25283   8.003   2.921  19.102
   26BMANN  HT125284   8.071   2.890  19.021
   26BMANN  HT225285   8.028   2.867  19.196
   26BMANN  HT325286   8.017   3.029  19.121
   26BMANN   C325287   7.667   3.056  18.810
   26BMANN   H325288   7.562   3.054  18.770
   26BMANN   O325289   7.670   3.154  18.912
   26BMANN  HO325290   7.590   3.148  18.965
   26BMANN   C425291   7.763   3.083  18.697
   26BMANN   H425292   7.868   3.086  18.734
   26BMANN   O425293   7.737   3.210  18.638
   26BMANN  HO425294   7.777   3.277  18.694
   26BMANN   C625295   7.845   2.980  18.476
   26BMANN  H6125296   7.852   2.880  18.428
   26BMANN  H6225297   7.806   3.052  18.401
   26BMANN   O625298   7.977   3.020  18.513
   26BMANN  HO625299   7.972   3.109  18.549
   27BGLCN   C125300   7.457   2.467  19.083
   27BGLCN   H125301   7.471   2.357  19.078
   27BGLCN   C525302   7.227   2.436  19.129
   27BGLCN   H525303   7.252   2.328  19.135
   27BGLCN   O525304   7.324   2.500  19.044
   27BGLCN   C225305   7.481   2.520  19.223
   27BGLCN   H225306   7.457   2.629  19.222
   27BGLCN    N25307   7.619   2.504  19.266
   27BGLCN   HN25308   7.662   2.418  19.241
   27BGLCN    C25309   7.684   2.603  19.332
   27BGLCN    O25310   7.624   2.695  19.386
   27BGLCN   CT25311   7.835   2.597  19.338
   27BGLCN  HT125312   7.872   2.516  19.274
   27BGLCN  HT225313   7.871   2.583  19.442
   27BGLCN  HT325314   7.875   2.695  19.303
   27BGLCN   C325315   7.384   2.457  19.319
   27BGLCN   H325316   7.400   2.347  19.314
   27BGLCN   O325317   7.421   2.509  19.449
   27BGLCN   C425318   7.244   2.487  19.271
   27BGLCN   H425319   7.224   2.596  19.271
   27BGLCN   O425320   7.148   2.422  19.353
   27BGLCN  HO425321   7.158   2.326  19.344
   27BGLCN   C625322   7.088   2.447  19.068
   27BGLCN  H6125323   7.020   2.377  19.122
   27BGLCN  H6225324   7.049   2.549  19.081
   27BGLCN   O625325   7.088   2.414  18.929
   27BGLCN  HO625326   7.004   2.429  18.884
   28AGAL    C125327   7.374   2.438  19.561
   28AGAL    H125328   7.264   2.457  19.569
   28AGAL    C525329   7.537   2.263  19.550
   28AGAL    H525330   7.595   2.328  19.479
   28AGAL    O525331   7.396   2.297  19.542
   28AGAL    C225332   7.433   2.478  19.698
   28AGAL    H225333   7.378   2.410  19.766
   28AGAL    O225334   7.409   2.611  19.746
   28AGAL    C325335   7.581   2.443  19.705
   28AGAL    H325336   7.632   2.494  19.620
   28AGAL    O325337   7.652   2.485  19.821
   28AGAL   HO325338   7.720   2.549  19.797
   28AGAL    C425339   7.594   2.294  19.686
   28AGAL    H425340   7.702   2.269  19.685
   28AGAL    O425341   7.530   2.217  19.787
   28AGAL   HO425342   7.593   2.183  19.850
   28AGAL    C625343   7.562   2.121  19.502
   28AGAL   H6125344   7.542   2.116  19.394
   28AGAL   H6225345   7.667   2.093  19.517
   28AGAL    O625346   7.487   2.021  19.570
   28AGAL   HO625347   7.398   2.015  19.532
   29ARHM    C125348   7.378   2.607  19.884
   29ARHM    H125349   7.424   2.518  19.933
   29ARHM    C525350   7.171   2.717  19.847
   29ARHM    H525351   7.197   2.721  19.739
   29ARHM    O525352   7.237   2.604  19.906
   29ARHM    C225353   7.435   2.728  19.952
   29ARHM    H225354   7.544   2.732  19.928
   29ARHM    O225355   7.415   2.719  20.096
   29ARHM    C325356   7.371   2.851  19.894
   29ARHM    H325357   7.391   2.859  19.784
   29ARHM    O325358   7.426   2.964  19.961
   29ARHM   HO325359   7.359   3.033  19.955
   29ARHM    C425360   7.221   2.845  19.912
   29ARHM    H425361   7.210   2.839  20.019
   29ARHM    O425362   7.152   2.964  19.872
   29ARHM   HO425363   7.172   2.985  19.779
   29ARHM    C625364   7.022   2.681  19.859
   29ARHM   H6125365   7.009   2.580  19.812
   29ARHM   H6225366   6.986   2.677  19.964
   29ARHM   H6325367   6.960   2.752  19.800
   30ARHM    C125368   7.523   2.671  20.173
   30ARHM    H125369   7.614   2.731  20.152
   30ARHM    C525370   7.443   2.445  20.186
   30ARHM    H525371   7.355   2.481  20.127
   30ARHM    O525372   7.553   2.531  20.152
   30ARHM    C225373   7.486   2.687  20.318
   30ARHM    H225374   7.460   2.793  20.339
   30ARHM    O225375   7.597   2.645  20.396
   30ARHM    C325376   7.370   2.599  20.358
   30ARHM    H325377   7.287   2.623  20.288
   30ARHM    O325378   7.322   2.630  20.491
   30ARHM    C425379   7.408   2.455  20.333
   30ARHM    H425380   7.498   2.425  20.391
   30ARHM    O425381   7.307   2.363  20.371
   30ARHM   HO425382   7.237   2.355  20.305
   30ARHM    C625383   7.473   2.301  20.142
   30ARHM   H6125384   7.382   2.238  20.159
   30ARHM   H6225385   7.494   2.298  20.033
   30ARHM   H6325386   7.559   2.259  20.198
   31BMANN   C125387   7.688   2.746  20.426
   31BMANN   H125388   7.636   2.840  20.453
   31BMANN   C525389   7.879   2.867  20.353
   31BMANN   H525390   7.830   2.957  20.393
   31BMANN   O525391   7.782   2.767  20.320
   31BMANN   C225392   7.761   2.694  20.545
   31BMANN   H225393   7.687   2.686  20.628
   31BMANN    N25394   7.813   2.560  20.520
   31BMANN   HN25395   7.828   2.537  20.424
   31BMANN    C25396   7.830   2.471  20.618
   31BMANN    O25397   7.807   2.496  20.735
   31BMANN   CT25398   7.879   2.339  20.574
   31BMANN  HT125399   7.949   2.361  20.493
   31BMANN  HT225400   7.802   2.275  20.530
   31BMANN  HT325401   7.932   2.285  20.655
   31BMANN   C325402   7.860   2.799  20.586
   31BMANN   H325403   7.809   2.895  20.605
   31BMANN   O325404   7.920   2.764  20.709
   31BMANN  HO325405   7.866   2.693  20.749
   31BMANN   C425406   7.954   2.824  20.472
   31BMANN   H425407   7.992   2.728  20.431
   31BMANN   O425408   8.047   2.931  20.496
   31BMANN  HO425409   8.015   2.994  20.563
   31BMANN   C625410   7.973   2.905  20.239
   31BMANN  H6125411   8.028   2.997  20.266
   31BMANN  H6225412   8.049   2.825  20.224
   31BMANN   O625413   7.906   2.928  20.115
   31BMANN  HO625414   7.849   3.005  20.122
   32BGLCN   C125415   7.392   2.571  20.598
   32BGLCN   H125416   7.500   2.568  20.577
   32BGLCN   C525417   7.429   2.375  20.728
   32BGLCN   H525418   7.535   2.379  20.694
   32BGLCN   O525419   7.349   2.438  20.627
   32BGLCN   C225420   7.372   2.655  20.722
   32BGLCN   H225421   7.265   2.643  20.751
   32BGLCN    N25422   7.398   2.795  20.693
   32BGLCN   HN25423   7.468   2.808  20.624
   32BGLCN    C25424   7.334   2.900  20.746
   32BGLCN    O25425   7.243   2.889  20.828
   32BGLCN   CT25426   7.380   3.033  20.691
   32BGLCN  HT125427   7.436   3.013  20.597
   32BGLCN  HT225428   7.448   3.087  20.760
   32BGLCN  HT325429   7.295   3.100  20.668
   32BGLCN   C325430   7.462   2.597  20.829
   32BGLCN   H325431   7.564   2.591  20.784
   32BGLCN   O325432   7.472   2.679  20.946
   32BGLCN   C425433   7.416   2.456  20.856
   32BGLCN   H425434   7.308   2.460  20.887
   32BGLCN   O425435   7.491   2.392  20.959
   32BGLCN  HO425436   7.451   2.414  21.043
   32BGLCN   C625437   7.393   2.227  20.741
   32BGLCN  H6125438   7.463   2.175  20.809
   32BGLCN  H6225439   7.291   2.218  20.785
   32BGLCN   O625440   7.401   2.157  20.616
   32BGLCN  HO625441   7.466   2.198  20.558
   33AGAL    C125442   7.601   2.681  21.005
   33AGAL    H125443   7.648   2.581  20.997
   33AGAL    C525444   7.642   2.913  20.957
   33AGAL    H525445   7.538   2.911  20.920
   33AGAL    O525446   7.689   2.777  20.943
   33AGAL    C225447   7.589   2.720  21.151
   33AGAL    H225448   7.693   2.727  21.190
   33AGAL    O225449   7.527   2.612  21.224
   33AGAL    C325450   7.532   2.861  21.165
   33AGAL    H325451   7.437   2.870  21.108
   33AGAL    O325452   7.493   2.896  21.297
   33AGAL   HO325453   7.564   2.882  21.361
   33AGAL    C425454   7.629   2.959  21.101
   33AGAL    H425455   7.585   3.062  21.102
   33AGAL    O425456   7.753   2.976  21.166
   33AGAL   HO425457   7.782   2.904  21.224
   33AGAL    C625458   7.715   3.008  20.863
   33AGAL   H6125459   7.693   2.974  20.760
   33AGAL   H6225460   7.677   3.112  20.873
   33AGAL    O625461   7.856   3.012  20.883
   33AGAL   HO625462   7.904   2.955  20.821
   34ARHM    C125463   7.597   2.574  21.342
   34ARHM    H125464   7.616   2.666  21.401
   34ARHM    C525465   7.716   2.386  21.243
   34ARHM    H525466   7.676   2.412  21.143
   34ARHM    O525467   7.725   2.508  21.320
   34ARHM    C225468   7.504   2.480  21.418
   34ARHM    H225469   7.404   2.526  21.423
   34ARHM    O225470   7.540   2.453  21.555
   34ARHM    C325471   7.489   2.352  21.338
   34ARHM    H325472   7.451   2.376  21.236
   34ARHM    O325473   7.394   2.264  21.400
   34ARHM   HO325474   7.353   2.207  21.335
   34ARHM    C425475   7.624   2.288  21.316
   34ARHM    H425476   7.672   2.268  21.415
   34ARHM    O425477   7.609   2.166  21.243
   34ARHM   HO425478   7.580   2.098  21.305
   34ARHM    C625479   7.857   2.322  21.220
   34ARHM   H6125480   7.908   2.297  21.314
   34ARHM   H6225481   7.843   2.224  21.169
   34ARHM   H6325482   7.923   2.383  21.155
   35ARHM    C125483   7.559   2.562  21.643
   35ARHM    H125484   7.485   2.642  21.623
   35ARHM    C525485   7.787   2.518  21.658
   35ARHM    H525486   7.784   2.432  21.587
   35ARHM    O525487   7.689   2.617  21.629
   35ARHM    C225488   7.546   2.515  21.787
   35ARHM    H225489   7.445   2.472  21.802
   35ARHM    O225490   7.564   2.623  21.879
   35ARHM    C325491   7.645   2.407  21.819
   35ARHM    H325492   7.636   2.322  21.747
   35ARHM    O325493   7.619   2.350  21.948
   35ARHM   HO325494   7.605   2.420  22.013
   35ARHM    C425495   7.782   2.466  21.802
   35ARHM    H425496   7.801   2.554  21.867
   35ARHM    O425497   7.882   2.369  21.832
   35ARHM   HO425498   7.865   2.284  21.791
   35ARHM    C625499   7.913   2.587  21.622
   35ARHM   H6125500   7.930   2.609  21.516
   35ARHM   H6225501   7.942   2.675  21.683
   35ARHM   H6325502   7.974   2.499  21.647
   36BMANN   C125503   7.459   2.716  21.883
   36BMANN   H125504   7.365   2.669  21.849
   36BMANN   C525505   7.366   2.919  21.809
   36BMANN   H525506   7.275   2.861  21.779
   36BMANN   O525507   7.481   2.832  21.803
   36BMANN   C225508   7.444   2.759  22.027
   36BMANN   H225509   7.422   2.665  22.084
   36BMANN    N25510   7.564   2.820  22.083
   36BMANN   HN25511   7.621   2.874  22.021
   36BMANN    C25512   7.592   2.812  22.214
   36BMANN    O25513   7.525   2.748  22.293
   36BMANN   CT25514   7.707   2.891  22.265
   36BMANN  HT125515   7.705   2.994  22.223
   36BMANN  HT225516   7.806   2.845  22.247
   36BMANN  HT325517   7.698   2.898  22.374
   36BMANN   C325518   7.324   2.849  22.039
   36BMANN   H325519   7.233   2.795  22.002
   36BMANN   O325520   7.299   2.888  22.175
   36BMANN  HO325521   7.210   2.860  22.198
   36BMANN   C425522   7.344   2.969  21.950
   36BMANN   H425523   7.432   3.028  21.981
   36BMANN   O425524   7.232   3.054  21.959
   36BMANN  HO425525   7.224   3.075  22.052
   36BMANN   C625526   7.378   3.032  21.709
   36BMANN  H6125527   7.389   2.991  21.606
   36BMANN  H6225528   7.281   3.085  21.712
   36BMANN   O625529   7.481   3.125  21.743
   36BMANN  HO625530   7.444   3.192  21.801
    1ECLIP HB6S25531   0.600   2.585  11.779
    1ECLIP  OB625532   0.489   2.469  11.907
    1ECLIP  CB625533   0.591   2.478  11.806
    1ECLIP HB6R25534   0.689   2.444  11.846
    1ECLIP  CB525535   0.562   2.397  11.680
    1ECLIP  OB525536   0.433   2.441  11.633
    1ECLIP  HB525537   0.559   2.290  11.711
    1ECLIP  CB125538   0.394   2.370  11.516
    1ECLIP  HB125539   0.391   2.260  11.533
    1ECLIP  OA625540   0.265   2.406  11.476
    1ECLIP  CA625541   0.235   2.545  11.499
    1ECLIP HA6R25542   0.322   2.611  11.515
    1ECLIP HA6S25543   0.162   2.552  11.583
    1ECLIP  CB425544   0.669   2.416  11.570
    1ECLIP  HB425545   0.681   2.523  11.542
    1ECLIP  OB425546   0.790   2.358  11.621
    1ECLIP   PB25547   0.921   2.451  11.669
    1ECLIP OPB425548   0.992   2.379  11.785
    1ECLIP OPB325549   0.863   2.587  11.708
    1ECLIP OPB225550   1.008   2.456  11.545
    1ECLIP  CB325551   0.623   2.341  11.447
    1ECLIP  OB325552   0.706   2.359  11.333
    1ECLIP  HB325553   0.608   2.233  11.471
    1ECLIP  C7125554   0.807   2.279  11.311
    1ECLIP  O7125555   0.820   2.167  11.359
    1ECLIP  C7225556   0.856   2.320  11.169
    1ECLIP H72R25557   0.775   2.318  11.095
    1ECLIP H72S25558   0.913   2.245  11.121
    1ECLIP  CB225559   0.489   2.395  11.403
    1ECLIP  HB225560   0.499   2.506  11.387
    1ECLIP  NB225561   0.444   2.328  11.281
    1ECLIP HNB225562   0.392   2.244  11.292
    1ECLIP  CA425563   0.085   2.477  11.325
    1ECLIP  HA425564   0.142   2.394  11.286
    1ECLIP  OA425565  -0.005   2.415  11.423
    1ECLIP HOA425566   0.013   2.467  11.502
    1ECLIP  CA525567   0.171   2.591  11.376
    1ECLIP  HA525568   0.117   2.690  11.395
    1ECLIP  OA525569   0.272   2.619  11.277
    1ECLIP  CA125570   0.217   2.666  11.153
    1ECLIP  HA125571   0.300   2.655  11.081
    1ECLIP  OA125572   0.190   2.802  11.146
    1ECLIP OPA225573   0.221   2.964  11.338
    1ECLIP OPA325574   0.419   2.858  11.227
    1ECLIP OPA425575   0.284   3.032  11.101
    1ECLIP   PA25576   0.284   2.920  11.205
    1ECLIP  CA325577   0.039   2.530  11.201
    1ECLIP  HA325578  -0.009   2.624  11.243
    1ECLIP  OA325579  -0.021   2.439  11.112
    1ECLIP  C3125580  -0.030   2.315  11.073
    1ECLIP  O3125581  -0.032   2.293  10.953
    1ECLIP  C3225582  -0.085   2.209  11.165
    1ECLIP H32R25583  -0.168   2.158  11.108
    1ECLIP H32S25584  -0.131   2.240  11.260
    1ECLIP  CA225585   0.131   2.566  11.090
    1ECLIP  HA225586   0.188   2.474  11.068
    1ECLIP  NA225587   0.072   2.612  10.957
    1ECLIP HNA225588  -0.029   2.614  10.948
    1ECLIP  C7325589   0.929   2.455  11.167
    1ECLIP H73R25590   0.993   2.462  11.260
    1ECLIP  O7325591   0.822   2.545  11.166
    1ECLIP  C8125592   0.831   2.659  11.232
    1ECLIP  O8125593   0.930   2.697  11.292
    1ECLIP  C8225594   0.725   2.752  11.171
    1ECLIP H82R25595   0.729   2.850  11.223
    1ECLIP H82S25596   0.625   2.709  11.192
    1ECLIP  C8325597   0.739   2.772  11.017
    1ECLIP H83R25598   0.692   2.685  10.965
    1ECLIP H83S25599   0.846   2.774  10.990
    1ECLIP  C8425600   0.666   2.897  10.965
    1ECLIP H84R25601   0.718   2.989  10.996
    1ECLIP H84S25602   0.564   2.895  11.013
    1ECLIP  C8525603   0.644   2.894  10.813
    1ECLIP H85R25604   0.612   2.790  10.791
    1ECLIP H85S25605   0.739   2.911  10.760
    1ECLIP  C8625606   0.529   2.986  10.765
    1ECLIP H86R25607   0.566   3.086  10.735
    1ECLIP H86S25608   0.457   3.001  10.849
    1ECLIP  C8725609   0.445   2.921  10.652
    1ECLIP H87R25610   0.369   2.994  10.616
    1ECLIP H87S25611   0.389   2.835  10.694
    1ECLIP  C8825612   0.532   2.867  10.538
    1ECLIP H88R25613   0.579   2.772  10.571
    1ECLIP H88S25614   0.617   2.938  10.524
    1ECLIP  C8925615   0.454   2.842  10.408
    1ECLIP H89R25616   0.345   2.832  10.426
    1ECLIP H89S25617   0.486   2.746  10.362
    1ECLIP C81025618   0.484   2.953  10.307
    1ECLIPH810R25619   0.586   2.990  10.330
    1ECLIPH810S25620   0.411   3.035  10.323
    1ECLIP C81125621   0.480   2.907  10.161
    1ECLIPH811R25622   0.463   2.992  10.091
    1ECLIPH811S25623   0.395   2.836  10.158
    1ECLIP C81225624   0.600   2.826  10.110
    1ECLIPH812R25625   0.574   2.789  10.008
    1ECLIPH812S25626   0.617   2.740  10.177
    1ECLIP C81325627   0.732   2.903  10.100
    1ECLIPH813R25628   0.717   2.988  10.029
    1ECLIPH813S25629   0.761   2.946  10.199
    1ECLIP C81425630   0.846   2.816  10.049
    1ECLIPH814R25631   0.818   2.759   9.958
    1ECLIPH814S25632   0.876   2.744  10.128
    1ECLIPH814T25633   0.934   2.879  10.025
    1ECLIP  C7425634   1.018   2.490  11.043
    1ECLIP H74R25635   1.105   2.435  11.007
    1ECLIP H74S25636   1.061   2.590  11.068
    1ECLIP  C7525637   0.943   2.491  10.911
    1ECLIP H75R25638   0.993   2.572  10.852
    1ECLIP H75S25639   0.838   2.518  10.931
    1ECLIP  C7625640   0.949   2.360  10.832
    1ECLIP H76R25641   0.876   2.287  10.874
    1ECLIP H76S25642   1.049   2.310  10.835
    1ECLIP  C7725643   0.913   2.380  10.684
    1ECLIP H77R25644   0.996   2.437  10.635
    1ECLIP H77S25645   0.822   2.439  10.669
    1ECLIP  C7825646   0.880   2.244  10.625
    1ECLIP H78R25647   0.962   2.179  10.661
    1ECLIP H78S25648   0.794   2.196  10.675
    1ECLIP  C7925649   0.849   2.243  10.473
    1ECLIP H79R25650   0.741   2.233  10.453
    1ECLIP H79S25651   0.888   2.146  10.439
    1ECLIP C71025652   0.914   2.351  10.384
    1ECLIPH710R25653   0.888   2.450  10.424
    1ECLIPH710S25654   1.025   2.344  10.384
    1ECLIP C71125655   0.868   2.350  10.237
    1ECLIPH711R25656   0.890   2.255  10.189
    1ECLIPH711S25657   0.759   2.357  10.230
    1ECLIP C71225658   0.936   2.463  10.159
    1ECLIPH712R25659   1.047   2.451  10.162
    1ECLIPH712S25660   0.912   2.555  10.218
    1ECLIP C71325661   0.886   2.477  10.015
    1ECLIPH713R25662   0.776   2.495  10.020
    1ECLIPH713S25663   0.933   2.566   9.968
    1ECLIP C71425664   0.916   2.359   9.923
    1ECLIPH714R25665   1.025   2.345   9.914
    1ECLIPH714S25666   0.868   2.265   9.958
    1ECLIPH714T25667   0.878   2.382   9.821
    1ECLIP  C5125668   0.476   2.372  11.159
    1ECLIP  O5125669   0.523   2.483  11.143
    1ECLIP  C5225670   0.460   2.278  11.042
    1ECLIP H52R25671   0.551   2.216  11.029
    1ECLIP H52S25672   0.375   2.211  11.061
    1ECLIP  C5325673   0.434   2.358  10.912
    1ECLIP H53R25674   0.374   2.450  10.934
    1ECLIP  O5325675   0.368   2.268  10.821
    1ECLIP  C6125676   0.242   2.292  10.788
    1ECLIP  O6125677   0.178   2.389  10.819
    1ECLIP  C6225678   0.191   2.182  10.695
    1ECLIP H62R25679   0.158   2.096  10.758
    1ECLIP H62S25680   0.279   2.148  10.637
    1ECLIP  C6325681   0.075   2.232  10.605
    1ECLIP H63R25682   0.101   2.332  10.563
    1ECLIP H63S25683  -0.015   2.243  10.667
    1ECLIP  C6425684   0.038   2.142  10.486
    1ECLIP H64R25685  -0.049   2.183  10.431
    1ECLIP H64S25686   0.010   2.042  10.528
    1ECLIP  C6525687   0.154   2.132  10.389
    1ECLIP H65R25688   0.234   2.085  10.450
    1ECLIP H65S25689   0.186   2.233  10.358
    1ECLIP  C6625690   0.136   2.044  10.264
    1ECLIP H66R25691   0.108   1.942  10.292
    1ECLIP H66S25692   0.237   2.043  10.215
    1ECLIP  C6725693   0.040   2.091  10.157
    1ECLIP H67R25694  -0.063   2.115  10.194
    1ECLIP H67S25695   0.028   2.016  10.075
    1ECLIP  C6825696   0.088   2.216  10.094
    1ECLIP H68R25697   0.190   2.222  10.051
    1ECLIP H68S25698   0.072   2.301  10.165
    1ECLIP  C6925699   0.009   2.225   9.972
    1ECLIP H69R25700  -0.087   2.178   9.961
    1ECLIP H69S25701   0.055   2.172   9.888
    1ECLIP C61025702   0.005   2.365   9.963
    1ECLIPH610R25703   0.109   2.397   9.959
    1ECLIPH610S25704  -0.056   2.437  10.024
    1ECLIP C61125705  -0.050   2.376   9.837
    1ECLIPH611R25706  -0.136   2.322   9.825
    1ECLIPH611S25707  -0.113   2.458   9.842
    1ECLIP C61225708   0.059   2.356   9.747
    1ECLIPH612R25709   0.114   2.440   9.704
    1ECLIPH612S25710   0.080   2.252   9.717
    1ECLIPH612T25711   0.004   2.346   9.671
    1ECLIP  C5425712   0.571   2.400  10.853
    1ECLIP H54R25713   0.624   2.306  10.825
    1ECLIP H54S25714   0.630   2.448  10.934
    1ECLIP  C5525715   0.569   2.496  10.733
    1ECLIP H55R25716   0.669   2.541  10.719
    1ECLIP H55S25717   0.501   2.581  10.756
    1ECLIP  C5625718   0.532   2.419  10.605
    1ECLIP H56R25719   0.435   2.369  10.622
    1ECLIP H56S25720   0.607   2.339  10.587
    1ECLIP  C5725721   0.512   2.499  10.477
    1ECLIP H57R25722   0.601   2.562  10.454
    1ECLIP H57S25723   0.426   2.567  10.491
    1ECLIP  C5825724   0.481   2.402  10.360
    1ECLIP H58R25725   0.552   2.317  10.358
    1ECLIP H58S25726   0.382   2.357  10.382
    1ECLIP  C5925727   0.484   2.472  10.223
    1ECLIP H59R25728   0.583   2.521  10.208
    1ECLIP H59S25729   0.408   2.553  10.232
    1ECLIP C51025730   0.465   2.379  10.101
    1ECLIPH510R25731   0.381   2.309  10.119
    1ECLIPH510S25732   0.557   2.318  10.088
    1ECLIP C51125733   0.439   2.451   9.967
    1ECLIPH511R25734   0.333   2.481   9.964
    1ECLIPH511S25735   0.502   2.542   9.959
    1ECLIP C51225736   0.469   2.367   9.842
    1ECLIPH512R25737   0.474   2.432   9.751
    1ECLIPH512S25738   0.562   2.308   9.849
    1ECLIP C51325739   0.360   2.275   9.802
    1ECLIPH513R25740   0.268   2.329   9.798
    1ECLIPH513S25741   0.336   2.194   9.875
    1ECLIP C51425742   0.393   2.230   9.663
    1ECLIPH514R25743   0.478   2.158   9.661
    1ECLIPH514S25744   0.298   2.182   9.633
    1ECLIPH514T25745   0.400   2.291   9.577
    1ECLIP  C3325746   0.028   2.107  11.183
    1ECLIP H33R25747  -0.017   2.013  11.221
    1ECLIP  O3325748   0.118   2.158  11.280
    1ECLIP HO3325749   0.083   2.156  11.367
    1ECLIP  C3425750   0.109   2.074  11.056
    1ECLIP H34R25751   0.156   2.167  11.017
    1ECLIP H34S25752   0.038   2.037  10.978
    1ECLIP  C3525753   0.220   1.971  11.080
    1ECLIP H35R25754   0.174   1.874  11.111
    1ECLIP H35S25755   0.284   2.008  11.163
    1ECLIP  C3625756   0.308   1.948  10.957
    1ECLIP H36R25757   0.307   2.043  10.903
    1ECLIP H36S25758   0.264   1.870  10.891
    1ECLIP  C3725759   0.455   1.914  10.989
    1ECLIP H37R25760   0.465   1.804  11.004
    1ECLIP H37S25761   0.483   1.960  11.086
    1ECLIP  C3825762   0.554   1.956  10.879
    1ECLIP H38R25763   0.573   2.065  10.879
    1ECLIP H38S25764   0.650   1.907  10.904
    1ECLIP  C3925765   0.509   1.915  10.738
    1ECLIP H39R25766   0.408   1.957  10.718
    1ECLIP H39S25767   0.505   1.803  10.735
    1ECLIP C31025768   0.600   1.960  10.623
    1ECLIPH310R25769   0.692   1.899  10.632
    1ECLIPH310S25770   0.627   2.067  10.632
    1ECLIP C31125771   0.528   1.947  10.488
    1ECLIPH311R25772   0.461   1.858  10.489
    1ECLIPH311S25773   0.464   2.037  10.473
    1ECLIP C31225774   0.622   1.941  10.366
    1ECLIPH312R25775   0.711   2.005  10.385
    1ECLIPH312S25776   0.655   1.836  10.354
    1ECLIP C31325777   0.552   1.987  10.237
    1ECLIPH313R25778   0.480   1.906  10.211
    1ECLIPH313S25779   0.494   2.080  10.254
    1ECLIP C31425780   0.647   2.008  10.118
    1ECLIPH314R25781   0.701   1.914  10.096
    1ECLIPH314S25782   0.591   2.039  10.027
    1ECLIPH314T25783   0.721   2.088  10.141
    1ECLIP  C1125784   0.135   2.686  10.862
    1ECLIP  O1125785   0.256   2.686  10.845
    1ECLIP  C1225786   0.052   2.770  10.773
    1ECLIP H12R25787   0.051   2.877  10.799
    1ECLIP H12S25788  -0.052   2.731  10.780
    1ECLIP  C1325789   0.094   2.750  10.631
    1ECLIP H13R25790   0.199   2.736  10.606
    1ECLIP  O1325791   0.061   2.869  10.564
    1ECLIP HO1325792   0.061   2.867  10.468
    1ECLIP  C1425793   0.022   2.629  10.584
    1ECLIP H14R25794  -0.081   2.632  10.626
    1ECLIP H14S25795   0.072   2.537  10.620
    1ECLIP  C1525796   0.020   2.614  10.437
    1ECLIP H15R25797  -0.058   2.681  10.394
    1ECLIP H15S25798  -0.002   2.507  10.430
    1ECLIP  C1625799   0.136   2.583  10.356
    1ECLIP H16R25800   0.167   2.476  10.361
    1ECLIP H16S25801   0.209   2.650  10.401
    1ECLIP  C1725802   0.097   2.617  10.217
    1ECLIP H17R25803   0.003   2.567  10.182
    1ECLIP H17S25804   0.182   2.574  10.165
    1ECLIP  C1825805   0.093   2.771  10.214
    1ECLIP H18R25806  -0.003   2.800  10.265
    1ECLIP H18S25807   0.184   2.820  10.246
    1ECLIP  C1925808   0.080   2.839  10.084
    1ECLIP H19R25809   0.035   2.935  10.068
    1ECLIP H19S25810  -0.003   2.763  10.074
    1ECLIP C11025811   0.198   2.863   9.982
    1ECLIPH110R25812   0.297   2.873  10.008
    1ECLIPH110S25813   0.242   2.765  10.006
    1ECLIP C11125814   0.172   2.912   9.824
    1ECLIPH111R25815   0.064   2.875   9.826
    1ECLIPH111S25816   0.130   3.009   9.800
    1ECLIP C11225817   0.280   2.875   9.689
    1ECLIPH112R25818   0.381   2.853   9.722
    1ECLIPH112S25819   0.315   2.770   9.657
    1ECLIP C11325820   0.239   2.881   9.533
    1ECLIPH113R25821   0.184   2.800   9.481
    1ECLIPH113S25822   0.153   2.945   9.518
    1ECLIP C11425823   0.333   2.829   9.429
    1ECLIPH114R25824   0.425   2.882   9.447
    1ECLIPH114S25825   0.348   2.721   9.458
    1ECLIPH114T25826   0.282   2.850   9.330
    2AKDO    C125827   0.547   2.249  11.979
    2AKDO   O1125828   0.663   2.201  11.976
    2AKDO   O1225829   0.439   2.189  11.947
    2AKDO    C225830   0.531   2.397  12.023
    2AKDO    C625831   0.645   2.585  12.122
    2AKDO    H625832   0.611   2.641  12.031
    2AKDO    O625833   0.653   2.447  12.082
    2AKDO    C325834   0.422   2.415  12.128
    2AKDO   H3125835   0.439   2.347  12.214
    2AKDO   H3225836   0.325   2.388  12.081
    2AKDO    C425837   0.412   2.557  12.172
    2AKDO    H425838   0.392   2.623  12.085
    2AKDO    O425839   0.315   2.574  12.274
    2AKDO    C525840   0.540   2.606  12.232
    2AKDO    H525841   0.529   2.716  12.245
    2AKDO    O525842   0.556   2.539  12.362
    2AKDO    C725843   0.783   2.641  12.153
    2AKDO    H725844   0.818   2.594  12.245
    2AKDO    O725845   0.778   2.782  12.175
    2AKDO   HO725846   0.776   2.818  12.087
    2AKDO    C825847   0.879   2.612  12.039
    2AKDO   H8125848   0.878   2.501  12.022
    2AKDO   H8225849   0.839   2.658  11.945
    2AKDO    O825850   1.014   2.659  12.065
    2AKDO   HO825851   1.069   2.588  12.028
    3AKDO    C125852   0.161   2.681  12.112
    3AKDO   O1125853   0.161   2.628  11.998
    3AKDO   O1225854   0.165   2.803  12.143
    3AKDO    C225855   0.184   2.585  12.232
    3AKDO    C625856   0.150   2.361  12.310
    3AKDO    H625857   0.256   2.344  12.331
    3AKDO    O625858   0.126   2.456  12.203
    3AKDO    C325859   0.125   2.637  12.360
    3AKDO   H3125860   0.028   2.657  12.312
    3AKDO   H3225861   0.155   2.738  12.393
    3AKDO    C425862   0.147   2.541  12.474
    3AKDO    H425863   0.254   2.519  12.487
    3AKDO    O425864   0.097   2.581  12.601
    3AKDO   HO425865   0.163   2.576  12.672
    3AKDO    C525866   0.092   2.411  12.433
    3AKDO    H525867   0.110   2.340  12.516
    3AKDO    O525868  -0.040   2.411  12.402
    3AKDO   HO525869  -0.073   2.484  12.348
    3AKDO    C725870   0.090   2.231  12.264
    3AKDO    H725871  -0.011   2.262  12.223
    3AKDO    O725872   0.095   2.129  12.366
    3AKDO   HO725873   0.030   2.060  12.367
    3AKDO    C825874   0.168   2.182  12.149
    3AKDO   H8125875   0.166   2.265  12.075
    3AKDO   H8225876   0.272   2.163  12.175
    3AKDO    O825877   0.109   2.066  12.088
    3AKDO   HO825878   0.025   2.112  12.064
    4AHEP    C125879   0.626   2.612  12.461
    4AHEP    H125880   0.731   2.607  12.427
    4AHEP    C525881   0.470   2.780  12.536
    4AHEP    H525882   0.391   2.719  12.487
    4AHEP    O525883   0.594   2.751  12.467
    4AHEP    C225884   0.632   2.561  12.607
    4AHEP    H225885   0.649   2.451  12.605
    4AHEP    O225886   0.747   2.616  12.671
    4AHEP   HO225887   0.786   2.553  12.731
    4AHEP    C325888   0.505   2.585  12.686
    4AHEP    H325889   0.419   2.527  12.646
    4AHEP    O325890   0.527   2.549  12.824
    4AHEP    C425891   0.477   2.734  12.682
    4AHEP    H425892   0.557   2.793  12.733
    4AHEP    O425893   0.349   2.753  12.742
    4AHEP    P425894   0.330   2.836  12.884
    4AHEP  OP4225895   0.208   2.767  12.945
    4AHEP  OP4325896   0.306   2.982  12.839
    4AHEP  OP4425897   0.458   2.816  12.964
    4AHEP    C625898   0.437   2.930  12.515
    4AHEP    H625899   0.329   2.942  12.545
    4AHEP    O625900   0.516   3.018  12.599
    4AHEP   HO625901   0.454   3.058  12.661
    4AHEP    C725902   0.451   2.980  12.370
    4AHEP   H7125903   0.400   3.078  12.357
    4AHEP   H7225904   0.405   2.906  12.301
    4AHEP    O725905   0.585   3.002  12.323
    4AHEP   HO725906   0.613   3.076  12.380
    5AHEP    C125907   0.443   2.452  12.882
    5AHEP    H125908   0.342   2.452  12.835
    5AHEP    C525909   0.629   2.311  12.934
    5AHEP    H525910   0.693   2.395  12.897
    5AHEP    O525911   0.502   2.321  12.865
    5AHEP    C225912   0.424   2.477  13.033
    5AHEP    H225913   0.384   2.580  13.045
    5AHEP    O225914   0.325   2.386  13.085
    5AHEP   HO225915   0.242   2.432  13.099
    5AHEP    C325916   0.556   2.468  13.109
    5AHEP    H325917   0.626   2.545  13.068
    5AHEP    O325918   0.546   2.485  13.253
    5AHEP    C425919   0.614   2.330  13.083
    5AHEP    H425920   0.544   2.251  13.120
    5AHEP    O425921   0.745   2.321  13.140
    5AHEP    P425922   0.770   2.217  13.267
    5AHEP  OP4225923   0.907   2.258  13.321
    5AHEP  OP4325924   0.775   2.077  13.204
    5AHEP  OP4425925   0.658   2.237  13.367
    5AHEP    C625926   0.700   2.180  12.896
    5AHEP    H625927   0.801   2.180  12.942
    5AHEP    O625928   0.633   2.060  12.936
    5AHEP   HO625929   0.548   2.051  12.893
    5AHEP    C725930   0.720   2.179  12.748
    5AHEP   H7125931   0.823   2.143  12.734
    5AHEP   H7225932   0.727   2.280  12.707
    5AHEP    O725933   0.629   2.093  12.679
    6AHEP    C125934   0.528   2.165  12.615
    6AHEP    H125935   0.533   2.273  12.639
    6AHEP    C525936   0.536   2.017  12.431
    6AHEP    H525937   0.612   1.960  12.489
    6AHEP    O525938   0.545   2.154  12.474
    6AHEP    C225939   0.394   2.115  12.659
    6AHEP    H225940   0.388   2.124  12.770
    6AHEP    O225941   0.292   2.202  12.609
    6AHEP   HO225942   0.246   2.239  12.685
    6AHEP    C325943   0.379   1.969  12.621
    6AHEP    H325944   0.456   1.908  12.675
    6AHEP    O325945   0.251   1.928  12.665
    6AHEP   HO325946   0.249   1.852  12.727
    6AHEP    C425947   0.401   1.958  12.470
    6AHEP    H425948   0.319   2.011  12.417
    6AHEP    O425949   0.397   1.825  12.421
    6AHEP   HO425950   0.472   1.776  12.457
    6AHEP    C625951   0.573   1.996  12.285
    6AHEP    H625952   0.581   1.886  12.268
    6AHEP    O625953   0.470   2.039  12.196
    6AHEP   HO625954   0.512   2.107  12.138
    6AHEP    C725955   0.712   2.050  12.251
    6AHEP   H7125956   0.743   2.017  12.149
    6AHEP   H7225957   0.788   2.010  12.321
    6AHEP    O725958   0.721   2.190  12.264
    6AHEP   HO725959   0.747   2.209  12.354
    7AGLC    C125960   0.564   2.615  13.302
    7AGLC    H125961   0.651   2.665  13.252
    7AGLC    C525962   0.330   2.641  13.346
    7AGLC    H525963   0.314   2.535  13.318
    7AGLC    O525964   0.447   2.692  13.279
    7AGLC    C225965   0.588   2.624  13.453
    7AGLC    H225966   0.587   2.732  13.479
    7AGLC    O225967   0.717   2.578  13.493
    7AGLC   HO225968   0.715   2.481  13.492
    7AGLC    C325969   0.476   2.564  13.534
    7AGLC    H325970   0.464   2.461  13.497
    7AGLC    O325971   0.503   2.559  13.676
    7AGLC    C425972   0.352   2.647  13.497
    7AGLC    H425973   0.370   2.753  13.528
    7AGLC    O425974   0.237   2.595  13.562
    7AGLC   HO425975   0.184   2.659  13.607
    7AGLC    C625976   0.211   2.717  13.286
    7AGLC   H6125977   0.211   2.699  13.176
    7AGLC   H6225978   0.114   2.677  13.324
    7AGLC    O625979   0.216   2.858  13.309
    7AGLC   HO625980   0.174   2.869  13.391
    8AGLC    C125981   0.505   2.426  13.728
    8AGLC    H125982   0.419   2.370  13.688
    8AGLC    C525983   0.747   2.400  13.758
    8AGLC    H525984   0.760   2.506  13.725
    8AGLC    O525985   0.625   2.352  13.696
    8AGLC    C225986   0.488   2.423  13.880
    8AGLC    H225987   0.480   2.315  13.907
    8AGLC    O225988   0.369   2.486  13.930
    8AGLC    C325989   0.608   2.481  13.949
    8AGLC    H325990   0.620   2.585  13.909
    8AGLC    O325991   0.579   2.488  14.090
    8AGLC    C425992   0.728   2.398  13.909
    8AGLC    H425993   0.709   2.292  13.940
    8AGLC    O425994   0.846   2.441  13.974
    8AGLC   HO425995   0.847   2.537  13.974
    8AGLC    C625996   0.875   2.327  13.711
    8AGLC   H6125997   0.877   2.317  13.600
    8AGLC   H6225998   0.965   2.388  13.738
    8AGLC    O625999   0.894   2.199  13.772
    8AGLC   HO626000   0.934   2.218  13.857
    9AGAL    C126001   0.246   2.444  13.877
    9AGAL    H126002   0.248   2.443  13.767
    9AGAL    C526003   0.194   2.308  14.065
    9AGAL    H526004   0.285   2.350  14.111
    9AGAL    O526005   0.209   2.312  13.922
    9AGAL    C226006   0.145   2.550  13.920
    9AGAL    H226007   0.047   2.519  13.875
    9AGAL    O226008   0.180   2.675  13.856
    9AGAL    C326009   0.134   2.544  14.072
    9AGAL    H326010   0.230   2.564  14.121
    9AGAL    O326011   0.065   2.645  14.136
    9AGAL   HO326012   0.049   2.705  14.061
    9AGAL    C426013   0.088   2.407  14.109
    9AGAL    H426014   0.070   2.407  14.217
    9AGAL    O426015  -0.029   2.371  14.042
    9AGAL   HO426016  -0.081   2.315  14.104
    9AGAL    C626017   0.186   2.164  14.120
    9AGAL   H6126018   0.279   2.109  14.096
    9AGAL   H6226019   0.181   2.167  14.230
    9AGAL    O626020   0.078   2.084  14.075
    9AGAL   HO626021   0.105   2.023  14.005
   10AGAL    C126022   0.167   2.804  13.912
   10AGAL    H126023   0.059   2.830  13.921
   10AGAL    C526024   0.372   2.807  14.041
   10AGAL    H526025   0.387   2.704  14.001
   10AGAL    O526026   0.230   2.828  14.040
   10AGAL    C226027   0.230   2.897  13.810
   10AGAL    H226028   0.214   3.000  13.851
   10AGAL    O226029   0.164   2.901  13.681
   10AGAL   HO226030   0.178   2.994  13.670
   10AGAL    C326031   0.381   2.875  13.805
   10AGAL    H326032   0.398   2.768  13.780
   10AGAL    O326033   0.441   2.955  13.702
   10AGAL   HO326034   0.486   2.897  13.639
   10AGAL    C426035   0.440   2.901  13.943
   10AGAL    H426036   0.549   2.878  13.944
   10AGAL    O426037   0.422   3.037  13.981
   10AGAL   HO426038   0.330   3.047  14.005
   10AGAL    C626039   0.440   2.801  14.179
   10AGAL   H6126040   0.382   2.734  14.246
   10AGAL   H6226041   0.541   2.756  14.164
   10AGAL    O626042   0.459   2.924  14.248
   10AGAL   HO626043   0.401   2.932  14.325
   11BGLC    C126044   0.619   2.388  14.184
   11BGLC    H126045   0.729   2.394  14.198
   11BGLC    C526046   0.605   2.153  14.248
   11BGLC    H526047   0.714   2.148  14.273
   11BGLC    O526048   0.574   2.255  14.148
   11BGLC    C226049   0.550   2.427  14.315
   11BGLC    H226050   0.439   2.430  14.300
   11BGLC    O226051   0.588   2.558  14.357
   11BGLC   HO226052   0.511   2.614  14.365
   11BGLC    C326053   0.576   2.329  14.427
   11BGLC    H326054   0.684   2.329  14.453
   11BGLC    O326055   0.494   2.364  14.541
   11BGLC    C426056   0.530   2.193  14.377
   11BGLC    H426057   0.422   2.200  14.353
   11BGLC    O426058   0.541   2.095  14.477
   11BGLC   HO426059   0.481   2.114  14.552
   11BGLC    C626060   0.569   2.016  14.188
   11BGLC   H6126061   0.555   1.937  14.266
   11BGLC   H6226062   0.475   2.024  14.129
   11BGLC    O626063   0.666   1.965  14.097
   11BGLC   HO626064   0.716   1.893  14.135
   12BGLCN   C126065   0.555   2.382  14.667
   12BGLCN   H126066   0.597   2.485  14.673
   12BGLCN   C526067   0.721   2.314  14.822
   12BGLCN   H526068   0.763   2.416  14.830
   12BGLCN   O526069   0.660   2.290  14.694
   12BGLCN   C226070   0.446   2.364  14.771
   12BGLCN   H226071   0.417   2.255  14.767
   12BGLCN    N26072   0.336   2.451  14.739
   12BGLCN   HN26073   0.359   2.547  14.733
   12BGLCN    C26074   0.212   2.407  14.725
   12BGLCN    O26075   0.184   2.290  14.742
   12BGLCN   CT26076   0.106   2.508  14.689
   12BGLCN  HT126077   0.041   2.528  14.776
   12BGLCN  HT226078   0.042   2.468  14.607
   12BGLCN  HT326079   0.154   2.603  14.658
   12BGLCN   C326080   0.497   2.391  14.911
   12BGLCN   H326081   0.532   2.496  14.917
   12BGLCN   O326082   0.394   2.376  15.012
   12BGLCN   C426083   0.614   2.296  14.929
   12BGLCN   H426084   0.575   2.193  14.912
   12BGLCN   O426085   0.670   2.304  15.058
   12BGLCN  HO426086   0.716   2.388  15.068
   12BGLCN   C626087   0.837   2.217  14.832
   12BGLCN  H6126088   0.889   2.220  14.929
   12BGLCN  H6226089   0.796   2.116  14.822
   12BGLCN   O626090   0.931   2.232  14.726
   12BGLCN  HO626091   0.993   2.302  14.746
   13AGAL    C126092   0.397   2.471  15.120
   13AGAL    H126093   0.503   2.486  15.152
   13AGAL    C526094   0.192   2.582  15.063
   13AGAL    H526095   0.180   2.498  14.990
   13AGAL    O526096   0.334   2.596  15.083
   13AGAL    C226097   0.324   2.425  15.247
   13AGAL    H226098   0.329   2.513  15.316
   13AGAL    O226099   0.391   2.316  15.311
   13AGAL    C326100   0.175   2.405  15.225
   13AGAL    H326101   0.159   2.337  15.138
   13AGAL    O326102   0.109   2.346  15.336
   13AGAL   HO326103   0.043   2.281  15.309
   13AGAL    C426104   0.116   2.538  15.188
   13AGAL    H426105   0.010   2.522  15.159
   13AGAL    O426106   0.115   2.633  15.295
   13AGAL   HO426107   0.201   2.638  15.337
   13AGAL    C626108   0.125   2.697  14.991
   13AGAL   H6126109   0.180   2.719  14.897
   13AGAL   H6226110   0.020   2.667  14.967
   13AGAL    O626111   0.118   2.816  15.069
   13AGAL   HO626112   0.047   2.808  15.134
   14ARHM    C126113   0.452   2.343  15.436
   14ARHM    H126114   0.481   2.450  15.439
   14ARHM    C526115   0.544   2.125  15.454
   14ARHM    H526116   0.495   2.102  15.357
   14ARHM    O526117   0.571   2.266  15.456
   14ARHM    C226118   0.353   2.312  15.547
   14ARHM    H226119   0.262   2.372  15.527
   14ARHM    O226120   0.396   2.335  15.683
   14ARHM    C326121   0.320   2.165  15.542
   14ARHM    H326122   0.289   2.138  15.439
   14ARHM    O326123   0.211   2.131  15.628
   14ARHM   HO326124   0.240   2.131  15.719
   14ARHM    C426125   0.449   2.087  15.569
   14ARHM    H426126   0.497   2.120  15.664
   14ARHM    O426127   0.425   1.946  15.577
   14ARHM   HO426128   0.432   1.911  15.667
   14ARHM    C626129   0.679   2.053  15.461
   14ARHM   H6126130   0.755   2.099  15.394
   14ARHM   H6226131   0.714   2.056  15.566
   14ARHM   H6326132   0.672   1.947  15.431
   15ARHM    C126133   0.449   2.462  15.711
   15ARHM    H126134   0.407   2.537  15.640
   15ARHM    C526135   0.663   2.385  15.800
   15ARHM    H526136   0.643   2.277  15.780
   15ARHM    O526137   0.594   2.467  15.705
   15ARHM    C226138   0.404   2.500  15.850
   15ARHM    H226139   0.294   2.489  15.857
   15ARHM    O226140   0.439   2.639  15.866
   15ARHM    C326141   0.467   2.407  15.950
   15ARHM    H326142   0.445   2.302  15.920
   15ARHM    O326143   0.406   2.432  16.076
   15ARHM    C426144   0.618   2.423  15.940
   15ARHM    H426145   0.636   2.531  15.954
   15ARHM    O426146   0.695   2.353  16.036
   15ARHM   HO426147   0.784   2.390  16.033
   15ARHM    C626148   0.815   2.407  15.782
   15ARHM   H6126149   0.875   2.335  15.841
   15ARHM   H6226150   0.839   2.400  15.674
   15ARHM   H6326151   0.843   2.507  15.818
   16BMANN   C126152   0.409   2.707  15.987
   16BMANN   H126153   0.475   2.667  16.067
   16BMANN   C526154   0.248   2.758  16.156
   16BMANN   H526155   0.319   2.716  16.231
   16BMANN   O526156   0.272   2.694  16.028
   16BMANN   C226157   0.441   2.855  15.967
   16BMANN   H226158   0.549   2.860  15.939
   16BMANN    N26159   0.365   2.921  15.861
   16BMANN   HN26160   0.282   2.966  15.891
   16BMANN    C26161   0.403   2.935  15.734
   16BMANN    O26162   0.506   2.889  15.688
   16BMANN   CT26163   0.305   3.007  15.644
   16BMANN  HT126164   0.340   3.109  15.622
   16BMANN  HT226165   0.205   3.011  15.690
   16BMANN  HT326166   0.298   2.952  15.548
   16BMANN   C326167   0.419   2.925  16.100
   16BMANN   H326168   0.486   2.876  16.175
   16BMANN   O326169   0.456   3.063  16.096
   16BMANN  HO326170   0.521   3.080  16.163
   16BMANN   C426171   0.275   2.907  16.147
   16BMANN   H426172   0.205   2.952  16.073
   16BMANN   O426173   0.244   2.969  16.272
   16BMANN  HO426174   0.149   2.983  16.281
   16BMANN   C626175   0.109   2.732  16.212
   16BMANN  H6126176   0.116   2.736  16.323
   16BMANN  H6226177   0.039   2.811  16.179
   16BMANN   O626178   0.053   2.607  16.174
   16BMANN  HO626179  -0.027   2.623  16.121
   17BGLCN   C126180   0.382   2.316  16.151
   17BGLCN   H126181   0.466   2.245  16.134
   17BGLCN   C526182   0.233   2.133  16.193
   17BGLCN   H526183   0.313   2.058  16.173
   17BGLCN   O526184   0.260   2.251  16.115
   17BGLCN   C226185   0.376   2.365  16.294
   17BGLCN   H226186   0.289   2.433  16.311
   17BGLCN    N26187   0.495   2.441  16.325
   17BGLCN   HN26188   0.576   2.416  16.273
   17BGLCN    C26189   0.508   2.536  16.418
   17BGLCN    O26190   0.416   2.582  16.485
   17BGLCN   CT26191   0.651   2.580  16.439
   17BGLCN  HT126192   0.673   2.671  16.383
   17BGLCN  HT226193   0.719   2.500  16.405
   17BGLCN  HT326194   0.669   2.595  16.548
   17BGLCN   C326195   0.359   2.241  16.380
   17BGLCN   H326196   0.440   2.172  16.346
   17BGLCN   O326197   0.378   2.272  16.520
   17BGLCN   C426198   0.227   2.176  16.340
   17BGLCN   H426199   0.148   2.254  16.346
   17BGLCN   O426200   0.191   2.069  16.429
   17BGLCN  HO426201   0.106   2.029  16.405
   17BGLCN   C626202   0.107   2.062  16.148
   17BGLCN  H6126203   0.117   1.959  16.160
   17BGLCN  H6226204   0.026   2.076  16.223
   17BGLCN   O626205   0.065   2.087  16.013
   17BGLCN  HO626206   0.136   2.078  15.949
   18AGAL    C126207   0.443   2.173  16.599
   18AGAL    H126208   0.370   2.092  16.618
   18AGAL    C526209   0.664   2.212  16.521
   18AGAL    H526210   0.623   2.304  16.477
   18AGAL    O526211   0.557   2.117  16.534
   18AGAL    C226212   0.493   2.224  16.733
   18AGAL    H226213   0.542   2.133  16.776
   18AGAL    O226214   0.387   2.256  16.823
   18AGAL    C326215   0.603   2.329  16.720
   18AGAL    H326216   0.567   2.410  16.653
   18AGAL    O326217   0.638   2.391  16.844
   18AGAL   HO326218   0.643   2.487  16.833
   18AGAL    C426219   0.721   2.263  16.652
   18AGAL    H426220   0.802   2.336  16.630
   18AGAL    O426221   0.778   2.160  16.730
   18AGAL   HO426222   0.825   2.202  16.804
   18AGAL    C626223   0.756   2.167  16.413
   18AGAL   H6126224   0.697   2.163  16.319
   18AGAL   H6226225   0.839   2.240  16.400
   18AGAL    O626226   0.803   2.035  16.434
   18AGAL   HO626227   0.763   1.993  16.511
   19ARHM    C126228   0.417   2.209  16.952
   19ARHM    H126229   0.526   2.206  16.970
   19ARHM    C526230   0.233   2.061  16.963
   19ARHM    H526231   0.211   2.096  16.860
   19ARHM    O526232   0.373   2.075  16.977
   19ARHM    C226233   0.351   2.303  17.046
   19ARHM    H226234   0.378   2.408  17.022
   19ARHM    O226235   0.392   2.276  17.181
   19ARHM    C326236   0.203   2.292  17.033
   19ARHM    H326237   0.172   2.314  16.928
   19ARHM    O326238   0.152   2.396  17.116
   19ARHM   HO326239   0.169   2.370  17.207
   19ARHM    C426240   0.160   2.148  17.062
   19ARHM    H426241   0.187   2.122  17.167
   19ARHM    O426242   0.024   2.116  17.045
   19ARHM   HO426243  -0.006   2.146  16.959
   19ARHM    C626244   0.192   1.913  16.964
   19ARHM   H6126245   0.251   1.864  16.884
   19ARHM   H6226246   0.213   1.865  17.062
   19ARHM   H6326247   0.084   1.900  16.943
   20ARHM    C126248   0.523   2.320  17.206
   20ARHM    H126249   0.561   2.384  17.123
   20ARHM    C526250   0.589   2.131  17.332
   20ARHM    H526251   0.486   2.090  17.318
   20ARHM    O526252   0.619   2.214  17.221
   20ARHM    C226253   0.517   2.404  17.331
   20ARHM    H226254   0.434   2.479  17.321
   20ARHM    O226255   0.642   2.470  17.352
   20ARHM    C326256   0.485   2.319  17.449
   20ARHM    H326257   0.386   2.269  17.433
   20ARHM    O326258   0.478   2.406  17.563
   20ARHM    C426259   0.591   2.214  17.460
   20ARHM    H426260   0.694   2.257  17.469
   20ARHM    O426261   0.568   2.133  17.574
   20ARHM   HO426262   0.600   2.047  17.548
   20ARHM    C626263   0.687   2.012  17.332
   20ARHM   H6126264   0.793   2.043  17.345
   20ARHM   H6226265   0.660   1.942  17.413
   20ARHM   H6326266   0.680   1.958  17.236
   21BMANN   C126267   0.648   2.587  17.278
   21BMANN   H126268   0.560   2.592  17.209
   21BMANN   C526269   0.748   2.707  17.102
   21BMANN   H526270   0.651   2.704  17.045
   21BMANN   O526271   0.759   2.591  17.188
   21BMANN   C226272   0.646   2.707  17.371
   21BMANN   H226273   0.551   2.696  17.429
   21BMANN    N26274   0.758   2.715  17.465
   21BMANN   HN26275   0.846   2.690  17.428
   21BMANN    C26276   0.749   2.754  17.594
   21BMANN    O26277   0.650   2.810  17.637
   21BMANN   CT26278   0.868   2.730  17.684
   21BMANN  HT126279   0.946   2.807  17.665
   21BMANN  HT226280   0.909   2.628  17.668
   21BMANN  HT326281   0.840   2.737  17.791
   21BMANN   C326282   0.636   2.828  17.282
   21BMANN   H326283   0.541   2.813  17.229
   21BMANN   O326284   0.625   2.948  17.356
   21BMANN  HO326285   0.701   2.957  17.415
   21BMANN   C426286   0.749   2.834  17.182
   21BMANN   H426287   0.844   2.841  17.238
   21BMANN   O426288   0.743   2.944  17.092
   21BMANN  HO426289   0.813   3.007  17.112
   21BMANN   C626290   0.857   2.708  16.998
   21BMANN  H6126291   0.830   2.780  16.917
   21BMANN  H6226292   0.951   2.744  17.044
   21BMANN   O626293   0.877   2.579  16.943
   21BMANN  HO626294   0.907   2.519  17.013
   22BGLCN   C126295   0.383   2.370  17.660
   22BGLCN   H126296   0.361   2.261  17.660
   22BGLCN   C526297   0.170   2.408  17.747
   22BGLCN   H526298   0.152   2.298  17.748
   22BGLCN   O526299   0.261   2.441  17.642
   22BGLCN   C226300   0.445   2.410  17.791
   22BGLCN   H226301   0.465   2.520  17.786
   22BGLCN    N26302   0.569   2.338  17.808
   22BGLCN   HN26303   0.571   2.245  17.773
   22BGLCN    C26304   0.677   2.388  17.870
   22BGLCN    O26305   0.683   2.499  17.921
   22BGLCN   CT26306   0.795   2.295  17.876
   22BGLCN  HT126307   0.860   2.322  17.790
   22BGLCN  HT226308   0.761   2.190  17.864
   22BGLCN  HT326309   0.849   2.304  17.973
   22BGLCN   C326310   0.351   2.379  17.905
   22BGLCN   H326311   0.326   2.270  17.902
   22BGLCN   O326312   0.421   2.410  18.026
   22BGLCN   C426313   0.224   2.453  17.882
   22BGLCN   H426314   0.248   2.561  17.873
   22BGLCN   O426315   0.131   2.438  17.990
   22BGLCN  HO426316   0.082   2.520  18.005
   22BGLCN   C626317   0.045   2.475  17.714
   22BGLCN  H6126318  -0.015   2.477  17.806
   22BGLCN  H6226319   0.066   2.579  17.682
   22BGLCN   O626320  -0.031   2.403  17.617
   22BGLCN  HO626321   0.011   2.396  17.531
   23AGAL    C126322   0.377   2.352  18.146
   23AGAL    H126323   0.287   2.405  18.182
   23AGAL    C526324   0.460   2.129  18.109
   23AGAL    H526325   0.510   2.168  18.018
   23AGAL    O526326   0.345   2.212  18.135
   23AGAL    C226327   0.480   2.370  18.255
   23AGAL    H226328   0.436   2.326  18.347
   23AGAL    O226329   0.507   2.510  18.279
   23AGAL    C326330   0.604   2.286  18.224
   23AGAL    H326331   0.640   2.312  18.123
   23AGAL    O326332   0.713   2.311  18.311
   23AGAL   HO326333   0.679   2.323  18.400
   23AGAL    C426334   0.563   2.139  18.222
   23AGAL    H426335   0.650   2.074  18.198
   23AGAL    O426336   0.509   2.093  18.346
   23AGAL   HO426337   0.446   2.024  18.320
   23AGAL    C626338   0.411   1.991  18.070
   23AGAL   H6126339   0.330   2.002  17.994
   23AGAL   H6226340   0.493   1.934  18.019
   23AGAL    O626341   0.360   1.917  18.181
   23AGAL   HO626342   0.326   1.832  18.151
   24ARHM    C126343   0.421   2.583  18.365
   24ARHM    H126344   0.326   2.527  18.376
   24ARHM    C526345   0.499   2.800  18.301
   24ARHM    H526346   0.565   2.748  18.230
   24ARHM    O526347   0.384   2.714  18.316
   24ARHM    C226348   0.494   2.594  18.497
   24ARHM    H226349   0.528   2.492  18.530
   24ARHM    O226350   0.410   2.654  18.597
   24ARHM    C326351   0.617   2.679  18.479
   24ARHM    H326352   0.678   2.630  18.400
   24ARHM    O326353   0.698   2.683  18.596
   24ARHM   HO326354   0.667   2.754  18.652
   24ARHM    C426355   0.573   2.817  18.432
   24ARHM    H426356   0.502   2.860  18.507
   24ARHM    O426357   0.683   2.906  18.417
   24ARHM   HO426358   0.661   2.997  18.439
   24ARHM    C626359   0.460   2.933  18.231
   24ARHM   H6126360   0.549   2.973  18.178
   24ARHM   H6226361   0.381   2.913  18.157
   24ARHM   H6326362   0.423   3.007  18.305
   25ARHM    C126363   0.314   2.569  18.651
   25ARHM    H126364   0.299   2.482  18.583
   25ARHM    C526365   0.180   2.736  18.757
   25ARHM    H526366   0.251   2.809  18.717
   25ARHM    O526367   0.184   2.628  18.661
   25ARHM    C226368   0.363   2.518  18.783
   25ARHM    H226369   0.469   2.484  18.773
   25ARHM    O226370   0.281   2.409  18.826
   25ARHM    C326371   0.362   2.632  18.882
   25ARHM    H326372   0.429   2.714  18.845
   25ARHM    O326373   0.407   2.580  19.007
   25ARHM    C426374   0.224   2.689  18.895
   25ARHM    H426375   0.151   2.611  18.927
   25ARHM    O426376   0.224   2.792  18.995
   25ARHM   HO426377   0.139   2.789  19.039
   25ARHM    C626378   0.043   2.808  18.759
   25ARHM   H6126379   0.009   2.829  18.655
   25ARHM   H6226380  -0.033   2.743  18.807
   25ARHM   H6326381   0.047   2.902  18.817
   26BMANN   C126382   0.312   2.287  18.763
   26BMANN   H126383   0.415   2.287  18.721
   26BMANN   C526384   0.260   2.125  18.598
   26BMANN   H526385   0.363   2.138  18.557
   26BMANN   O526386   0.221   2.250  18.659
   26BMANN   C226387   0.306   2.183  18.869
   26BMANN   H226388   0.381   2.213  18.947
   26BMANN    N26389   0.174   2.178  18.927
   26BMANN   HN26390   0.097   2.164  18.865
   26BMANN    C26391   0.158   2.175  19.058
   26BMANN    O26392   0.239   2.213  19.140
   26BMANN   CT26393   0.028   2.124  19.099
   26BMANN  HT126394  -0.030   2.129  19.004
   26BMANN  HT226395  -0.011   2.180  19.186
   26BMANN  HT326396   0.017   2.020  19.128
   26BMANN   C326397   0.350   2.052  18.811
   26BMANN   H326398   0.453   2.064  18.770
   26BMANN   O326399   0.355   1.952  18.911
   26BMANN  HO326400   0.435   1.971  18.963
   26BMANN   C426401   0.258   2.013  18.699
   26BMANN   H426402   0.153   2.001  18.736
   26BMANN   O426403   0.293   1.890  18.636
   26BMANN  HO426404   0.264   1.818  18.693
   26BMANN   C626405   0.173   2.101  18.480
   26BMANN  H6126406   0.167   2.202  18.432
   26BMANN  H6226407   0.216   2.036  18.401
   26BMANN   O626408   0.046   2.048  18.520
   26BMANN  HO626409   0.056   1.957  18.552
   27BGLCN   C126410   0.493   2.660  19.083
   27BGLCN   H126411   0.466   2.768  19.078
   27BGLCN   C526412   0.716   2.720  19.129
   27BGLCN   H526413   0.680   2.826  19.131
   27BGLCN   O526414   0.629   2.645  19.044
   27BGLCN   C226415   0.477   2.604  19.223
   27BGLCN   H226416   0.511   2.497  19.219
   27BGLCN    N26417   0.339   2.606  19.267
   27BGLCN   HN26418   0.285   2.684  19.239
   27BGLCN    C26419   0.290   2.501  19.337
   27BGLCN    O26420   0.359   2.414  19.388
   27BGLCN   CT26421   0.142   2.492  19.346
   27BGLCN  HT126422   0.099   2.574  19.288
   27BGLCN  HT226423   0.098   2.495  19.447
   27BGLCN  HT326424   0.120   2.392  19.301
   27BGLCN   C326425   0.565   2.677  19.319
   27BGLCN   H326426   0.537   2.785  19.314
   27BGLCN   O326427   0.535   2.622  19.449
   27BGLCN   C426428   0.708   2.666  19.270
   27BGLCN   H426429   0.739   2.558  19.269
   27BGLCN   O426430   0.798   2.738  19.352
   27BGLCN  HO426431   0.777   2.832  19.344
   27BGLCN   C626432   0.855   2.724  19.069
   27BGLCN  H6126433   0.917   2.799  19.123
   27BGLCN  H6226434   0.900   2.624  19.083
   27BGLCN   O626435   0.851   2.762  18.931
   27BGLCN  HO626436   0.934   2.747  18.884
   28AGAL    C126437   0.572   2.698  19.561
   28AGAL    H126438   0.683   2.692  19.569
   28AGAL    C526439   0.392   2.856  19.550
   28AGAL    H526440   0.342   2.784  19.480
   28AGAL    O526441   0.535   2.835  19.541
   28AGAL    C226442   0.518   2.651  19.698
   28AGAL    H226443   0.566   2.726  19.766
   28AGAL    O226444   0.558   2.522  19.746
   28AGAL    C326445   0.367   2.670  19.706
   28AGAL    H326446   0.322   2.615  19.621
   28AGAL    O326447   0.299   2.624  19.823
   28AGAL   HO326448   0.240   2.551  19.799
   28AGAL    C426449   0.342   2.816  19.687
   28AGAL    H426450   0.234   2.828  19.696
   28AGAL    O426451   0.396   2.895  19.791
   28AGAL   HO426452   0.322   2.928  19.842
   28AGAL    C626453   0.353   2.996  19.499
   28AGAL   H6126454   0.375   3.000  19.391
   28AGAL   H6226455   0.246   3.019  19.511
   28AGAL    O626456   0.416   3.106  19.562
   28AGAL   HO626457   0.508   3.112  19.535
   29ARHM    C126458   0.587   2.530  19.885
   29ARHM    H126459   0.531   2.614  19.932
   29ARHM    C526460   0.804   2.444  19.851
   29ARHM    H526461   0.778   2.436  19.743
   29ARHM    O526462   0.726   2.549  19.907
   29ARHM    C226463   0.547   2.405  19.954
   29ARHM    H226464   0.441   2.391  19.928
   29ARHM    O226465   0.563   2.416  20.098
   29ARHM    C326466   0.623   2.289  19.898
   29ARHM    H326467   0.603   2.280  19.788
   29ARHM    O326468   0.581   2.169  19.960
   29ARHM   HO326469   0.654   2.108  19.957
   29ARHM    C426470   0.771   2.311  19.918
   29ARHM    H426471   0.792   2.318  20.026
   29ARHM    O426472   0.850   2.201  19.871
   29ARHM   HO426473   0.831   2.176  19.781
   29ARHM    C626474   0.948   2.495  19.858
   29ARHM   H6126475   0.946   2.597  19.814
   29ARHM   H6226476   0.983   2.503  19.963
   29ARHM   H6326477   1.016   2.431  19.799
   30ARHM    C126478   0.449   2.451  20.173
   30ARHM    H126479   0.365   2.380  20.151
   30ARHM    C526480   0.505   2.683  20.186
   30ARHM    H526481   0.595   2.657  20.127
   30ARHM    O526482   0.405   2.587  20.152
   30ARHM    C226483   0.486   2.438  20.319
   30ARHM    H226484   0.524   2.335  20.339
   30ARHM    O226485   0.371   2.469  20.397
   30ARHM    C326486   0.592   2.538  20.359
   30ARHM    H326487   0.677   2.524  20.288
   30ARHM    O326488   0.644   2.513  20.490
   30ARHM    C426489   0.541   2.677  20.333
   30ARHM    H426490   0.449   2.698  20.392
   30ARHM    O426491   0.635   2.778  20.367
   30ARHM   HO426492   0.703   2.791  20.302
   30ARHM    C626493   0.460   2.824  20.142
   30ARHM   H6126494   0.542   2.896  20.159
   30ARHM   H6226495   0.438   2.823  20.034
   30ARHM   H6326496   0.370   2.856  20.199
   31BMANN   C126497   0.293   2.359  20.426
   31BMANN   H126498   0.355   2.271  20.451
   31BMANN   C526499   0.117   2.221  20.355
   31BMANN   H526500   0.182   2.135  20.385
   31BMANN   O526501   0.201   2.331  20.322
   31BMANN   C226502   0.215   2.400  20.546
   31BMANN   H226503   0.289   2.415  20.628
   31BMANN    N26504   0.151   2.526  20.522
   31BMANN   HN26505   0.133   2.551  20.426
   31BMANN    C26506   0.130   2.611  20.622
   31BMANN    O26507   0.153   2.589  20.739
   31BMANN   CT26508   0.072   2.736  20.581
   31BMANN  HT126509   0.008   2.701  20.500
   31BMANN  HT226510   0.136   2.812  20.532
   31BMANN  HT326511   0.011   2.784  20.661
   31BMANN   C326512   0.126   2.286  20.587
   31BMANN   H326513   0.188   2.196  20.604
   31BMANN   O326514   0.065   2.312  20.711
   31BMANN  HO326515   0.111   2.389  20.749
   31BMANN   C426516   0.033   2.253  20.476
   31BMANN   H426517  -0.021   2.344  20.442
   31BMANN   O426518  -0.057   2.145  20.508
   31BMANN  HO426519  -0.009   2.078  20.557
   31BMANN   C626520   0.035   2.181  20.237
   31BMANN  H6126521   0.010   2.083  20.270
   31BMANN  H6226522  -0.057   2.241  20.223
   31BMANN   O626523   0.101   2.157  20.113
   31BMANN  HO626524   0.159   2.080  20.119
   32BGLCN   C126525   0.570   2.565  20.598
   32BGLCN   H126526   0.462   2.555  20.577
   32BGLCN   C526527   0.512   2.754  20.729
   32BGLCN   H526528   0.406   2.740  20.695
   32BGLCN   O526529   0.598   2.701  20.627
   32BGLCN   C226530   0.598   2.483  20.722
   32BGLCN   H226531   0.703   2.507  20.752
   32BGLCN    N26532   0.585   2.342  20.693
   32BGLCN   HN26533   0.519   2.321  20.624
   32BGLCN    C26534   0.659   2.244  20.744
   32BGLCN    O26535   0.748   2.261  20.825
   32BGLCN   CT26536   0.628   2.107  20.691
   32BGLCN  HT126537   0.572   2.120  20.596
   32BGLCN  HT226538   0.568   2.045  20.760
   32BGLCN  HT326539   0.723   2.054  20.672
   32BGLCN   C326540   0.502   2.530  20.829
   32BGLCN   H326541   0.401   2.525  20.784
   32BGLCN   O326542   0.501   2.445  20.945
   32BGLCN   C426543   0.534   2.675  20.857
   32BGLCN   H426544   0.641   2.682  20.888
   32BGLCN   O426545   0.452   2.727  20.960
   32BGLCN  HO426546   0.502   2.721  21.043
   32BGLCN   C626547   0.532   2.905  20.742
   32BGLCN  H6126548   0.455   2.949  20.809
   32BGLCN  H6226549   0.631   2.925  20.788
   32BGLCN   O626550   0.523   2.972  20.617
   32BGLCN  HO626551   0.455   2.930  20.562
   33AGAL    C126552   0.373   2.431  21.004
   33AGAL    H126553   0.316   2.526  20.997
   33AGAL    C526554   0.356   2.196  20.957
   33AGAL    H526555   0.461   2.210  20.921
   33AGAL    O526556   0.295   2.326  20.942
   33AGAL    C226557   0.389   2.394  21.150
   33AGAL    H226558   0.286   2.376  21.189
   33AGAL    O226559   0.438   2.508  21.223
   33AGAL    C326560   0.460   2.260  21.166
   33AGAL    H326561   0.557   2.262  21.109
   33AGAL    O326562   0.500   2.235  21.300
   33AGAL   HO326563   0.427   2.232  21.361
   33AGAL    C426564   0.372   2.151  21.102
   33AGAL    H426565   0.427   2.055  21.103
   33AGAL    O426566   0.244   2.128  21.162
   33AGAL   HO426567   0.225   2.194  21.229
   33AGAL    C626568   0.295   2.094  20.862
   33AGAL   H6126569   0.314   2.131  20.760
   33AGAL   H6226570   0.346   1.995  20.873
   33AGAL    O626571   0.155   2.068  20.877
   33AGAL   HO626572   0.101   2.130  20.825
   34ARHM    C126573   0.368   2.538  21.342
   34ARHM    H126574   0.357   2.445  21.401
   34ARHM    C526575   0.233   2.710  21.242
   34ARHM    H526576   0.275   2.690  21.141
   34ARHM    O526577   0.234   2.587  21.318
   34ARHM    C226578   0.450   2.641  21.418
   34ARHM    H226579   0.556   2.604  21.420
   34ARHM    O226580   0.407   2.664  21.554
   34ARHM    C326581   0.451   2.771  21.338
   34ARHM    H326582   0.494   2.751  21.236
   34ARHM    O326583   0.531   2.874  21.399
   34ARHM   HO326584   0.578   2.921  21.328
   34ARHM    C426585   0.310   2.817  21.316
   34ARHM    H426586   0.258   2.834  21.414
   34ARHM    O426587   0.307   2.938  21.242
   34ARHM   HO426588   0.328   3.011  21.301
   34ARHM    C626589   0.092   2.760  21.214
   34ARHM   H6126590   0.040   2.774  21.310
   34ARHM   H6226591   0.089   2.860  21.168
   34ARHM   H6326592   0.029   2.692  21.153
   35ARHM    C126593   0.403   2.554  21.643
   35ARHM    H126594   0.485   2.483  21.622
   35ARHM    C526595   0.176   2.579  21.660
   35ARHM    H526596   0.167   2.663  21.586
   35ARHM    O526597   0.280   2.489  21.629
   35ARHM    C226598   0.411   2.601  21.788
   35ARHM    H226599   0.506   2.656  21.804
   35ARHM    O226600   0.402   2.490  21.879
   35ARHM    C326601   0.300   2.698  21.819
   35ARHM    H326602   0.298   2.780  21.747
   35ARHM    O326603   0.311   2.756  21.947
   35ARHM   HO326604   0.347   2.693  22.011
   35ARHM    C426605   0.173   2.631  21.802
   35ARHM    H426606   0.168   2.541  21.869
   35ARHM    O426607   0.063   2.725  21.826
   35ARHM   HO426608   0.076   2.810  21.786
   35ARHM    C626609   0.062   2.499  21.634
   35ARHM   H6126610   0.055   2.470  21.529
   35ARHM   H6226611   0.046   2.412  21.701
   35ARHM   H6326612  -0.010   2.579  21.653
   36BMANN   C126613   0.518   2.412  21.884
   36BMANN   H126614   0.606   2.471  21.850
   36BMANN   C526615   0.634   2.221  21.808
   36BMANN   H526616   0.718   2.289  21.780
   36BMANN   O526617   0.511   2.295  21.802
   36BMANN   C226618   0.536   2.370  22.028
   36BMANN   H226619   0.548   2.465  22.084
   36BMANN    N26620   0.422   2.298  22.086
   36BMANN   HN26621   0.374   2.236  22.025
   36BMANN    C26622   0.393   2.302  22.218
   36BMANN    O26623   0.449   2.377  22.297
   36BMANN   CT26624   0.289   2.206  22.270
   36BMANN  HT126625   0.303   2.107  22.223
   36BMANN  HT226626   0.188   2.244  22.249
   36BMANN  HT326627   0.301   2.197  22.380
   36BMANN   C326628   0.667   2.293  22.038
   36BMANN   H326629   0.750   2.359  22.002
   36BMANN   O326630   0.699   2.253  22.172
   36BMANN  HO326631   0.775   2.300  22.205
   36BMANN   C426632   0.662   2.173  21.949
   36BMANN   H426633   0.580   2.105  21.982
   36BMANN   O426634   0.784   2.101  21.960
   36BMANN  HO426635   0.785   2.082  22.055
   36BMANN   C626636   0.637   2.108  21.708
   36BMANN  H6126637   0.616   2.146  21.606
   36BMANN  H6226638   0.740   2.066  21.706
   36BMANN   O626639   0.546   2.004  21.743
   36BMANN  HO626640   0.592   1.938  21.795
    1ECLIP HB6S26641   7.872   3.924  11.779
    1ECLIP  OB626642   7.933   4.069  11.915
    1ECLIP  CB626643   7.846   4.029  11.806
    1ECLIP HB6R26644   7.742   4.029  11.843
    1ECLIP  CB526645   7.848   4.114  11.680
    1ECLIP  OB526646   7.984   4.112  11.633
    1ECLIP  HB526647   7.817   4.217  11.711
    1ECLIP  CB126648   8.002   4.192  11.515
    1ECLIP  HB126649   7.969   4.298  11.533
    1ECLIP  OA626650   8.136   4.197  11.471
    1ECLIP  CA626651   8.211   4.077  11.492
    1ECLIP HA6R26652   8.146   3.988  11.512
    1ECLIP HA6S26653   8.276   4.095  11.581
    1ECLIP  CB426654   7.752   4.063  11.570
    1ECLIP  HB426655   7.775   3.957  11.542
    1ECLIP  OB426656   7.618   4.081  11.620
    1ECLIP   PB26657   7.524   3.950  11.667
    1ECLIP OPB426658   7.435   3.986  11.786
    1ECLIP OPB326659   7.624   3.842  11.706
    1ECLIP OPB226660   7.438   3.910  11.548
    1ECLIP  CB326661   7.774   4.148  11.447
    1ECLIP  OB326662   7.703   4.103  11.333
    1ECLIP  HB326663   7.753   4.255  11.471
    1ECLIP  C7126664   7.580   4.142  11.320
    1ECLIP  O7126665   7.532   4.238  11.379
    1ECLIP  C7226666   7.540   4.094  11.180
    1ECLIP H72R26667   7.602   4.130  11.096
    1ECLIP H72S26668   7.437   4.116  11.168
    1ECLIP  CB226669   7.918   4.139  11.403
    1ECLIP  HB226670   7.943   4.031  11.388
    1ECLIP  NB226671   7.939   4.217  11.282
    1ECLIP HNB226672   7.964   4.313  11.293
    1ECLIP  CA426673   8.363   4.174  11.316
    1ECLIP  HA426674   8.281   4.245  11.289
    1ECLIP  OA426675   8.444   4.225  11.422
    1ECLIP HOA426676   8.382   4.248  11.490
    1ECLIP  CA526677   8.296   4.050  11.370
    1ECLIP  HA526678   8.369   3.968  11.392
    1ECLIP  OA526679   8.208   4.002  11.271
    1ECLIP  CA126680   8.273   3.968  11.147
    1ECLIP  HA126681   8.186   3.952  11.080
    1ECLIP  OA126682   8.351   3.851  11.148
    1ECLIP OPA226683   8.357   3.685  11.339
    1ECLIP OPA326684   8.137   3.719  11.223
    1ECLIP OPA426685   8.335   3.606  11.102
    1ECLIP   PA26686   8.287   3.709  11.205
    1ECLIP  CA326687   8.439   4.146  11.189
    1ECLIP  HA326688   8.523   4.075  11.210
    1ECLIP  OA326689   8.498   4.273  11.153
    1ECLIP  C3126690   8.421   4.363  11.086
    1ECLIP  O3126691   8.419   4.357  10.963
    1ECLIP  C3226692   8.410   4.493  11.164
    1ECLIP H32R26693   8.468   4.567  11.107
    1ECLIP H32S26694   8.459   4.484  11.263
    1ECLIP  CA226695   8.341   4.089  11.086
    1ECLIP  HA226696   8.259   4.164  11.071
    1ECLIP  NA226697   8.407   4.058  10.957
    1ECLIP HNA226698   8.500   4.088  10.968
    1ECLIP  C7326699   7.527   3.944  11.173
    1ECLIP H73R26700   7.467   3.913  11.264
    1ECLIP  O7326701   7.657   3.893  11.167
    1ECLIP  C8126702   7.679   3.782  11.233
    1ECLIP  O8126703   7.593   3.715  11.288
    1ECLIP  C8226704   7.807   3.725  11.171
    1ECLIP H82R26705   7.832   3.631  11.223
    1ECLIP H82S26706   7.888   3.798  11.192
    1ECLIP  C8326707   7.799   3.703  11.017
    1ECLIP H83R26708   7.816   3.800  10.965
    1ECLIP H83S26709   7.698   3.666  10.990
    1ECLIP  C8426710   7.908   3.607  10.965
    1ECLIP H84R26711   7.887   3.502  10.996
    1ECLIP H84S26712   8.004   3.640  11.013
    1ECLIP  C8526713   7.927   3.616  10.813
    1ECLIP H85R26714   7.924   3.726  10.791
    1ECLIP H85S26715   7.842   3.570  10.760
    1ECLIP  C8626716   8.065   3.566  10.765
    1ECLIP H86R26717   8.061   3.459  10.736
    1ECLIP H86S26718   8.138   3.573  10.849
    1ECLIP  C8726719   8.124   3.653  10.652
    1ECLIP H87R26720   8.219   3.609  10.616
    1ECLIP H87S26721   8.150   3.753  10.694
    1ECLIP  C8826722   8.025   3.678  10.539
    1ECLIP H88R26723   7.950   3.753  10.572
    1ECLIP H88S26724   7.966   3.584  10.524
    1ECLIP  C8926725   8.091   3.727  10.410
    1ECLIP H89R26726   8.192   3.770  10.426
    1ECLIP H89S26727   8.030   3.807  10.363
    1ECLIP C81026728   8.097   3.613  10.310
    1ECLIPH810R26729   8.012   3.544  10.330
    1ECLIPH810S26730   8.192   3.557  10.324
    1ECLIP C81126731   8.090   3.664  10.167
    1ECLIPH811R26732   8.148   3.588  10.112
    1ECLIPH811S26733   8.149   3.756  10.156
    1ECLIP C81226734   7.948   3.695  10.113
    1ECLIPH812R26735   7.961   3.739  10.011
    1ECLIPH812S26736   7.903   3.773  10.178
    1ECLIP C81326737   7.844   3.581  10.107
    1ECLIPH813R26738   7.880   3.501  10.041
    1ECLIPH813S26739   7.831   3.531  10.204
    1ECLIP C81426740   7.708   3.628  10.053
    1ECLIPH814R26741   7.717   3.691   9.962
    1ECLIPH814S26742   7.657   3.687  10.131
    1ECLIPH814T26743   7.646   3.540  10.026
    1ECLIP  C7426744   7.456   3.893  11.048
    1ECLIP H74R26745   7.362   3.946  11.045
    1ECLIP H74S26746   7.445   3.785  11.063
    1ECLIP  C7526747   7.517   3.909  10.910
    1ECLIP H75R26748   7.493   3.815  10.855
    1ECLIP H75S26749   7.625   3.914  10.929
    1ECLIP  C7626750   7.468   4.030  10.831
    1ECLIP H76R26751   7.515   4.121  10.874
    1ECLIP H76S26752   7.358   4.044  10.835
    1ECLIP  C7726753   7.506   4.020  10.682
    1ECLIP H77R26754   7.449   3.937  10.636
    1ECLIP H77S26755   7.612   3.996  10.668
    1ECLIP  C7826756   7.483   4.156  10.616
    1ECLIP H78R26757   7.380   4.188  10.641
    1ECLIP H78S26758   7.550   4.228  10.668
    1ECLIP  C7926759   7.522   4.164  10.466
    1ECLIP H79R26760   7.622   4.210  10.455
    1ECLIP H79S26761   7.459   4.230  10.405
    1ECLIP C71026762   7.498   4.042  10.381
    1ECLIPH710R26763   7.557   3.959  10.423
    1ECLIPH710S26764   7.391   4.018  10.389
    1ECLIP C71126765   7.537   4.065  10.235
    1ECLIPH711R26766   7.475   4.143  10.189
    1ECLIPH711S26767   7.644   4.095  10.228
    1ECLIP C71226768   7.519   3.935  10.160
    1ECLIPH712R26769   7.414   3.913  10.166
    1ECLIPH712S26770   7.569   3.855  10.219
    1ECLIP C71326771   7.567   3.935  10.015
    1ECLIPH713R26772   7.677   3.954  10.018
    1ECLIPH713S26773   7.550   3.836   9.968
    1ECLIP C71426774   7.499   4.036   9.924
    1ECLIPH714R26775   7.389   4.017   9.915
    1ECLIPH714S26776   7.514   4.139   9.962
    1ECLIPH714T26777   7.542   4.030   9.822
    1ECLIP  C5126778   7.922   4.164  11.160
    1ECLIP  O5126779   7.914   4.044  11.143
    1ECLIP  C5226780   7.909   4.258  11.042
    1ECLIP H52R26781   7.802   4.287  11.031
    1ECLIP H52S26782   7.967   4.350  11.061
    1ECLIP  C5326783   7.959   4.190  10.913
    1ECLIP H53R26784   8.044   4.122  10.935
    1ECLIP  O5326785   7.995   4.295  10.822
    1ECLIP  C6126786   8.121   4.314  10.790
    1ECLIP  O6126787   8.216   4.242  10.817
    1ECLIP  C6226788   8.135   4.434  10.696
    1ECLIP H62R26789   8.137   4.526  10.757
    1ECLIP H62S26790   8.041   4.439  10.637
    1ECLIP  C6326791   8.263   4.424  10.607
    1ECLIP H63R26792   8.265   4.322  10.563
    1ECLIP H63S26793   8.353   4.441  10.670
    1ECLIP  C6426794   8.269   4.521  10.487
    1ECLIP H64R26795   8.367   4.512  10.435
    1ECLIP H64S26796   8.261   4.624  10.529
    1ECLIP  C6526797   8.154   4.494  10.389
    1ECLIP H65R26798   8.063   4.513  10.450
    1ECLIP H65S26799   8.154   4.388  10.358
    1ECLIP  C6626800   8.143   4.581  10.262
    1ECLIP H66R26801   8.137   4.688  10.291
    1ECLIP H66S26802   8.046   4.552  10.216
    1ECLIP  C6726803   8.251   4.565  10.153
    1ECLIP H67R26804   8.353   4.578  10.194
    1ECLIP H67S26805   8.236   4.642  10.074
    1ECLIP  C6826806   8.254   4.428  10.086
    1ECLIP H68R26807   8.155   4.397  10.045
    1ECLIP H68S26808   8.284   4.357  10.165
    1ECLIP  C6926809   8.354   4.429   9.970
    1ECLIP H69R26810   8.434   4.504   9.979
    1ECLIP H69S26811   8.304   4.465   9.881
    1ECLIP C61026812   8.408   4.290   9.934
    1ECLIPH610R26813   8.322   4.218   9.937
    1ECLIPH610S26814   8.480   4.264  10.013
    1ECLIP C61126815   8.490   4.283   9.805
    1ECLIPH611R26816   8.558   4.372   9.799
    1ECLIPH611S26817   8.543   4.189   9.786
    1ECLIP C61226818   8.406   4.290   9.687
    1ECLIPH612R26819   8.321   4.218   9.678
    1ECLIPH612S26820   8.380   4.394   9.713
    1ECLIPH612T26821   8.442   4.319   9.593
    1ECLIP  C5426822   7.841   4.109  10.853
    1ECLIP H54R26823   7.761   4.181  10.824
    1ECLIP H54S26824   7.800   4.044  10.934
    1ECLIP  C5526825   7.873   4.018  10.733
    1ECLIP H55R26826   7.791   3.944  10.719
    1ECLIP H55S26827   7.964   3.959  10.756
    1ECLIP  C5626828   7.884   4.103  10.605
    1ECLIP H56R26829   7.960   4.181  10.622
    1ECLIP H56S26830   7.787   4.155  10.587
    1ECLIP  C5726831   7.927   4.033  10.477
    1ECLIP H57R26832   7.863   3.945  10.454
    1ECLIP H57S26833   8.031   3.995  10.490
    1ECLIP  C5826834   7.927   4.135  10.360
    1ECLIP H58R26835   7.832   4.194  10.358
    1ECLIP H58S26836   8.007   4.209  10.382
    1ECLIP  C5926837   7.946   4.067  10.224
    1ECLIP H59R26838   7.868   3.990  10.208
    1ECLIP H59S26839   8.044   4.015  10.232
    1ECLIP C51026840   7.935   4.161  10.101
    1ECLIPH510R26841   7.993   4.254  10.118
    1ECLIPH510S26842   7.828   4.190  10.088
    1ECLIP C51126843   7.979   4.097   9.968
    1ECLIPH511R26844   8.090   4.106   9.963
    1ECLIPH511S26845   7.952   3.989   9.963
    1ECLIP C51226846   7.914   4.154   9.842
    1ECLIPH512R26847   7.936   4.098   9.748
    1ECLIPH512S26848   7.809   4.188   9.851
    1ECLIP C51326849   7.980   4.277   9.803
    1ECLIPH513R26850   8.087   4.248   9.806
    1ECLIPH513S26851   7.976   4.339   9.897
    1ECLIP C51426852   7.923   4.328   9.663
    1ECLIPH514R26853   7.831   4.379   9.653
    1ECLIPH514S26854   7.953   4.427   9.625
    1ECLIPH514T26855   7.958   4.274   9.574
    1ECLIP  C3326856   8.268   4.554  11.183
    1ECLIP H33R26857   8.280   4.658  11.222
    1ECLIP  O3326858   8.199   4.478  11.281
    1ECLIP HO3326859   8.234   4.497  11.368
    1ECLIP  C3426860   8.181   4.561  11.057
    1ECLIP H34R26861   8.165   4.459  11.018
    1ECLIP H34S26862   8.234   4.619  10.978
    1ECLIP  C3526863   8.044   4.626  11.080
    1ECLIP H35R26864   8.052   4.733  11.111
    1ECLIP H35S26865   7.992   4.572  11.162
    1ECLIP  C3626866   7.962   4.618  10.952
    1ECLIP H36R26867   7.992   4.529  10.897
    1ECLIP H36S26868   7.967   4.710  10.888
    1ECLIP  C3726869   7.821   4.579  10.984
    1ECLIP H37R26870   7.788   4.678  11.009
    1ECLIP H37S26871   7.813   4.538  11.086
    1ECLIP  C3826872   7.742   4.503  10.872
    1ECLIP H38R26873   7.750   4.395  10.872
    1ECLIP H38S26874   7.632   4.501  10.883
    1ECLIP  C3926875   7.762   4.569  10.737
    1ECLIP H39R26876   7.869   4.573  10.713
    1ECLIP H39S26877   7.734   4.674  10.734
    1ECLIP C31026878   7.683   4.513  10.623
    1ECLIPH310R26879   7.579   4.549  10.630
    1ECLIPH310S26880   7.682   4.402  10.629
    1ECLIP C31126881   7.757   4.555  10.497
    1ECLIPH311R26882   7.788   4.661  10.497
    1ECLIPH311S26883   7.841   4.485  10.478
    1ECLIP C31226884   7.678   4.535  10.377
    1ECLIPH312R26885   7.622   4.443  10.411
    1ECLIPH312S26886   7.613   4.625  10.366
    1ECLIP C31326887   7.752   4.512  10.243
    1ECLIPH313R26888   7.785   4.614  10.214
    1ECLIPH313S26889   7.832   4.438  10.259
    1ECLIP C31426890   7.681   4.458  10.121
    1ECLIPH314R26891   7.605   4.531  10.083
    1ECLIPH314S26892   7.742   4.429  10.037
    1ECLIPH314T26893   7.637   4.359  10.145
    1ECLIP  C1126894   8.359   3.967  10.865
    1ECLIP  O1126895   8.242   3.945  10.845
    1ECLIP  C1226896   8.462   3.906  10.770
    1ECLIP H12R26897   8.474   3.799  10.788
    1ECLIP H12S26898   8.564   3.933  10.802
    1ECLIP  C1326899   8.427   3.936  10.619
    1ECLIP H13R26900   8.322   3.904  10.597
    1ECLIP  O1326901   8.518   3.858  10.547
    1ECLIP HO1326902   8.482   3.816  10.467
    1ECLIP  C1426903   8.441   4.083  10.563
    1ECLIP H14R26904   8.542   4.131  10.572
    1ECLIP H14S26905   8.358   4.144  10.606
    1ECLIP  C1526906   8.464   4.111  10.420
    1ECLIP H15R26907   8.551   4.050  10.386
    1ECLIP H15S26908   8.494   4.219  10.409
    1ECLIP  C1626909   8.335   4.083  10.350
    1ECLIP H16R26910   8.266   4.169  10.362
    1ECLIP H16S26911   8.285   3.996  10.399
    1ECLIP  C1726912   8.367   4.058  10.206
    1ECLIP H17R26913   8.440   4.136  10.174
    1ECLIP H17S26914   8.276   4.069  10.143
    1ECLIP  C1826915   8.428   3.920  10.183
    1ECLIP H18R26916   8.520   3.912  10.245
    1ECLIP H18S26917   8.356   3.841  10.215
    1ECLIP  C1926918   8.466   3.902  10.038
    1ECLIP H19R26919   8.522   3.806  10.028
    1ECLIP H19S26920   8.534   3.982  10.003
    1ECLIP C11026921   8.342   3.911   9.948
    1ECLIPH110R26922   8.269   3.830   9.979
    1ECLIPH110S26923   8.288   4.005   9.957
    1ECLIP C11126924   8.384   3.903   9.801
    1ECLIPH111R26925   8.475   3.954   9.769
    1ECLIPH111S26926   8.449   3.818   9.794
    1ECLIP C11226927   8.263   3.890   9.707
    1ECLIPH112R26928   8.201   3.808   9.750
    1ECLIPH112S26929   8.197   3.976   9.717
    1ECLIP C11326930   8.299   3.883   9.555
    1ECLIPH113R26931   8.366   3.963   9.531
    1ECLIPH113S26932   8.381   3.822   9.520
    1ECLIP C11426933   8.191   3.832   9.459
    1ECLIPH114R26934   8.135   3.742   9.487
    1ECLIPH114S26935   8.132   3.915   9.422
    1ECLIPH114T26936   8.234   3.780   9.373
    2AKDO    C126937   7.807   4.260  11.974
    2AKDO   O1126938   7.683   4.272  11.976
    2AKDO   O1226939   7.894   4.346  11.944
    2AKDO    C226940   7.860   4.123  12.026
    2AKDO    C626941   7.821   3.906  12.119
    2AKDO    H626942   7.876   3.865  12.030
    2AKDO    O626943   7.763   4.030  12.074
    2AKDO    C326944   7.949   4.141  12.147
    2AKDO   H3126945   7.923   4.206  12.230
    2AKDO   H3226946   8.008   4.222  12.099
    2AKDO    C426947   8.017   4.007  12.196
    2AKDO    H426948   8.049   3.939  12.109
    2AKDO    O426949   8.139   4.041  12.280
    2AKDO    C526950   7.916   3.917  12.240
    2AKDO    H526951   7.958   3.814  12.246
    2AKDO    O526952   7.889   3.980  12.366
    2AKDO    C726953   7.712   3.812  12.149
    2AKDO    H726954   7.669   3.857  12.239
    2AKDO    O726955   7.766   3.682  12.174
    2AKDO   HO726956   7.770   3.640  12.088
    2AKDO    C826957   7.612   3.809  12.037
    2AKDO   H8126958   7.577   3.914  12.021
    2AKDO   H8226959   7.665   3.778  11.944
    2AKDO    O826960   7.499   3.723  12.064
    2AKDO   HO826961   7.428   3.779  12.029
    3AKDO    C126962   8.368   3.964  12.154
    3AKDO   O1126963   8.400   4.014  12.047
    3AKDO   O1226964   8.386   3.843  12.182
    3AKDO    C226965   8.285   4.059  12.249
    3AKDO    C626966   8.260   4.285  12.318
    3AKDO    H626967   8.150   4.274  12.314
    3AKDO    O626968   8.317   4.198  12.225
    3AKDO    C326969   8.345   4.035  12.368
    3AKDO   H3126970   8.450   4.029  12.359
    3AKDO   H3226971   8.308   3.938  12.379
    3AKDO    C426972   8.304   4.101  12.476
    3AKDO    H426973   8.220   4.041  12.502
    3AKDO    O426974   8.355   4.043  12.582
    3AKDO   HO426975   8.285   4.052  12.649
    3AKDO    C526976   8.329   4.241  12.453
    3AKDO    H526977   8.283   4.302  12.532
    3AKDO    O526978   8.468   4.240  12.468
    3AKDO   HO526979   8.508   4.192  12.391
    3AKDO    C726980   8.269   4.426  12.260
    3AKDO    H726981   8.353   4.460  12.199
    3AKDO    O726982   8.284   4.509  12.383
    3AKDO   HO726983   8.250   4.602  12.385
    3AKDO    C826984   8.181   4.448  12.129
    3AKDO   H8126985   8.190   4.398  12.040
    3AKDO   H8226986   8.073   4.421  12.137
    3AKDO    O826987   8.205   4.579  12.079
    3AKDO   HO826988   8.294   4.583  12.046
    4AHEP    C126989   7.849   3.892  12.465
    4AHEP    H126990   7.750   3.861  12.429
    4AHEP    C526991   8.040   3.783  12.543
    4AHEP    H526992   8.095   3.876  12.511
    4AHEP    O526993   7.920   3.770  12.470
    4AHEP    C226994   7.828   3.938  12.610
    4AHEP    H226995   7.779   4.037  12.605
    4AHEP    O226996   7.740   3.848  12.676
    4AHEP   HO226997   7.680   3.898  12.730
    4AHEP    C326998   7.955   3.954  12.692
    4AHEP    H326999   8.023   4.031  12.654
    4AHEP    O327000   7.931   3.987  12.831
    4AHEP    C427001   8.020   3.819  12.686
    4AHEP    H427002   7.961   3.740  12.735
    4AHEP    O427003   8.151   3.820  12.736
    4AHEP    P427004   8.182   3.734  12.873
    4AHEP  OP4227005   8.312   3.805  12.900
    4AHEP  OP4327006   8.208   3.581  12.867
    4AHEP  OP4427007   8.067   3.742  12.971
    4AHEP    C627008   8.109   3.649  12.519
    4AHEP    H627009   8.212   3.691  12.542
    4AHEP    O627010   8.060   3.551  12.614
    4AHEP   HO627011   8.135   3.520  12.666
    4AHEP    C727012   8.118   3.569  12.380
    4AHEP   H7127013   8.201   3.504  12.380
    4AHEP   H7227014   8.153   3.603  12.284
    4AHEP    O727015   8.003   3.516  12.325
    4AHEP   HO727016   7.993   3.439  12.381
    5AHEP    C127017   7.970   4.113  12.880
    5AHEP    H127018   8.070   4.140  12.837
    5AHEP    C527019   7.750   4.176  12.930
    5AHEP    H527020   7.721   4.074  12.895
    5AHEP    O527021   7.871   4.211  12.862
    5AHEP    C227022   7.977   4.107  13.032
    5AHEP    H227023   8.000   4.008  13.058
    5AHEP    O227024   8.064   4.206  13.090
    5AHEP   HO227025   8.153   4.170  13.088
    5AHEP    C327026   7.858   4.062  13.113
    5AHEP    H327027   7.822   3.962  13.070
    5AHEP    O327028   7.883   4.040  13.255
    5AHEP    C427029   7.767   4.166  13.081
    5AHEP    H427030   7.812   4.261  13.120
    5AHEP    O427031   7.645   4.127  13.143
    5AHEP    P427032   7.587   4.220  13.267
    5AHEP  OP4227033   7.464   4.148  13.320
    5AHEP  OP4327034   7.539   4.350  13.203
    5AHEP  OP4427035   7.700   4.235  13.368
    5AHEP    C627036   7.645   4.278  12.893
    5AHEP    H627037   7.551   4.246  12.942
    5AHEP    O627038   7.681   4.411  12.939
    5AHEP   HO627039   7.748   4.443  12.880
    5AHEP    C727040   7.621   4.273  12.744
    5AHEP   H7127041   7.513   4.290  12.727
    5AHEP   H7227042   7.644   4.175  12.698
    5AHEP    O727043   7.688   4.381  12.682
    6AHEP    C127044   7.803   4.342  12.615
    6AHEP    H127045   7.835   4.239  12.639
    6AHEP    C527046   7.753   4.484  12.435
    6AHEP    H527047   7.658   4.510  12.481
    6AHEP    O527048   7.786   4.350  12.474
    6AHEP    C227049   7.913   4.433  12.657
    6AHEP    H227050   7.929   4.421  12.766
    6AHEP    O227051   8.026   4.392  12.588
    6AHEP   HO227052   8.082   4.365  12.660
    6AHEP    C327053   7.891   4.576  12.632
    6AHEP    H327054   7.811   4.613  12.690
    6AHEP    O327055   8.000   4.664  12.672
    6AHEP   HO327056   7.970   4.730  12.733
    6AHEP    C427057   7.866   4.572  12.490
    6AHEP    H427058   7.946   4.532  12.450
    6AHEP    O427059   7.883   4.695  12.441
    6AHEP   HO427060   7.787   4.706  12.447
    6AHEP    C627061   7.725   4.492  12.286
    6AHEP    H627062   7.673   4.590  12.265
    6AHEP    O627063   7.832   4.480  12.196
    6AHEP   HO627064   7.806   4.409  12.134
    6AHEP    C727065   7.628   4.386  12.251
    6AHEP   H7127066   7.609   4.400  12.147
    6AHEP   H7227067   7.553   4.415  12.314
    6AHEP    O727068   7.633   4.247  12.273
    6AHEP   HO727069   7.623   4.238  12.367
    7AGLC    C127070   7.902   3.909  13.305
    7AGLC    H127071   7.843   3.833  13.252
    7AGLC    C527072   8.116   3.963  13.346
    7AGLC    H527073   8.105   4.070  13.323
    7AGLC    O527074   8.030   3.879  13.275
    7AGLC    C227075   7.890   3.891  13.455
    7AGLC    H227076   7.930   3.790  13.480
    7AGLC    O227077   7.754   3.891  13.492
    7AGLC   HO227078   7.729   3.986  13.495
    7AGLC    C327079   7.975   3.985  13.536
    7AGLC    H327080   7.960   4.089  13.498
    7AGLC    O327081   7.949   3.979  13.677
    7AGLC    C427082   8.113   3.949  13.501
    7AGLC    H427083   8.136   3.842  13.531
    7AGLC    O427084   8.202   4.041  13.570
    7AGLC   HO427085   8.273   3.986  13.607
    7AGLC    C627086   8.212   3.910  13.249
    7AGLC   H6127087   8.305   3.944  13.200
    7AGLC   H6227088   8.276   4.004  13.268
    7AGLC    O627089   8.246   3.768  13.249
    7AGLC   HO627090   8.303   3.752  13.326
    8AGLC    C127091   7.911   4.105  13.729
    8AGLC    H127092   7.975   4.186  13.687
    8AGLC    C527093   7.674   4.052  13.758
    8AGLC    H527094   7.695   3.949  13.724
    8AGLC    O527095   7.774   4.136  13.696
    8AGLC    C227096   7.919   4.114  13.881
    8AGLC    H227097   7.894   4.219  13.906
    8AGLC    O227098   8.043   4.093  13.947
    8AGLC    C327099   7.827   4.020  13.949
    8AGLC    H327100   7.852   3.918  13.908
    8AGLC    O327101   7.857   4.021  14.091
    8AGLC    C427102   7.688   4.061  13.909
    8AGLC    H427103   7.675   4.167  13.939
    8AGLC    O427104   7.591   3.981  13.975
    8AGLC   HO427105   7.626   3.893  13.977
    8AGLC    C627106   7.529   4.080  13.710
    8AGLC   H6127107   7.524   4.090  13.599
    8AGLC   H6227108   7.462   3.996  13.738
    8AGLC    O627109   7.473   4.197  13.769
    8AGLC   HO627110   7.435   4.175  13.854
    9AGAL    C127111   8.147   4.167  13.896
    9AGAL    H127112   8.148   4.167  13.784
    9AGAL    C527113   8.166   4.311  14.076
    9AGAL    H527114   8.096   4.241  14.125
    9AGAL    O527115   8.127   4.301  13.937
    9AGAL    C227116   8.297   4.104  13.926
    9AGAL    H227117   8.376   4.160  13.878
    9AGAL    O227118   8.376   3.986  13.883
    9AGAL    C327119   8.313   4.120  14.064
    9AGAL    H327120   8.220   4.079  14.112
    9AGAL    O327121   8.377   4.024  14.133
    9AGAL   HO327122   8.426   3.985  14.060
    9AGAL    C427123   8.319   4.259  14.108
    9AGAL    H427124   8.374   4.236  14.198
    9AGAL    O427125   8.440   4.330  14.081
    9AGAL   HO427126   8.436   4.424  14.105
    9AGAL    C627127   8.135   4.453  14.123
    9AGAL   H6127128   8.031   4.482  14.098
    9AGAL   H6227129   8.143   4.462  14.233
    9AGAL    O627130   8.224   4.553  14.075
    9AGAL   HO627131   8.181   4.603  14.004
   10AGAL    C127132   8.372   3.846  13.919
   10AGAL    H127133   8.487   3.839  13.928
   10AGAL    C527134   8.156   3.780  14.045
   10AGAL    H527135   8.098   3.873  14.025
   10AGAL    O527136   8.305   3.802  14.043
   10AGAL    C227137   8.320   3.730  13.821
   10AGAL    H227138   8.372   3.636  13.845
   10AGAL    O227139   8.351   3.791  13.695
   10AGAL   HO227140   8.385   3.710  13.652
   10AGAL    C327141   8.165   3.693  13.801
   10AGAL    H327142   8.092   3.758  13.750
   10AGAL    O327143   8.129   3.596  13.702
   10AGAL   HO327144   8.089   3.655  13.636
   10AGAL    C427145   8.124   3.665  13.945
   10AGAL    H427146   8.013   3.657  13.946
   10AGAL    O427147   8.182   3.543  13.988
   10AGAL   HO427148   8.276   3.565  13.998
   10AGAL    C627149   8.081   3.767  14.178
   10AGAL   H6127150   8.106   3.849  14.248
   10AGAL   H6227151   7.973   3.780  14.161
   10AGAL    O627152   8.090   3.643  14.244
   10AGAL   HO627153   8.147   3.658  14.321
   11BGLC    C127154   7.790   4.104  14.185
   11BGLC    H127155   7.688   4.063  14.199
   11BGLC    C527156   7.730   4.333  14.248
   11BGLC    H527157   7.625   4.305  14.271
   11BGLC    O527158   7.791   4.244  14.149
   11BGLC    C227159   7.869   4.088  14.315
   11BGLC    H227160   7.974   4.121  14.299
   11BGLC    O227161   7.873   3.952  14.356
   11BGLC   HO227162   7.964   3.922  14.366
   11BGLC    C327163   7.813   4.175  14.427
   11BGLC    H327164   7.711   4.139  14.453
   11BGLC    O327165   7.900   4.173  14.542
   11BGLC    C427166   7.812   4.318  14.378
   11BGLC    H427167   7.917   4.346  14.354
   11BGLC    O427168   7.771   4.408  14.481
   11BGLC   HO427169   7.837   4.406  14.552
   11BGLC    C627170   7.732   4.478  14.191
   11BGLC   H6127171   7.714   4.554  14.270
   11BGLC   H6227172   7.825   4.494  14.137
   11BGLC    O627173   7.643   4.514  14.089
   11BGLC   HO627174   7.559   4.537  14.133
   12BGLCN   C127175   7.845   4.137  14.668
   12BGLCN   H127176   7.842   4.024  14.673
   12BGLCN   C527177   7.668   4.145  14.824
   12BGLCN   H527178   7.662   4.034  14.832
   12BGLCN   O527179   7.715   4.183  14.694
   12BGLCN   C227180   7.932   4.198  14.778
   12BGLCN   H227181   7.923   4.308  14.771
   12BGLCN    N27182   8.064   4.177  14.753
   12BGLCN   HN27183   8.058   4.076  14.753
   12BGLCN    C27184   8.179   4.249  14.724
   12BGLCN    O27185   8.164   4.366  14.750
   12BGLCN   CT27186   8.320   4.186  14.664
   12BGLCN  HT127187   8.415   4.187  14.721
   12BGLCN  HT227188   8.347   4.216  14.565
   12BGLCN  HT327189   8.343   4.083  14.642
   12BGLCN   C327190   7.898   4.150  14.917
   12BGLCN   H327191   7.900   4.037  14.917
   12BGLCN   O327192   7.994   4.191  15.017
   12BGLCN   C427193   7.759   4.199  14.934
   12BGLCN   H427194   7.764   4.311  14.927
   12BGLCN   O427195   7.710   4.166  15.062
   12BGLCN  HO427196   7.697   4.070  15.066
   12BGLCN   C627197   7.530   4.203  14.830
   12BGLCN  H6127198   7.480   4.182  14.925
   12BGLCN  H6227199   7.535   4.313  14.817
   12BGLCN   O627200   7.447   4.152  14.727
   12BGLCN  HO627201   7.408   4.068  14.752
   13AGAL    C127202   8.015   4.100  15.127
   13AGAL    H127203   7.921   4.053  15.155
   13AGAL    C527204   8.236   4.046  15.081
   13AGAL    H527205   8.196   4.121  15.015
   13AGAL    O527206   8.107   3.992  15.099
   13AGAL    C227207   8.074   4.171  15.250
   13AGAL    H227208   8.102   4.102  15.329
   13AGAL    O227209   7.977   4.251  15.312
   13AGAL    C327210   8.209   4.231  15.225
   13AGAL    H327211   8.220   4.288  15.135
   13AGAL    O327212   8.245   4.320  15.328
   13AGAL   HO327213   8.299   4.394  15.297
   13AGAL    C427214   8.302   4.120  15.193
   13AGAL    H427215   8.391   4.172  15.154
   13AGAL    O427216   8.355   4.039  15.293
   13AGAL   HO427217   8.283   3.990  15.336
   13AGAL    C627218   8.332   3.955  15.018
   13AGAL   H6127219   8.299   3.919  14.918
   13AGAL   H6227220   8.431   4.004  15.005
   13AGAL    O627221   8.377   3.857  15.105
   13AGAL   HO627222   8.465   3.885  15.137
   14ARHM    C127223   7.930   4.201  15.435
   14ARHM    H127224   7.937   4.089  15.439
   14ARHM    C527225   7.777   4.377  15.454
   14ARHM    H527226   7.817   4.416  15.357
   14ARHM    O527227   7.795   4.235  15.455
   14ARHM    C227228   8.013   4.263  15.544
   14ARHM    H227229   8.115   4.229  15.517
   14ARHM    O227230   7.979   4.223  15.678
   14ARHM    C327231   7.999   4.415  15.540
   14ARHM    H327232   8.023   4.447  15.436
   14ARHM    O327233   8.083   4.498  15.621
   14ARHM   HO327234   8.080   4.465  15.712
   14ARHM    C427235   7.854   4.444  15.567
   14ARHM    H427236   7.821   4.399  15.663
   14ARHM    O427237   7.827   4.584  15.574
   14ARHM   HO427238   7.817   4.611  15.666
   14ARHM    C627239   7.627   4.404  15.461
   14ARHM   H6127240   7.571   4.337  15.394
   14ARHM   H6227241   7.596   4.389  15.566
   14ARHM   H6327242   7.602   4.508  15.432
   15ARHM    C127243   7.974   4.087  15.710
   15ARHM    H127244   8.039   4.030  15.640
   15ARHM    C527245   7.748   4.093  15.800
   15ARHM    H527246   7.732   4.202  15.780
   15ARHM    O527247   7.839   4.036  15.704
   15ARHM    C227248   8.030   4.065  15.850
   15ARHM    H227249   8.132   4.110  15.857
   15ARHM    O227250   8.038   3.922  15.865
   15ARHM    C327251   7.941   4.134  15.949
   15ARHM    H327252   7.931   4.240  15.918
   15ARHM    O327253   8.004   4.132  16.077
   15ARHM    C427254   7.804   4.070  15.939
   15ARHM    H427255   7.817   3.960  15.949
   15ARHM    O427256   7.711   4.111  16.039
   15ARHM   HO427257   7.633   4.055  16.027
   15ARHM    C627258   7.612   4.024  15.783
   15ARHM   H6127259   7.531   4.074  15.840
   15ARHM   H6227260   7.585   4.023  15.675
   15ARHM   H6327261   7.615   3.919  15.818
   16BMANN   C127262   8.075   3.863  15.988
   16BMANN   H127263   7.995   3.881  16.062
   16BMANN   C527264   8.223   3.868  16.182
   16BMANN   H527265   8.148   3.892  16.260
   16BMANN   O527266   8.188   3.925  16.050
   16BMANN   C227267   8.094   3.707  15.965
   16BMANN   H227268   7.991   3.676  15.941
   16BMANN    N27269   8.170   3.640  15.856
   16BMANN   HN27270   8.264   3.646  15.890
   16BMANN    C27271   8.142   3.619  15.721
   16BMANN    O27272   8.033   3.656  15.680
   16BMANN   CT27273   8.258   3.577  15.615
   16BMANN  HT127274   8.247   3.471  15.597
   16BMANN  HT227275   8.370   3.581  15.637
   16BMANN  HT327276   8.254   3.653  15.532
   16BMANN   C327277   8.127   3.650  16.102
   16BMANN   H327278   8.052   3.676  16.175
   16BMANN   O327279   8.147   3.509  16.094
   16BMANN  HO327280   8.103   3.471  16.170
   16BMANN   C427281   8.247   3.715  16.162
   16BMANN   H427282   8.327   3.671  16.101
   16BMANN   O427283   8.287   3.667  16.285
   16BMANN  HO427284   8.382   3.688  16.274
   16BMANN   C627285   8.354   3.934  16.240
   16BMANN  H6127286   8.359   3.941  16.344
   16BMANN  H6227287   8.455   3.893  16.224
   16BMANN   O627288   8.384   4.053  16.180
   16BMANN  HO627289   8.466   4.071  16.133
   17BGLCN   C127290   7.986   4.251  16.149
   17BGLCN   H127291   7.884   4.288  16.136
   17BGLCN   C527292   8.071   4.471  16.194
   17BGLCN   H527293   7.975   4.522  16.175
   17BGLCN   O527294   8.075   4.355  16.109
   17BGLCN   C227295   8.012   4.204  16.293
   17BGLCN   H227296   8.116   4.165  16.310
   17BGLCN    N27297   7.924   4.093  16.324
   17BGLCN   HN27298   7.840   4.092  16.273
   17BGLCN    C27299   7.942   4.000  16.418
   17BGLCN    O27300   8.045   3.984  16.481
   17BGLCN   CT27301   7.820   3.917  16.445
   17BGLCN  HT127302   7.825   3.823  16.394
   17BGLCN  HT227303   7.730   3.969  16.406
   17BGLCN  HT327304   7.809   3.895  16.553
   17BGLCN   C327305   7.993   4.326  16.381
   17BGLCN   H327306   7.894   4.367  16.347
   17BGLCN   O327307   7.982   4.289  16.521
   17BGLCN   C427308   8.097   4.431  16.341
   17BGLCN   H427309   8.199   4.387  16.348
   17BGLCN   O427310   8.095   4.542  16.429
   17BGLCN  HO427311   8.169   4.600  16.408
   17BGLCN   C627312   8.181   4.569  16.152
   17BGLCN  H6127313   8.147   4.673  16.163
   17BGLCN  H6227314   8.275   4.553  16.211
   17BGLCN   O627315   8.221   4.568  16.017
   17BGLCN  HO627316   8.154   4.546  15.953
   18AGAL    C127317   7.890   4.364  16.598
   18AGAL    H127318   7.934   4.465  16.617
   18AGAL    C527319   7.693   4.256  16.522
   18AGAL    H527320   7.763   4.183  16.478
   18AGAL    O527321   7.763   4.380  16.533
   18AGAL    C227322   7.859   4.302  16.733
   18AGAL    H227323   7.783   4.372  16.774
   18AGAL    O227324   7.966   4.305  16.826
   18AGAL    C327325   7.787   4.167  16.721
   18AGAL    H327326   7.847   4.101  16.654
   18AGAL    O327327   7.774   4.098  16.845
   18AGAL   HO327328   7.796   4.004  16.837
   18AGAL    C427329   7.654   4.191  16.654
   18AGAL    H427330   7.602   4.095  16.630
   18AGAL    O427331   7.564   4.268  16.735
   18AGAL   HO427332   7.539   4.217  16.812
   18AGAL    C627333   7.593   4.262  16.414
   18AGAL   H6127334   7.643   4.299  16.320
   18AGAL   H6227335   7.545   4.165  16.396
   18AGAL    O627336   7.488   4.344  16.455
   18AGAL   HO627337   7.526   4.418  16.506
   19ARHM    C127338   7.915   4.340  16.954
   19ARHM    H127339   7.813   4.305  16.971
   19ARHM    C527340   8.033   4.540  16.953
   19ARHM    H527341   8.045   4.513  16.849
   19ARHM    O527342   7.909   4.481  16.977
   19ARHM    C227343   8.007   4.277  17.050
   19ARHM    H227344   8.003   4.169  17.032
   19ARHM    O227345   7.965   4.289  17.185
   19ARHM    C327346   8.139   4.338  17.022
   19ARHM    H327347   8.177   4.319  16.920
   19ARHM    O327348   8.243   4.284  17.093
   19ARHM   HO327349   8.213   4.258  17.183
   19ARHM    C427350   8.130   4.483  17.040
   19ARHM    H427351   8.097   4.520  17.139
   19ARHM    O427352   8.250   4.541  17.008
   19ARHM   HO427353   8.301   4.515  16.930
   19ARHM    C627354   8.039   4.691  16.955
   19ARHM   H6127355   7.964   4.722  16.882
   19ARHM   H6227356   8.017   4.723  17.056
   19ARHM   H6327357   8.135   4.738  16.928
   20ARHM    C127358   7.858   4.199  17.209
   20ARHM    H127359   7.841   4.126  17.127
   20ARHM    C527360   7.738   4.358  17.333
   20ARHM    H527361   7.822   4.429  17.317
   20ARHM    O527362   7.734   4.268  17.223
   20ARHM    C227363   7.892   4.120  17.332
   20ARHM    H227364   7.995   4.077  17.320
   20ARHM    O227365   7.795   4.018  17.353
   20ARHM    C327366   7.895   4.209  17.448
   20ARHM    H327367   7.972   4.284  17.428
   20ARHM    O327368   7.932   4.131  17.561
   20ARHM    C427369   7.762   4.278  17.460
   20ARHM    H427370   7.678   4.206  17.470
   20ARHM    O427371   7.763   4.365  17.571
   20ARHM   HO427372   7.697   4.430  17.548
   20ARHM    C627373   7.608   4.438  17.331
   20ARHM   H6127374   7.516   4.377  17.344
   20ARHM   H6227375   7.615   4.513  17.412
   20ARHM   H6327376   7.598   4.492  17.236
   21BMANN   C127377   7.827   3.906  17.276
   21BMANN   H127378   7.912   3.930  17.207
   21BMANN   C527379   7.769   3.761  17.102
   21BMANN   H527380   7.861   3.794  17.045
   21BMANN   O527381   7.722   3.867  17.188
   21BMANN   C227382   7.868   3.794  17.370
   21BMANN   H227383   7.955   3.833  17.427
   21BMANN    N27384   7.764   3.753  17.466
   21BMANN   HN27385   7.673   3.748  17.429
   21BMANN    C27386   7.785   3.718  17.596
   21BMANN    O27387   7.897   3.699  17.641
   21BMANN   CT27388   7.662   3.701  17.684
   21BMANN  HT127389   7.612   3.604  17.666
   21BMANN  HT227390   7.592   3.786  17.668
   21BMANN  HT327391   7.692   3.704  17.791
   21BMANN   C327392   7.916   3.682  17.283
   21BMANN   H327393   8.004   3.722  17.228
   21BMANN   O327394   7.962   3.572  17.360
   21BMANN  HO327395   7.889   3.539  17.414
   21BMANN   C427396   7.808   3.641  17.184
   21BMANN   H427397   7.718   3.602  17.237
   21BMANN   O427398   7.849   3.538  17.097
   21BMANN  HO427399   7.799   3.457  17.111
   21BMANN   C627400   7.666   3.726  16.997
   21BMANN  H6127401   7.714   3.666  16.917
   21BMANN  H6227402   7.588   3.662  17.044
   21BMANN   O627403   7.605   3.842  16.941
   21BMANN  HO627404   7.560   3.888  17.013
   22BGLCN   C127405   8.006   4.195  17.661
   22BGLCN   H127406   7.991   4.305  17.663
   22BGLCN   C527407   8.212   4.217  17.764
   22BGLCN   H527408   8.183   4.324  17.748
   22BGLCN   O527409   8.144   4.170  17.647
   22BGLCN   C227410   7.955   4.130  17.786
   22BGLCN   H227411   7.974   4.020  17.781
   22BGLCN    N27412   7.818   4.164  17.805
   22BGLCN   HN27413   7.788   4.253  17.773
   22BGLCN    C27414   7.734   4.085  17.870
   22BGLCN    O27415   7.762   3.978  17.920
   22BGLCN   CT27416   7.594   4.138  17.877
   22BGLCN  HT127417   7.542   4.090  17.791
   22BGLCN  HT227418   7.595   4.248  17.865
   22BGLCN  HT327419   7.546   4.112  17.973
   22BGLCN   C327420   8.028   4.180  17.905
   22BGLCN   H327421   8.012   4.291  17.896
   22BGLCN   O327422   7.972   4.144  18.031
   22BGLCN   C427423   8.168   4.142  17.889
   22BGLCN   H427424   8.183   4.033  17.870
   22BGLCN   O427425   8.245   4.155  18.008
   22BGLCN  HO427426   8.339   4.136  18.004
   22BGLCN   C627427   8.350   4.202  17.761
   22BGLCN  H6127428   8.429   4.221  17.827
   22BGLCN  H6227429   8.347   4.090  17.749
   22BGLCN   O627430   8.396   4.300  17.672
   22BGLCN  HO627431   8.378   4.286  17.578
   23AGAL    C127432   8.007   4.215  18.148
   23AGAL    H127433   8.109   4.192  18.185
   23AGAL    C527434   7.861   4.400  18.109
   23AGAL    H527435   7.825   4.346  18.018
   23AGAL    O527436   7.996   4.358  18.135
   23AGAL    C227437   7.915   4.166  18.256
   23AGAL    H227438   7.945   4.221  18.347
   23AGAL    O227439   7.928   4.024  18.278
   23AGAL    C327440   7.773   4.207  18.225
   23AGAL    H327441   7.747   4.171  18.123
   23AGAL    O327442   7.678   4.146  18.312
   23AGAL   HO327443   7.713   4.151  18.401
   23AGAL    C427444   7.766   4.359  18.222
   23AGAL    H427445   7.663   4.394  18.199
   23AGAL    O427446   7.803   4.417  18.346
   23AGAL   HO427447   7.838   4.504  18.322
   23AGAL    C627448   7.864   4.546  18.068
   23AGAL   H6127449   7.945   4.562  17.993
   23AGAL   H6227450   7.769   4.574  18.017
   23AGAL    O627451   7.886   4.632  18.179
   23AGAL   HO627452   7.897   4.724  18.152
   24ARHM    C127453   8.033   3.981  18.361
   24ARHM    H127454   8.109   4.062  18.371
   24ARHM    C527455   8.028   3.750  18.300
   24ARHM    H527456   7.944   3.775  18.233
   24ARHM    O527457   8.106   3.868  18.312
   24ARHM    C227458   7.972   3.949  18.494
   24ARHM    H227459   7.909   4.035  18.528
   24ARHM    O227460   8.071   3.918  18.589
   24ARHM    C327461   7.884   3.829  18.479
   24ARHM    H327462   7.810   3.855  18.400
   24ARHM    O327463   7.811   3.804  18.599
   24ARHM   HO327464   7.859   3.740  18.653
   24ARHM    C427465   7.969   3.712  18.433
   24ARHM    H427466   8.052   3.693  18.506
   24ARHM    O427467   7.891   3.594  18.418
   24ARHM   HO427468   7.942   3.515  18.438
   24ARHM    C627469   8.111   3.637  18.233
   24ARHM   H6127470   8.042   3.570  18.177
   24ARHM   H6227471   8.181   3.681  18.160
   24ARHM   H6327472   8.172   3.579  18.305
   25ARHM    C127473   8.124   4.035  18.638
   25ARHM    H127474   8.110   4.121  18.572
   25ARHM    C527475   8.320   3.931  18.723
   25ARHM    H527476   8.270   3.846  18.674
   25ARHM    O527477   8.268   4.036  18.644
   25ARHM    C227478   8.054   4.057  18.767
   25ARHM    H227479   7.943   4.051  18.761
   25ARHM    O227480   8.082   4.187  18.806
   25ARHM    C327481   8.096   3.951  18.863
   25ARHM    H327482   8.066   3.847  18.835
   25ARHM    O327483   8.027   3.991  18.986
   25ARHM    C427484   8.249   3.952  18.868
   25ARHM    H427485   8.329   4.022  18.894
   25ARHM    O427486   8.264   3.887  18.993
   25ARHM   HO427487   8.357   3.877  19.019
   25ARHM    C627488   8.487   3.911  18.723
   25ARHM   H6127489   8.520   3.888  18.619
   25ARHM   H6227490   8.529   3.991  18.786
   25ARHM   H6327491   8.545   3.824  18.768
   26BMANN   C127492   8.034   4.300  18.752
   26BMANN   H127493   7.936   4.275  18.710
   26BMANN   C527494   8.050   4.471  18.593
   26BMANN   H527495   7.954   4.428  18.555
   26BMANN   O527496   8.115   4.357  18.648
   26BMANN   C227497   8.019   4.392  18.870
   26BMANN   H227498   7.956   4.342  18.948
   26BMANN    N27499   8.153   4.418  18.930
   26BMANN   HN27500   8.220   4.455  18.866
   26BMANN    C27501   8.185   4.431  19.064
   26BMANN    O27502   8.099   4.431  19.149
   26BMANN   CT27503   8.314   4.509  19.095
   26BMANN  HT127504   8.386   4.512  19.013
   26BMANN  HT227505   8.360   4.493  19.190
   26BMANN  HT327506   8.303   4.616  19.111
   26BMANN   C327507   7.941   4.509  18.810
   26BMANN   H327508   7.848   4.466  18.766
   26BMANN   O327509   7.889   4.599  18.906
   26BMANN  HO327510   7.829   4.555  18.967
   26BMANN   C427511   8.021   4.575  18.699
   26BMANN   H427512   8.115   4.619  18.736
   26BMANN   O427513   7.948   4.679  18.639
   26BMANN  HO427514   7.951   4.757  18.696
   26BMANN   C627515   8.125   4.515  18.467
   26BMANN  H6127516   8.177   4.430  18.423
   26BMANN  H6227517   8.056   4.557  18.393
   26BMANN   O627518   8.222   4.616  18.476
   26BMANN  HO627519   8.193   4.676  18.543
   27BGLCN   C127520   7.978   3.898  19.079
   27BGLCN   H127521   8.002   3.801  19.039
   27BGLCN   C527522   7.794   3.763  19.129
   27BGLCN   H527523   7.865   3.674  19.130
   27BGLCN   O527524   7.845   3.869  19.046
   27BGLCN   C227525   7.990   3.946  19.231
   27BGLCN   H227526   7.927   4.039  19.233
   27BGLCN    N27527   8.129   3.971  19.295
   27BGLCN   HN27528   8.201   3.920  19.248
   27BGLCN    C27529   8.158   4.080  19.378
   27BGLCN    O27530   8.068   4.139  19.437
   27BGLCN   CT27531   8.290   4.161  19.339
   27BGLCN  HT127532   8.359   4.104  19.275
   27BGLCN  HT227533   8.342   4.218  19.416
   27BGLCN  HT327534   8.269   4.258  19.291
   27BGLCN   C327535   7.930   3.844  19.318
   27BGLCN   H327536   7.987   3.750  19.320
   27BGLCN   O327537   7.934   3.907  19.448
   27BGLCN   C427538   7.791   3.814  19.273
   27BGLCN   H427539   7.729   3.907  19.271
   27BGLCN   O427540   7.730   3.717  19.354
   27BGLCN  HO427541   7.783   3.636  19.344
   27BGLCN   C627542   7.668   3.712  19.068
   27BGLCN  H6127543   7.635   3.622  19.123
   27BGLCN  H6227544   7.591   3.791  19.079
   27BGLCN   O627545   7.687   3.676  18.930
   27BGLCN  HO627546   7.603   3.658  18.886
   28AGAL    C127547   7.921   3.824  19.558
   28AGAL    H127548   7.817   3.791  19.567
   28AGAL    C527549   8.145   3.743  19.546
   28AGAL    H527550   8.178   3.819  19.473
   28AGAL    O527551   8.004   3.711  19.541
   28AGAL    C227552   7.954   3.891  19.689
   28AGAL    H227553   7.944   3.806  19.761
   28AGAL    O227554   7.873   3.996  19.742
   28AGAL    C327555   8.093   3.936  19.689
   28AGAL    H327556   8.126   3.981  19.598
   28AGAL    O327557   8.112   4.059  19.765
   28AGAL   HO327558   8.202   4.081  19.795
   28AGAL    C427559   8.178   3.800  19.679
   28AGAL    H427560   8.286   3.819  19.671
   28AGAL    O427561   8.152   3.701  19.781
   28AGAL   HO427562   8.233   3.686  19.832
   28AGAL    C627563   8.207   3.617  19.505
   28AGAL   H6127564   8.141   3.596  19.422
   28AGAL   H6227565   8.306   3.590  19.466
   28AGAL    O627566   8.176   3.519  19.592
   28AGAL   HO627567   8.125   3.460  19.537
   29ARHM    C127568   7.864   3.981  19.883
   29ARHM    H127569   7.946   3.920  19.928
   29ARHM    C527570   7.633   3.994  19.851
   29ARHM    H527571   7.652   4.010  19.742
   29ARHM    O527572   7.740   3.917  19.908
   29ARHM    C227573   7.865   4.113  19.953
   29ARHM    H227574   7.961   4.166  19.933
   29ARHM    O227575   7.846   4.094  20.096
   29ARHM    C327576   7.757   4.199  19.896
   29ARHM    H327577   7.772   4.212  19.787
   29ARHM    O327578   7.765   4.327  19.956
   29ARHM   HO327579   7.674   4.357  19.956
   29ARHM    C427580   7.624   4.131  19.917
   29ARHM    H427581   7.608   4.118  20.025
   29ARHM    O427582   7.513   4.207  19.868
   29ARHM   HO427583   7.524   4.246  19.780
   29ARHM    C627584   7.513   3.901  19.859
   29ARHM   H6127585   7.545   3.805  19.812
   29ARHM   H6227586   7.482   3.880  19.963
   29ARHM   H6327587   7.427   3.939  19.800
   30ARHM    C127588   7.963   4.096  20.172
   30ARHM    H127589   8.009   4.193  20.154
   30ARHM    C527590   7.986   3.864  20.184
   30ARHM    H527591   7.892   3.859  20.127
   30ARHM    O527592   8.050   3.986  20.147
   30ARHM    C227593   7.927   4.097  20.318
   30ARHM    H227594   7.861   4.184  20.339
   30ARHM    O227595   8.047   4.103  20.392
   30ARHM    C327596   7.861   3.969  20.359
   30ARHM    H327597   7.775   3.957  20.289
   30ARHM    O327598   7.805   3.979  20.491
   30ARHM    C427599   7.955   3.856  20.332
   30ARHM    H427600   8.050   3.865  20.390
   30ARHM    O427601   7.902   3.729  20.367
   30ARHM   HO427602   7.842   3.699  20.298
   30ARHM    C627603   8.070   3.748  20.141
   30ARHM   H6127604   8.020   3.652  20.162
   30ARHM   H6227605   8.099   3.751  20.034
   30ARHM   H6327606   8.158   3.763  20.206
   31BMANN   C127607   8.081   4.231  20.429
   31BMANN   H127608   7.993   4.295  20.450
   31BMANN   C527609   8.190   4.426  20.368
   31BMANN   H527610   8.100   4.486  20.387
   31BMANN   O527611   8.158   4.295  20.334
   31BMANN   C227612   8.161   4.217  20.552
   31BMANN   H227613   8.099   4.176  20.629
   31BMANN    N27614   8.271   4.110  20.511
   31BMANN   HN27615   8.298   4.101  20.413
   31BMANN    C27616   8.333   4.019  20.596
   31BMANN    O27617   8.282   4.007  20.706
   31BMANN   CT27618   8.458   3.928  20.572
   31BMANN  HT127619   8.540   3.933  20.503
   31BMANN  HT227620   8.414   3.849  20.514
   31BMANN  HT327621   8.507   3.898  20.668
   31BMANN   C327622   8.186   4.375  20.599
   31BMANN   H327623   8.095   4.436  20.596
   31BMANN   O327624   8.227   4.425  20.725
   31BMANN  HO327625   8.279   4.359  20.777
   31BMANN   C427626   8.262   4.429  20.498
   31BMANN   H427627   8.331   4.337  20.488
   31BMANN   O427628   8.316   4.563  20.529
   31BMANN  HO427629   8.257   4.627  20.570
   31BMANN   C627630   8.262   4.486  20.251
   31BMANN  H6127631   8.251   4.585  20.296
   31BMANN  H6227632   8.366   4.453  20.226
   31BMANN   O627633   8.206   4.506  20.124
   31BMANN  HO627634   8.117   4.542  20.121
   32BGLCN   C127635   7.892   3.951  20.597
   32BGLCN   H127636   7.992   3.994  20.576
   32BGLCN   C527637   7.999   3.790  20.731
   32BGLCN   H527638   8.079   3.853  20.696
   32BGLCN   O527639   7.903   3.812  20.628
   32BGLCN   C227640   7.841   4.021  20.720
   32BGLCN   H227641   7.748   3.966  20.749
   32BGLCN    N27642   7.809   4.159  20.694
   32BGLCN   HN27643   7.865   4.200  20.624
   32BGLCN    C27644   7.705   4.228  20.745
   32BGLCN    O27645   7.628   4.182  20.829
   32BGLCN   CT27646   7.691   4.368  20.691
   32BGLCN  HT127647   7.750   4.374  20.598
   32BGLCN  HT227648   7.730   4.446  20.760
   32BGLCN  HT327649   7.585   4.394  20.669
   32BGLCN   C327650   7.944   4.006  20.827
   32BGLCN   H327651   8.040   4.044  20.784
   32BGLCN   O327652   7.906   4.088  20.940
   32BGLCN   C427653   7.960   3.859  20.857
   32BGLCN   H427654   7.866   3.811  20.882
   32BGLCN   O427655   8.050   3.836  20.963
   32BGLCN  HO427656   8.001   3.832  21.045
   32BGLCN   C627657   8.035   3.642  20.743
   32BGLCN  H6127658   8.124   3.624  20.807
   32BGLCN  H6227659   7.950   3.588  20.789
   32BGLCN   O627660   8.063   3.583  20.616
   32BGLCN  HO627661   8.119   3.644  20.565
   33AGAL    C127662   8.019   4.144  21.001
   33AGAL    H127663   8.101   4.073  20.982
   33AGAL    C527664   7.969   4.371  20.955
   33AGAL    H527665   7.877   4.325  20.916
   33AGAL    O527666   8.065   4.266  20.940
   33AGAL    C227667   7.987   4.174  21.151
   33AGAL    H227668   8.065   4.240  21.195
   33AGAL    O227669   7.992   4.047  21.228
   33AGAL    C327670   7.884   4.280  21.165
   33AGAL    H327671   7.796   4.247  21.108
   33AGAL    O327672   7.848   4.291  21.302
   33AGAL   HO327673   7.922   4.313  21.360
   33AGAL    C427674   7.938   4.408  21.097
   33AGAL    H427675   7.860   4.486  21.100
   33AGAL    O427676   8.048   4.472  21.154
   33AGAL   HO427677   8.088   4.411  21.214
   33AGAL    C627678   7.999   4.488  20.865
   33AGAL   H6127679   7.997   4.448  20.762
   33AGAL   H6227680   7.923   4.564  20.872
   33AGAL    O627681   8.116   4.563  20.896
   33AGAL   HO627682   8.188   4.529  20.838
   34ARHM    C127683   8.060   4.032  21.355
   34ARHM    H127684   8.016   4.121  21.402
   34ARHM    C527685   8.267   3.901  21.261
   34ARHM    H527686   8.213   3.895  21.164
   34ARHM    O527687   8.211   4.004  21.356
   34ARHM    C227688   8.004   3.913  21.407
   34ARHM    H227689   7.895   3.921  21.422
   34ARHM    O227690   8.064   3.913  21.544
   34ARHM    C327691   8.043   3.802  21.306
   34ARHM    H327692   8.016   3.821  21.201
   34ARHM    O327693   7.954   3.690  21.323
   34ARHM   HO327694   7.993   3.602  21.332
   34ARHM    C427695   8.204   3.788  21.305
   34ARHM    H427696   8.259   3.795  21.397
   34ARHM    O427697   8.260   3.675  21.256
   34ARHM   HO427698   8.260   3.600  21.314
   34ARHM    C627699   8.420   3.912  21.202
   34ARHM   H6127700   8.509   3.913  21.261
   34ARHM   H6227701   8.450   3.818  21.155
   34ARHM   H6327702   8.445   4.003  21.142
   35ARHM    C127703   8.043   4.013  21.644
   35ARHM    H127704   7.943   4.061  21.629
   35ARHM    C527705   8.282   4.054  21.658
   35ARHM    H527706   8.296   3.977  21.583
   35ARHM    O527707   8.150   4.109  21.642
   35ARHM    C227708   8.049   3.953  21.784
   35ARHM    H227709   7.971   3.877  21.802
   35ARHM    O227710   8.026   4.062  21.879
   35ARHM    C327711   8.180   3.882  21.810
   35ARHM    H327712   8.211   3.817  21.728
   35ARHM    O327713   8.174   3.797  21.923
   35ARHM   HO327714   8.141   3.860  21.989
   35ARHM    C427715   8.282   3.986  21.806
   35ARHM    H427716   8.241   4.046  21.890
   35ARHM    O427717   8.399   3.955  21.876
   35ARHM   HO427718   8.456   3.899  21.820
   35ARHM    C627719   8.389   4.158  21.595
   35ARHM   H6127720   8.394   4.179  21.487
   35ARHM   H6227721   8.362   4.261  21.622
   35ARHM   H6327722   8.490   4.138  21.627
   36BMANN   C127723   7.894   4.112  21.884
   36BMANN   H127724   7.828   4.031  21.849
   36BMANN   C527725   7.725   4.260  21.807
   36BMANN   H527726   7.666   4.169  21.779
   36BMANN   O527727   7.866   4.227  21.802
   36BMANN   C227728   7.863   4.145  22.029
   36BMANN   H227729   7.881   4.051  22.086
   36BMANN    N27730   7.946   4.247  22.086
   36BMANN   HN27731   7.975   4.318  22.025
   36BMANN    C27732   7.974   4.259  22.216
   36BMANN    O27733   7.952   4.170  22.297
   36BMANN   CT27734   8.036   4.388  22.262
   36BMANN  HT127735   7.995   4.477  22.215
   36BMANN  HT227736   8.145   4.385  22.240
   36BMANN  HT327737   8.021   4.395  22.371
   36BMANN   C327738   7.718   4.183  22.038
   36BMANN   H327739   7.661   4.102  21.994
   36BMANN   O327740   7.672   4.207  22.171
   36BMANN  HO327741   7.619   4.136  22.209
   36BMANN   C427742   7.687   4.298  21.949
   36BMANN   H427743   7.741   4.389  21.981
   36BMANN   O427744   7.549   4.330  21.960
   36BMANN  HO427745   7.538   4.339  22.056
   36BMANN   C627746   7.687   4.366  21.707
   36BMANN  H6127747   7.718   4.335  21.605
   36BMANN  H6227748   7.576   4.373  21.705
   36BMANN   O627749   7.742   4.494  21.741
   36BMANN  HO627750   7.682   4.542  21.799
    1ECLIP HB6S27751   0.248   5.297  11.776
    1ECLIP  OB627752   0.389   5.362  11.908
    1ECLIP  CB627753   0.293   5.393  11.806
    1ECLIP HB6R27754   0.215   5.459  11.846
    1ECLIP  CB527755   0.348   5.458  11.680
    1ECLIP  OB527756   0.452   5.371  11.632
    1ECLIP  HB527757   0.389   5.557  11.710
    1ECLIP  CB127758   0.516   5.423  11.515
    1ECLIP  HB127759   0.558   5.525  11.533
    1ECLIP  OA627760   0.620   5.342  11.469
    1ECLIP  CA627761   0.600   5.201  11.491
    1ECLIP HA6R27762   0.495   5.173  11.513
    1ECLIP HA6S27763   0.662   5.171  11.577
    1ECLIP  CB427764   0.241   5.478  11.570
    1ECLIP  HB427765   0.192   5.381  11.541
    1ECLIP  OB427766   0.150   5.573  11.626
    1ECLIP   PB27767  -0.002   5.527  11.673
    1ECLIP OPB427768  -0.042   5.589  11.806
    1ECLIP OPB327769   0.005   5.385  11.729
    1ECLIP OPB227770  -0.088   5.545  11.551
    1ECLIP  CB327771   0.308   5.532  11.445
    1ECLIP  OB327772   0.222   5.545  11.332
    1ECLIP  HB327773   0.361   5.627  11.470
    1ECLIP  C7127774   0.154   5.658  11.315
    1ECLIP  O7127775   0.195   5.766  11.357
    1ECLIP  C7227776   0.087   5.650  11.175
    1ECLIP H72R27777   0.162   5.626  11.097
    1ECLIP H72S27778   0.041   5.748  11.154
    1ECLIP  CB227779   0.417   5.435  11.403
    1ECLIP  HB227780   0.369   5.334  11.388
    1ECLIP  NB227781   0.484   5.481  11.281
    1ECLIP HNB227782   0.564   5.539  11.294
    1ECLIP  CA427783   0.766   5.176  11.319
    1ECLIP  HA427784   0.757   5.285  11.296
    1ECLIP  OA427785   0.855   5.152  11.426
    1ECLIP HOA427786   0.842   5.218  11.496
    1ECLIP  CA527787   0.642   5.124  11.370
    1ECLIP  HA527788   0.652   5.015  11.393
    1ECLIP  OA527789   0.546   5.146  11.268
    1ECLIP  CA127790   0.574   5.074  11.146
    1ECLIP  HA127791   0.499   5.116  11.076
    1ECLIP  OA127792   0.569   4.935  11.154
    1ECLIP OPA227793   0.471   4.806  11.339
    1ECLIP OPA327794   0.325   4.981  11.223
    1ECLIP OPA427795   0.391   4.774  11.098
    1ECLIP   PA27796   0.428   4.871  11.208
    1ECLIP  CA327797   0.798   5.106  11.191
    1ECLIP  HA327798   0.845   5.005  11.207
    1ECLIP  OA327799   0.887   5.194  11.136
    1ECLIP  C3127800   0.879   5.313  11.067
    1ECLIP  O3127801   0.901   5.298  10.947
    1ECLIP  C3227802   0.942   5.443  11.149
    1ECLIP H32R27803   1.018   5.481  11.090
    1ECLIP H32S27804   1.007   5.446  11.238
    1ECLIP  CA227805   0.698   5.121  11.087
    1ECLIP  HA227806   0.672   5.227  11.068
    1ECLIP  NA227807   0.740   5.057  10.961
    1ECLIP HNA227808   0.836   5.033  10.951
    1ECLIP  C7327809  -0.020   5.539  11.171
    1ECLIP H73R27810  -0.082   5.549  11.264
    1ECLIP  O7327811   0.052   5.416  11.164
    1ECLIP  C8127812   0.005   5.311  11.230
    1ECLIP  O8127813  -0.101   5.309  11.291
    1ECLIP  C8227814   0.070   5.184  11.170
    1ECLIP H82R27815   0.031   5.095  11.223
    1ECLIP H82S27816   0.179   5.188  11.192
    1ECLIP  C8327817   0.050   5.169  11.017
    1ECLIP H83R27818   0.125   5.234  10.965
    1ECLIP H83S27819  -0.051   5.205  10.990
    1ECLIP  C8427820   0.074   5.026  10.966
    1ECLIP H84R27821  -0.008   4.958  10.996
    1ECLIP H84S27822   0.170   4.991  11.013
    1ECLIP  C8527823   0.095   5.021  10.813
    1ECLIP H85R27824   0.162   5.108  10.791
    1ECLIP H85S27825   0.000   5.039  10.760
    1ECLIP  C8627826   0.171   4.896  10.765
    1ECLIP H86R27827   0.101   4.815  10.735
    1ECLIP H86S27828   0.232   4.855  10.849
    1ECLIP  C8727829   0.272   4.926  10.652
    1ECLIP H87R27830   0.317   4.831  10.616
    1ECLIP H87S27831   0.356   4.987  10.694
    1ECLIP  C8827832   0.210   5.007  10.538
    1ECLIP H88R27833   0.199   5.113  10.571
    1ECLIP H88S27834   0.106   4.971  10.524
    1ECLIP  C8927835   0.292   5.003  10.408
    1ECLIP H89R27836   0.398   4.974  10.426
    1ECLIP H89S27837   0.295   5.104  10.362
    1ECLIP C81027838   0.225   4.910  10.306
    1ECLIPH810R27839   0.116   4.911  10.329
    1ECLIPH810S27840   0.263   4.807  10.323
    1ECLIP C81127841   0.247   4.952  10.160
    1ECLIPH811R27842   0.230   4.866  10.090
    1ECLIPH811S27843   0.353   4.985  10.152
    1ECLIP C81227844   0.161   5.069  10.110
    1ECLIPH812R27845   0.198   5.095  10.008
    1ECLIPH812S27846   0.175   5.156  10.177
    1ECLIP C81327847   0.010   5.044  10.100
    1ECLIPH813R27848  -0.006   4.960  10.029
    1ECLIPH813S27849  -0.032   5.014  10.199
    1ECLIP C81427850  -0.066   5.166  10.049
    1ECLIPH814R27851  -0.019   5.210   9.958
    1ECLIPH814S27852  -0.069   5.244  10.128
    1ECLIPH814T27853  -0.171   5.138  10.025
    1ECLIP  C7427854  -0.115   5.539  11.049
    1ECLIP H74R27855  -0.181   5.624  11.040
    1ECLIP H74S27856  -0.187   5.457  11.069
    1ECLIP  C7527857  -0.046   5.510  10.914
    1ECLIP H75R27858  -0.118   5.450  10.854
    1ECLIP H75S27859   0.043   5.446  10.933
    1ECLIP  C7627860   0.003   5.631  10.831
    1ECLIP H76R27861   0.097   5.670  10.874
    1ECLIP H76S27862  -0.065   5.718  10.836
    1ECLIP  C7727863   0.024   5.602  10.681
    1ECLIP H77R27864  -0.073   5.573  10.636
    1ECLIP H77S27865   0.090   5.515  10.667
    1ECLIP  C7827866   0.091   5.724  10.616
    1ECLIP H78R27867   0.031   5.814  10.643
    1ECLIP H78S27868   0.189   5.735  10.668
    1ECLIP  C7927869   0.125   5.716  10.465
    1ECLIP H79R27870   0.229   5.681  10.454
    1ECLIP H79S27871   0.119   5.818  10.419
    1ECLIP C71027872   0.032   5.629  10.381
    1ECLIPH710R27873   0.026   5.527  10.423
    1ECLIPH710S27874  -0.068   5.675  10.385
    1ECLIP C71127875   0.074   5.619  10.234
    1ECLIPH711R27876   0.077   5.720  10.189
    1ECLIPH711S27877   0.175   5.572  10.228
    1ECLIP C71227878  -0.026   5.530  10.160
    1ECLIPH712R27879  -0.125   5.579  10.162
    1ECLIPH712S27880  -0.035   5.436  10.219
    1ECLIP C71327881   0.018   5.495  10.017
    1ECLIPH713R27882   0.115   5.440  10.021
    1ECLIPH713S27883  -0.059   5.430   9.969
    1ECLIP C71427884   0.033   5.615   9.925
    1ECLIPH714R27885  -0.068   5.659   9.920
    1ECLIPH714S27886   0.107   5.690   9.959
    1ECLIPH714T27887   0.058   5.582   9.823
    1ECLIP  C5127888   0.436   5.451  11.160
    1ECLIP  O5127889   0.353   5.363  11.144
    1ECLIP  C5227890   0.485   5.532  11.043
    1ECLIP H52R27891   0.421   5.623  11.030
    1ECLIP H52S27892   0.588   5.566  11.061
    1ECLIP  C5327893   0.478   5.449  10.915
    1ECLIP H53R27894   0.502   5.341  10.936
    1ECLIP  O5327895   0.569   5.511  10.826
    1ECLIP  C6127896   0.671   5.441  10.787
    1ECLIP  O6127897   0.696   5.326  10.815
    1ECLIP  C6227898   0.745   5.530  10.689
    1ECLIP H62R27899   0.808   5.594  10.754
    1ECLIP H62S27900   0.679   5.599  10.638
    1ECLIP  C6327901   0.819   5.447  10.582
    1ECLIP H63R27902   0.780   5.350  10.550
    1ECLIP H63S27903   0.873   5.402  10.664
    1ECLIP  C6427904   0.886   5.515  10.455
    1ECLIP H64R27905   0.988   5.501  10.427
    1ECLIP H64S27906   0.976   5.580  10.432
    1ECLIP  C6527907   0.785   5.570  10.384
    1ECLIP H65R27908   0.743   5.638  10.458
    1ECLIP H65S27909   0.735   5.477  10.351
    1ECLIP  C6627910   0.828   5.650  10.280
    1ECLIP H66R27911   0.915   5.723  10.309
    1ECLIP H66S27912   0.744   5.701  10.229
    1ECLIP  C6727913   0.852   5.557  10.170
    1ECLIP H67R27914   0.924   5.479  10.187
    1ECLIP H67S27915   0.895   5.652  10.146
    1ECLIP  C6827916   0.806   5.434  10.099
    1ECLIP H68R27917   0.728   5.472  10.037
    1ECLIP H68S27918   0.792   5.349  10.171
    1ECLIP  C6927919   0.896   5.372   9.996
    1ECLIP H69R27920   1.008   5.360  10.007
    1ECLIP H69S27921   0.880   5.446   9.913
    1ECLIP C61027922   0.853   5.244   9.967
    1ECLIPH610R27923   0.746   5.253   9.970
    1ECLIPH610S27924   0.894   5.161  10.026
    1ECLIP C61127925   0.912   5.234   9.843
    1ECLIPH611R27926   1.011   5.287   9.849
    1ECLIPH611S27927   0.896   5.129   9.799
    1ECLIP C61227928   0.918   5.322   9.733
    1ECLIPH612R27929   0.839   5.277   9.710
    1ECLIPH612S27930   0.863   5.414   9.720
    1ECLIPH612T27931   0.951   5.254   9.650
    1ECLIP  C5427932   0.336   5.458  10.854
    1ECLIP H54R27933   0.322   5.564  10.825
    1ECLIP H54S27934   0.264   5.434  10.935
    1ECLIP  C5527935   0.306   5.367  10.733
    1ECLIP H55R27936   0.196   5.361  10.718
    1ECLIP H55S27937   0.340   5.264  10.757
    1ECLIP  C5627938   0.368   5.427  10.605
    1ECLIP H56R27939   0.477   5.439  10.622
    1ECLIP H56S27940   0.326   5.528  10.587
    1ECLIP  C5727941   0.358   5.345  10.477
    1ECLIP H57R27942   0.253   5.317  10.454
    1ECLIP H57S27943   0.415   5.250  10.491
    1ECLIP  C5827944   0.422   5.424  10.360
    1ECLIP H58R27945   0.386   5.529  10.358
    1ECLIP H58S27946   0.531   5.431  10.382
    1ECLIP  C5927947   0.394   5.359  10.223
    1ECLIP H59R27948   0.284   5.349  10.208
    1ECLIP H59S27949   0.437   5.257  10.232
    1ECLIP C51027950   0.445   5.440  10.101
    1ECLIPH510R27951   0.548   5.476  10.119
    1ECLIPH510S27952   0.380   5.530  10.088
    1ECLIP C51127953   0.443   5.364   9.967
    1ECLIPH511R27954   0.532   5.298   9.966
    1ECLIPH511S27955   0.352   5.301   9.958
    1ECLIP C51227956   0.453   5.455   9.844
    1ECLIPH512R27957   0.426   5.398   9.751
    1ECLIPH512S27958   0.381   5.539   9.850
    1ECLIP C51327959   0.594   5.509   9.829
    1ECLIPH513R27960   0.669   5.427   9.826
    1ECLIPH513S27961   0.632   5.579   9.904
    1ECLIP C51427962   0.607   5.581   9.704
    1ECLIPH514R27963   0.532   5.660   9.686
    1ECLIPH514S27964   0.707   5.621   9.681
    1ECLIPH514T27965   0.586   5.502   9.631
    1ECLIP  C3327966   0.900   5.568  11.192
    1ECLIP H33R27967   0.981   5.625  11.241
    1ECLIP  O3327968   0.810   5.529  11.290
    1ECLIP HO3327969   0.871   5.518  11.367
    1ECLIP  C3427970   0.860   5.612  11.058
    1ECLIP H34R27971   0.798   5.535  11.010
    1ECLIP H34S27972   0.953   5.622  10.997
    1ECLIP  C3527973   0.810   5.745  11.079
    1ECLIP H35R27974   0.894   5.812  11.110
    1ECLIP H35S27975   0.740   5.731  11.164
    1ECLIP  C3627976   0.744   5.781  10.951
    1ECLIP H36R27977   0.718   5.690  10.897
    1ECLIP H36S27978   0.812   5.845  10.889
    1ECLIP  C3727979   0.605   5.832  10.983
    1ECLIP H37R27980   0.641   5.927  10.979
    1ECLIP H37S27981   0.572   5.827  11.087
    1ECLIP  C3827982   0.504   5.852  10.872
    1ECLIP H38R27983   0.445   5.761  10.870
    1ECLIP H38S27984   0.429   5.929  10.895
    1ECLIP  C3927985   0.569   5.884  10.738
    1ECLIP H39R27986   0.651   5.813  10.717
    1ECLIP H39S27987   0.608   5.989  10.733
    1ECLIP C31027988   0.467   5.872  10.627
    1ECLIPH310R27989   0.398   5.955  10.650
    1ECLIPH310S27990   0.404   5.782  10.633
    1ECLIP C31127991   0.537   5.860  10.490
    1ECLIPH311R27992   0.629   5.925  10.487
    1ECLIPH311S27993   0.571   5.755  10.476
    1ECLIP C31227994   0.444   5.878  10.371
    1ECLIPH312R27995   0.338   5.856  10.389
    1ECLIPH312S27996   0.427   5.982  10.365
    1ECLIP C31327997   0.499   5.824  10.237
    1ECLIPH313R27998   0.595   5.873  10.209
    1ECLIPH313S27999   0.526   5.719  10.254
    1ECLIP C31428000   0.402   5.830  10.119
    1ECLIPH314R28001   0.363   5.927  10.094
    1ECLIPH314S28002   0.448   5.795  10.024
    1ECLIPH314T28003   0.305   5.784  10.143
    1ECLIP  C1128004   0.656   5.025  10.861
    1ECLIP  O1128005   0.546   5.075  10.844
    1ECLIP  C1228006   0.709   4.919  10.769
    1ECLIP H12R28007   0.658   4.824  10.791
    1ECLIP H12S28008   0.819   4.908  10.788
    1ECLIP  C1328009   0.689   4.954  10.623
    1ECLIP H13R28010   0.589   4.999  10.601
    1ECLIP  O1328011   0.700   4.833  10.549
    1ECLIP HO1328012   0.652   4.832  10.466
    1ECLIP  C1428013   0.796   5.053  10.581
    1ECLIP H14R28014   0.894   5.031  10.631
    1ECLIP H14S28015   0.764   5.154  10.614
    1ECLIP  C1528016   0.817   5.055  10.431
    1ECLIP H15R28017   0.849   4.956  10.393
    1ECLIP H15S28018   0.906   5.111  10.415
    1ECLIP  C1628019   0.705   5.123  10.354
    1ECLIP H16R28020   0.709   5.234  10.365
    1ECLIP H16S28021   0.610   5.091  10.401
    1ECLIP  C1728022   0.713   5.085  10.207
    1ECLIP H17R28023   0.820   5.099  10.180
    1ECLIP H17S28024   0.652   5.152  10.143
    1ECLIP  C1828025   0.675   4.940  10.184
    1ECLIP H18R28026   0.742   4.877  10.246
    1ECLIP H18S28027   0.569   4.925  10.215
    1ECLIP  C1928028   0.689   4.895  10.039
    1ECLIP H19R28029   0.676   4.785  10.031
    1ECLIP H19S28030   0.791   4.922  10.001
    1ECLIP C11028031   0.582   4.961   9.953
    1ECLIPH110R28032   0.478   4.951   9.988
    1ECLIPH110S28033   0.608   5.068   9.960
    1ECLIP C11128034   0.586   4.903   9.814
    1ECLIPH111R28035   0.695   4.908   9.795
    1ECLIPH111S28036   0.562   4.795   9.817
    1ECLIP C11228037   0.489   4.964   9.707
    1ECLIPH112R28038   0.390   4.951   9.748
    1ECLIPH112S28039   0.468   5.072   9.700
    1ECLIP C11328040   0.532   4.940   9.562
    1ECLIPH113R28041   0.633   4.985   9.540
    1ECLIPH113S28042   0.545   4.831   9.554
    1ECLIP C11428043   0.442   4.986   9.449
    1ECLIPH114R28044   0.337   4.957   9.467
    1ECLIPH114S28045   0.450   5.096   9.433
    1ECLIPH114T28046   0.473   4.933   9.357
    2AKDO    C128047   0.413   5.591  11.980
    2AKDO   O1128048   0.316   5.672  11.978
    2AKDO   O1228049   0.532   5.613  11.943
    2AKDO    C228050   0.380   5.444  12.023
    2AKDO    C628051   0.214   5.304  12.132
    2AKDO    H628052   0.221   5.244  12.038
    2AKDO    O628053   0.249   5.437  12.086
    2AKDO    C328054   0.476   5.391  12.128
    2AKDO   H3128055   0.481   5.461  12.215
    2AKDO   H3228056   0.576   5.383  12.081
    2AKDO    C428057   0.439   5.253  12.173
    2AKDO    H428058   0.430   5.186  12.085
    2AKDO    O428059   0.526   5.202  12.273
    2AKDO    C528060   0.305   5.251  12.236
    2AKDO    H528061   0.271   5.145  12.248
    2AKDO    O528062   0.302   5.325  12.362
    2AKDO    C728063   0.077   5.281  12.200
    2AKDO    H728064   0.046   5.359  12.275
    2AKDO    O728065   0.020   5.151  12.192
    2AKDO   HO728066   0.002   5.130  12.098
    2AKDO    C828067  -0.005   5.325  12.116
    2AKDO   H8128068   0.041   5.433  12.104
    2AKDO   H8228069   0.020   5.275  12.011
    2AKDO    O828070  -0.156   5.350  12.131
    2AKDO   HO828071  -0.208   5.421  12.084
    3AKDO    C128072   0.625   5.050  12.113
    3AKDO   O1128073   0.671   5.088  12.002
    3AKDO   O1228074   0.587   4.934  12.141
    3AKDO    C228075   0.648   5.144  12.235
    3AKDO    C628076   0.750   5.347  12.311
    3AKDO    H628077   0.656   5.401  12.328
    3AKDO    O628078   0.747   5.244  12.207
    3AKDO    C328079   0.688   5.076  12.368
    3AKDO   H3128080   0.784   5.021  12.355
    3AKDO   H3228081   0.614   5.000  12.393
    3AKDO    C428082   0.687   5.179  12.480
    3AKDO    H428083   0.592   5.232  12.487
    3AKDO    O428084   0.718   5.121  12.605
    3AKDO   HO428085   0.656   5.146  12.674
    3AKDO    C528086   0.780   5.284  12.442
    3AKDO    H528087   0.809   5.350  12.525
    3AKDO    O528088   0.893   5.227  12.424
    3AKDO   HO528089   0.892   5.150  12.366
    3AKDO    C728090   0.853   5.447  12.264
    3AKDO    H728091   0.943   5.391  12.226
    3AKDO    O728092   0.877   5.544  12.369
    3AKDO   HO728093   0.959   5.592  12.348
    3AKDO    C828094   0.804   5.515  12.142
    3AKDO   H8128095   0.787   5.437  12.065
    3AKDO   H8228096   0.713   5.570  12.166
    3AKDO    O828097   0.899   5.605  12.088
    3AKDO   HO828098   0.974   5.549  12.061
    4AHEP    C128099   0.215   5.278  12.464
    4AHEP    H128100   0.117   5.319  12.436
    4AHEP    C528101   0.298   5.066  12.537
    4AHEP    H528102   0.394   5.095  12.488
    4AHEP    O528103   0.194   5.137  12.467
    4AHEP    C228104   0.225   5.330  12.608
    4AHEP    H228105   0.246   5.439  12.604
    4AHEP    O228106   0.099   5.318  12.673
    4AHEP   HO228107   0.088   5.393  12.731
    4AHEP    C328108   0.335   5.262  12.686
    4AHEP    H328109   0.436   5.285  12.646
    4AHEP    O328110   0.329   5.304  12.824
    4AHEP    C428111   0.308   5.113  12.683
    4AHEP    H428112   0.213   5.086  12.733
    4AHEP    O428113   0.421   5.052  12.744
    4AHEP    P428114   0.412   4.965  12.886
    4AHEP  OP4228115   0.548   4.991  12.954
    4AHEP  OP4328116   0.382   4.822  12.842
    4AHEP  OP4428117   0.293   5.019  12.966
    4AHEP    C628118   0.274   4.914  12.518
    4AHEP    H628119   0.369   4.868  12.550
    4AHEP    O628120   0.173   4.855  12.603
    4AHEP   HO628121   0.219   4.794  12.664
    4AHEP    C728122   0.246   4.872  12.372
    4AHEP   H7128123   0.259   4.763  12.358
    4AHEP   H7228124   0.316   4.925  12.304
    4AHEP    O728125   0.114   4.900  12.325
    4AHEP   HO728126   0.055   4.842  12.376
    5AHEP    C128127   0.441   5.365  12.883
    5AHEP    H128128   0.535   5.328  12.835
    5AHEP    C528129   0.316   5.562  12.932
    5AHEP    H528130   0.226   5.506  12.896
    5AHEP    O528131   0.432   5.507  12.865
    5AHEP    C228132   0.450   5.335  13.033
    5AHEP    H228133   0.449   5.223  13.045
    5AHEP    O228134   0.575   5.382  13.086
    5AHEP   HO228135   0.632   5.307  13.097
    5AHEP    C328136   0.329   5.389  13.109
    5AHEP    H328137   0.237   5.342  13.068
    5AHEP    O328138   0.332   5.369  13.253
    5AHEP    C428139   0.324   5.538  13.083
    5AHEP    H428140   0.417   5.588  13.121
    5AHEP    O428141   0.205   5.590  13.143
    5AHEP    P428142   0.218   5.700  13.269
    5AHEP  OP4228143   0.078   5.707  13.329
    5AHEP  OP4328144   0.266   5.831  13.208
    5AHEP  OP4428145   0.318   5.643  13.368
    5AHEP    C628146   0.297   5.708  12.892
    5AHEP    H628147   0.204   5.743  12.939
    5AHEP    O628148   0.404   5.795  12.936
    5AHEP   HO628149   0.482   5.776  12.886
    5AHEP    C728150   0.275   5.720  12.744
    5AHEP   H7128151   0.198   5.797  12.728
    5AHEP   H7228152   0.229   5.631  12.698
    5AHEP    O728153   0.394   5.766  12.679
    6AHEP    C128154   0.461   5.661  12.616
    6AHEP    H128155   0.418   5.562  12.640
    6AHEP    C528156   0.502   5.800  12.432
    6AHEP    H528157   0.452   5.884  12.488
    6AHEP    O528158   0.447   5.675  12.475
    6AHEP    C228159   0.607   5.658  12.658
    6AHEP    H228160   0.608   5.650  12.770
    6AHEP    O228161   0.674   5.544  12.610
    6AHEP   HO228162   0.698   5.489  12.685
    6AHEP    C328163   0.671   5.789  12.619
    6AHEP    H328164   0.611   5.861  12.678
    6AHEP    O328165   0.811   5.802  12.654
    6AHEP   HO328166   0.833   5.847  12.737
    6AHEP    C428167   0.647   5.803  12.469
    6AHEP    H428168   0.710   5.729  12.415
    6AHEP    O428169   0.682   5.923  12.412
    6AHEP   HO428170   0.645   6.000  12.457
    6AHEP    C628171   0.476   5.834  12.285
    6AHEP    H628172   0.507   5.940  12.266
    6AHEP    O628173   0.557   5.757  12.194
    6AHEP   HO628174   0.497   5.709  12.135
    6AHEP    C728175   0.328   5.837  12.253
    6AHEP   H7128176   0.313   5.878  12.150
    6AHEP   H7228177   0.278   5.907  12.325
    6AHEP    O728178   0.266   5.709  12.264
    6AHEP   HO728179   0.243   5.698  12.356
    7AGLC    C128180   0.268   5.254  13.302
    7AGLC    H128181   0.169   5.239  13.253
    7AGLC    C528182   0.476   5.147  13.345
    7AGLC    H528183   0.529   5.242  13.319
    7AGLC    O528184   0.350   5.141  13.278
    7AGLC    C228185   0.245   5.254  13.454
    7AGLC    H228186   0.206   5.153  13.479
    7AGLC    O228187   0.145   5.343  13.499
    7AGLC   HO228188   0.177   5.435  13.493
    7AGLC    C328189   0.372   5.271  13.534
    7AGLC    H328190   0.422   5.363  13.497
    7AGLC    O328191   0.348   5.286  13.677
    7AGLC    C428192   0.457   5.149  13.496
    7AGLC    H428193   0.404   5.056  13.528
    7AGLC    O428194   0.586   5.156  13.555
    7AGLC   HO428195   0.606   5.078  13.608
    7AGLC    C628196   0.562   5.036  13.286
    7AGLC   H6128197   0.567   5.052  13.176
    7AGLC   H6228198   0.666   5.040  13.322
    7AGLC    O628199   0.514   4.904  13.307
    7AGLC   HO628200   0.540   4.868  13.391
    8AGLC    C128201   0.392   5.410  13.728
    8AGLC    H128202   0.493   5.434  13.687
    8AGLC    C528203   0.174   5.519  13.759
    8AGLC    H528204   0.124   5.426  13.725
    8AGLC    O528205   0.305   5.522  13.697
    8AGLC    C228206   0.409   5.408  13.880
    8AGLC    H228207   0.454   5.506  13.906
    8AGLC    O228208   0.497   5.306  13.930
    8AGLC    C328209   0.276   5.396  13.949
    8AGLC    H328210   0.228   5.303  13.908
    8AGLC    O328211   0.299   5.378  14.090
    8AGLC    C428212   0.193   5.516  13.910
    8AGLC    H428213   0.248   5.608  13.940
    8AGLC    O428214   0.069   5.515  13.978
    8AGLC   HO428215   0.033   5.426  13.973
    8AGLC    C628216   0.080   5.631  13.711
    8AGLC   H6128217   0.082   5.642  13.600
    8AGLC   H6228218  -0.026   5.608  13.738
    8AGLC    O628219   0.109   5.757  13.772
    8AGLC   HO628220   0.062   5.762  13.856
    9AGAL    C128221   0.627   5.301  13.878
    9AGAL    H128222   0.626   5.304  13.768
    9AGAL    C528223   0.726   5.409  14.066
    9AGAL    H528224   0.625   5.399  14.112
    9AGAL    O528225   0.708   5.411  13.923
    9AGAL    C228226   0.686   5.167  13.920
    9AGAL    H228227   0.785   5.161  13.871
    9AGAL    O228228   0.606   5.064  13.856
    9AGAL    C328229   0.704   5.162  14.070
    9AGAL    H328230   0.609   5.170  14.126
    9AGAL    O328231   0.762   5.038  14.108
    9AGAL   HO328232   0.719   4.969  14.057
    9AGAL    C428233   0.792   5.279  14.107
    9AGAL    H428234   0.819   5.281  14.215
    9AGAL    O428235   0.907   5.270  14.031
    9AGAL   HO428236   0.981   5.299  14.088
    9AGAL    C628237   0.778   5.540  14.126
    9AGAL   H6128238   0.711   5.623  14.101
    9AGAL   H6228239   0.787   5.530  14.236
    9AGAL    O628240   0.904   5.588  14.088
    9AGAL   HO628241   0.903   5.635  14.004
   10AGAL    C128242   0.574   4.937  13.911
   10AGAL    H128243   0.666   4.875  13.919
   10AGAL    C528244   0.382   5.008  14.040
   10AGAL    H528245   0.404   5.110  14.000
   10AGAL    O528246   0.509   4.941  14.041
   10AGAL    C228247   0.480   4.869  13.812
   10AGAL    H228248   0.461   4.766  13.848
   10AGAL    O228249   0.537   4.848  13.683
   10AGAL   HO228250   0.529   4.753  13.669
   10AGAL    C328251   0.348   4.946  13.807
   10AGAL    H328252   0.371   5.052  13.781
   10AGAL    O328253   0.256   4.901  13.708
   10AGAL   HO328254   0.250   4.962  13.634
   10AGAL    C428255   0.285   4.943  13.943
   10AGAL    H428256   0.191   5.002  13.944
   10AGAL    O428257   0.253   4.810  13.981
   10AGAL   HO428258   0.337   4.765  13.997
   10AGAL    C628259   0.321   5.036  14.178
   10AGAL   H6128260   0.397   5.078  14.246
   10AGAL   H6228261   0.241   5.113  14.164
   10AGAL    O628262   0.260   4.925  14.243
   10AGAL   HO628263   0.303   4.908  14.328
   11BGLC    C128264   0.298   5.485  14.184
   11BGLC    H128265   0.193   5.519  14.199
   11BGLC    C528266   0.394   5.699  14.249
   11BGLC    H528267   0.294   5.744  14.274
   11BGLC    O528268   0.386   5.594  14.148
   11BGLC    C228269   0.348   5.425  14.315
   11BGLC    H228270   0.451   5.383  14.301
   11BGLC    O228271   0.265   5.316  14.354
   11BGLC   HO228272   0.319   5.237  14.366
   11BGLC    C328273   0.358   5.525  14.427
   11BGLC    H328274   0.257   5.564  14.454
   11BGLC    O328275   0.422   5.464  14.541
   11BGLC    C428276   0.449   5.637  14.379
   11BGLC    H428277   0.549   5.594  14.355
   11BGLC    O428278   0.467   5.732  14.482
   11BGLC   HO428279   0.528   5.695  14.549
   11BGLC    C628280   0.476   5.813  14.189
   11BGLC   H6128281   0.515   5.885  14.265
   11BGLC   H6228282   0.561   5.775  14.130
   11BGLC    O628283   0.394   5.886  14.099
   11BGLC   HO628284   0.388   5.979  14.128
   12BGLCN   C128285   0.358   5.469  14.667
   12BGLCN   H128286   0.283   5.387  14.673
   12BGLCN   C528287   0.231   5.593  14.822
   12BGLCN   H528288   0.155   5.513  14.831
   12BGLCN   O528289   0.295   5.593  14.694
   12BGLCN   C228290   0.468   5.447  14.771
   12BGLCN   H228291   0.534   5.539  14.766
   12BGLCN    N28292   0.542   5.327  14.740
   12BGLCN   HN28293   0.485   5.247  14.732
   12BGLCN    C28294   0.675   5.324  14.726
   12BGLCN    O28295   0.744   5.423  14.744
   12BGLCN   CT28296   0.738   5.192  14.690
   12BGLCN  HT128297   0.795   5.154  14.777
   12BGLCN  HT228298   0.810   5.207  14.607
   12BGLCN  HT328299   0.659   5.121  14.660
   12BGLCN   C328300   0.412   5.442  14.912
   12BGLCN   H328301   0.340   5.357  14.917
   12BGLCN   O328302   0.517   5.418  15.011
   12BGLCN   C428303   0.338   5.574  14.931
   12BGLCN   H428304   0.409   5.659  14.923
   12BGLCN   O428305   0.281   5.583  15.059
   12BGLCN  HO428306   0.206   5.523  15.068
   12BGLCN   C628307   0.159   5.726  14.827
   12BGLCN  H6128308   0.114   5.736  14.926
   12BGLCN  H6228309   0.233   5.809  14.817
   12BGLCN   O628310   0.058   5.744  14.727
   12BGLCN  HO628311  -0.021   5.696  14.755
   13AGAL    C128312   0.481   5.331  15.118
   13AGAL    H128313   0.379   5.357  15.144
   13AGAL    C528314   0.629   5.153  15.063
   13AGAL    H528315   0.669   5.227  14.990
   13AGAL    O528316   0.491   5.192  15.083
   13AGAL    C228317   0.563   5.346  15.247
   13AGAL    H228318   0.525   5.267  15.316
   13AGAL    O228319   0.535   5.472  15.311
   13AGAL    C328320   0.709   5.312  15.226
   13AGAL    H328321   0.746   5.371  15.139
   13AGAL    O328322   0.792   5.343  15.336
   13AGAL   HO328323   0.874   5.385  15.307
   13AGAL    C428324   0.716   5.166  15.187
   13AGAL    H428325   0.821   5.143  15.159
   13AGAL    O428326   0.680   5.076  15.294
   13AGAL   HO428327   0.600   5.105  15.338
   13AGAL    C628328   0.650   5.021  14.991
   13AGAL   H6128329   0.592   5.021  14.896
   13AGAL   H6228330   0.759   5.013  14.967
   13AGAL    O628331   0.615   4.908  15.068
   13AGAL   HO628332   0.687   4.891  15.129
   14ARHM    C128333   0.471   5.469  15.437
   14ARHM    H128334   0.405   5.380  15.441
   14ARHM    C528335   0.461   5.705  15.454
   14ARHM    H528336   0.515   5.712  15.357
   14ARHM    O528337   0.386   5.582  15.455
   14ARHM    C228338   0.575   5.463  15.548
   14ARHM    H228339   0.640   5.375  15.530
   14ARHM    O228340   0.524   5.458  15.682
   14ARHM    C328341   0.657   5.590  15.542
   14ARHM    H328342   0.695   5.603  15.438
   14ARHM    O328343   0.772   5.587  15.627
   14ARHM   HO328344   0.743   5.587  15.718
   14ARHM    C428345   0.563   5.706  15.568
   14ARHM    H428346   0.507   5.694  15.664
   14ARHM    O428347   0.633   5.829  15.577
   14ARHM   HO428348   0.633   5.865  15.665
   14ARHM    C628349   0.359   5.820  15.464
   14ARHM   H6128350   0.273   5.805  15.395
   14ARHM   H6228351   0.325   5.828  15.568
   14ARHM   H6328352   0.405   5.917  15.437
   15ARHM    C128353   0.430   5.357  15.711
   15ARHM    H128354   0.443   5.272  15.640
   15ARHM    C528355   0.258   5.504  15.800
   15ARHM    H528356   0.314   5.599  15.780
   15ARHM    O528357   0.293   5.403  15.703
   15ARHM    C228358   0.458   5.305  15.850
   15ARHM    H228359   0.566   5.277  15.857
   15ARHM    O228360   0.378   5.187  15.867
   15ARHM    C328361   0.431   5.414  15.949
   15ARHM    H328362   0.491   5.504  15.920
   15ARHM    O328363   0.478   5.368  16.076
   15ARHM    C428364   0.285   5.451  15.939
   15ARHM    H428365   0.225   5.358  15.953
   15ARHM    O428366   0.241   5.546  16.036
   15ARHM   HO428367   0.144   5.545  16.032
   15ARHM    C628368   0.108   5.536  15.783
   15ARHM   H6128369   0.078   5.625  15.842
   15ARHM   H6228370   0.087   5.552  15.675
   15ARHM   H6328371   0.045   5.453  15.818
   16BMANN   C128372   0.383   5.114  15.987
   16BMANN   H128373   0.336   5.175  16.068
   16BMANN   C528374   0.516   5.009  16.155
   16BMANN   H528375   0.464   5.073  16.231
   16BMANN   O528376   0.516   5.077  16.028
   16BMANN   C228377   0.300   4.988  15.967
   16BMANN   H228378   0.197   5.021  15.940
   16BMANN    N28379   0.346   4.898  15.862
   16BMANN   HN28380   0.407   4.825  15.892
   16BMANN    C28381   0.306   4.898  15.735
   16BMANN    O28382   0.223   4.976  15.692
   16BMANN   CT28383   0.372   4.797  15.643
   16BMANN  HT128384   0.304   4.713  15.623
   16BMANN  HT228385   0.464   4.757  15.690
   16BMANN  HT328386   0.398   4.846  15.547
   16BMANN   C328387   0.296   4.917  16.100
   16BMANN   H328388   0.251   4.985  16.176
   16BMANN   O328389   0.207   4.808  16.090
   16BMANN  HO328390   0.152   4.802  16.169
   16BMANN   C428391   0.437   4.879  16.145
   16BMANN   H428392   0.485   4.811  16.072
   16BMANN   O428393   0.441   4.810  16.270
   16BMANN  HO428394   0.522   4.758  16.279
   16BMANN   C628395   0.654   4.985  16.211
   16BMANN  H6128396   0.647   4.982  16.322
   16BMANN  H6228397   0.691   4.885  16.179
   16BMANN   O628398   0.751   5.082  16.171
   16BMANN  HO628399   0.822   5.036  16.125
   17BGLCN   C128400   0.540   5.467  16.151
   17BGLCN   H128401   0.490   5.564  16.134
   17BGLCN   C528402   0.734   5.587  16.194
   17BGLCN   H528403   0.693   5.688  16.173
   17BGLCN   O528404   0.673   5.485  16.115
   17BGLCN   C228405   0.531   5.421  16.295
   17BGLCN   H228406   0.589   5.326  16.310
   17BGLCN    N28407   0.393   5.392  16.325
   17BGLCN   HN28408   0.329   5.446  16.272
   17BGLCN    C28409   0.346   5.309  16.418
   17BGLCN    O28410   0.413   5.234  16.486
   17BGLCN   CT28411   0.198   5.316  16.440
   17BGLCN  HT128412   0.144   5.233  16.388
   17BGLCN  HT228413   0.163   5.414  16.404
   17BGLCN  HT328414   0.177   5.311  16.548
   17BGLCN   C328415   0.590   5.530  16.381
   17BGLCN   H328416   0.539   5.624  16.347
   17BGLCN   O328417   0.561   5.508  16.521
   17BGLCN   C428418   0.734   5.545  16.343
   17BGLCN   H428419   0.782   5.443  16.352
   17BGLCN   O428420   0.809   5.635  16.426
   17BGLCN  HO428421   0.903   5.640  16.405
   17BGLCN   C628422   0.868   5.594  16.146
   17BGLCN  H6128423   0.916   5.693  16.157
   17BGLCN  H6228424   0.911   5.524  16.222
   17BGLCN   O628425   0.901   5.541  16.018
   17BGLCN  HO628426   0.866   5.595  15.947
   18AGAL    C128427   0.538   5.624  16.599
   18AGAL    H128428   0.636   5.675  16.617
   18AGAL    C528429   0.317   5.669  16.521
   18AGAL    H528430   0.324   5.568  16.477
   18AGAL    O528431   0.452   5.719  16.534
   18AGAL    C228432   0.474   5.596  16.733
   18AGAL    H228433   0.460   5.698  16.776
   18AGAL    O228434   0.561   5.527  16.823
   18AGAL    C328435   0.333   5.537  16.721
   18AGAL    H328436   0.338   5.448  16.654
   18AGAL    O328437   0.281   5.492  16.846
   18AGAL   HO328438   0.239   5.406  16.837
   18AGAL    C428439   0.246   5.642  16.653
   18AGAL    H428440   0.145   5.600  16.630
   18AGAL    O428441   0.226   5.759  16.732
   18AGAL   HO428442   0.171   5.733  16.807
   18AGAL    C628443   0.245   5.744  16.413
   18AGAL   H6128444   0.303   5.727  16.320
   18AGAL   H6228445   0.143   5.702  16.400
   18AGAL    O628446   0.238   5.884  16.435
   18AGAL   HO628447   0.298   5.910  16.506
   19ARHM    C128448   0.550   5.582  16.953
   19ARHM    H128449   0.449   5.624  16.971
   19ARHM    C528450   0.777   5.653  16.962
   19ARHM    H528451   0.787   5.612  16.858
   19ARHM    O528452   0.641   5.690  16.979
   19ARHM    C228453   0.581   5.470  17.048
   19ARHM    H228454   0.519   5.380  17.024
   19ARHM    O228455   0.550   5.509  17.182
   19ARHM    C328456   0.725   5.427  17.033
   19ARHM    H328457   0.744   5.397  16.927
   19ARHM    O328458   0.752   5.315  17.115
   19ARHM   HO328459   0.726   5.338  17.204
   19ARHM    C428460   0.815   5.545  17.061
   19ARHM    H428461   0.797   5.580  17.165
   19ARHM    O428462   0.954   5.515  17.050
   19ARHM   HO428463   0.973   5.486  16.961
   19ARHM    C628464   0.866   5.778  16.964
   19ARHM   H6128465   0.829   5.844  16.884
   19ARHM   H6228466   0.863   5.832  17.061
   19ARHM   H6328467   0.972   5.752  16.944
   20ARHM    C128468   0.412   5.516  17.207
   20ARHM    H128469   0.354   5.469  17.124
   20ARHM    C528470   0.418   5.715  17.332
   20ARHM    H528471   0.528   5.718  17.318
   20ARHM    O528472   0.361   5.649  17.220
   20ARHM    C228473   0.388   5.436  17.332
   20ARHM    H228474   0.439   5.336  17.321
   20ARHM    O228475   0.248   5.417  17.352
   20ARHM    C328476   0.447   5.503  17.449
   20ARHM    H328477   0.557   5.515  17.432
   20ARHM    O328478   0.424   5.420  17.563
   20ARHM    C428479   0.385   5.639  17.460
   20ARHM    H428480   0.274   5.636  17.469
   20ARHM    O428481   0.440   5.707  17.572
   20ARHM   HO428482   0.425   5.799  17.551
   20ARHM    C628483   0.369   5.861  17.333
   20ARHM   H6128484   0.260   5.865  17.351
   20ARHM   H6228485   0.418   5.918  17.414
   20ARHM   H6328486   0.394   5.909  17.236
   21BMANN   C128487   0.206   5.308  17.276
   21BMANN   H128488   0.285   5.275  17.206
   21BMANN   C528489   0.076   5.231  17.093
   21BMANN   H528490   0.167   5.200  17.039
   21BMANN   O528491   0.101   5.343  17.184
   21BMANN   C228492   0.169   5.192  17.366
   21BMANN   H228493   0.263   5.168  17.423
   21BMANN    N28494   0.075   5.218  17.469
   21BMANN   HN28495  -0.003   5.270  17.431
   21BMANN    C28496   0.079   5.186  17.602
   21BMANN    O28497   0.155   5.105  17.648
   21BMANN   CT28498  -0.029   5.241  17.693
   21BMANN  HT128499  -0.134   5.217  17.666
   21BMANN  HT228500  -0.029   5.351  17.699
   21BMANN  HT328501  -0.011   5.199  17.793
   21BMANN   C328502   0.138   5.077  17.276
   21BMANN   H328503   0.232   5.049  17.226
   21BMANN   O328504   0.090   4.968  17.354
   21BMANN  HO328505   0.019   4.988  17.417
   21BMANN   C428506   0.033   5.115  17.175
   21BMANN   H428507  -0.048   5.169  17.222
   21BMANN   O428508  -0.014   5.012  17.090
   21BMANN  HO428509  -0.103   4.987  17.114
   21BMANN   C628510  -0.029   5.263  16.989
   21BMANN  H6128511  -0.031   5.189  16.909
   21BMANN  H6228512  -0.132   5.253  17.028
   21BMANN   O628513  -0.002   5.392  16.936
   21BMANN  HO628514  -0.017   5.459  17.005
   22BGLCN   C128515   0.524   5.419  17.661
   22BGLCN   H128516   0.584   5.513  17.661
   22BGLCN   C528517   0.709   5.303  17.749
   22BGLCN   H528518   0.765   5.400  17.749
   22BGLCN   O528519   0.611   5.308  17.644
   22BGLCN   C228520   0.453   5.404  17.792
   22BGLCN   H228521   0.396   5.307  17.786
   22BGLCN    N28522   0.362   5.514  17.810
   22BGLCN   HN28523   0.391   5.602  17.775
   22BGLCN    C28524   0.244   5.506  17.871
   22BGLCN    O28525   0.201   5.402  17.922
   22BGLCN   CT28526   0.167   5.635  17.876
   22BGLCN  HT128527   0.096   5.633  17.790
   22BGLCN  HT228528   0.236   5.721  17.864
   22BGLCN  HT328529   0.113   5.645  17.972
   22BGLCN   C328530   0.552   5.399  17.906
   22BGLCN   H328531   0.614   5.492  17.902
   22BGLCN   O328532   0.475   5.398  18.027
   22BGLCN   C428533   0.643   5.283  17.884
   22BGLCN   H428534   0.583   5.189  17.879
   22BGLCN   O428535   0.739   5.266  17.989
   22BGLCN  HO428536   0.753   5.172  18.009
   22BGLCN   C628537   0.799   5.192  17.714
   22BGLCN  H6128538   0.864   5.167  17.801
   22BGLCN  H6228539   0.747   5.099  17.683
   22BGLCN   O628540   0.881   5.239  17.608
   22BGLCN  HO628541   0.843   5.263  17.525
   23AGAL    C128542   0.537   5.435  18.146
   23AGAL    H128543   0.603   5.352  18.181
   23AGAL    C528544   0.537   5.672  18.108
   23AGAL    H528545   0.476   5.653  18.017
   23AGAL    O528546   0.616   5.554  18.136
   23AGAL    C228547   0.433   5.454  18.255
   23AGAL    H228548   0.490   5.479  18.347
   23AGAL    O228549   0.356   5.334  18.279
   23AGAL    C328550   0.348   5.576  18.224
   23AGAL    H328551   0.304   5.565  18.123
   23AGAL    O328552   0.236   5.588  18.312
   23AGAL   HO328553   0.266   5.573  18.402
   23AGAL    C428554   0.438   5.699  18.222
   23AGAL    H428555   0.380   5.791  18.199
   23AGAL    O428556   0.506   5.719  18.345
   23AGAL   HO428557   0.588   5.765  18.320
   23AGAL    C628558   0.631   5.783  18.069
   23AGAL   H6128559   0.705   5.745  17.994
   23AGAL   H6228560   0.576   5.866  18.019
   23AGAL    O628561   0.703   5.833  18.181
   23AGAL   HO628562   0.771   5.893  18.151
   24ARHM    C128563   0.409   5.236  18.365
   24ARHM    H128564   0.515   5.260  18.376
   24ARHM    C528565   0.262   5.060  18.301
   24ARHM    H528566   0.215   5.132  18.230
   24ARHM    O528567   0.398   5.100  18.319
   24ARHM    C228568   0.340   5.251  18.498
   24ARHM    H228569   0.347   5.357  18.530
   24ARHM    O228570   0.398   5.164  18.597
   24ARHM    C328571   0.195   5.214  18.480
   24ARHM    H328572   0.155   5.281  18.399
   24ARHM    O328573   0.116   5.239  18.596
   24ARHM   HO328574   0.126   5.164  18.654
   24ARHM    C428575   0.188   5.069  18.433
   24ARHM    H428576   0.240   5.004  18.507
   24ARHM    O428577   0.053   5.025  18.422
   24ARHM   HO428578   0.046   4.930  18.438
   24ARHM    C628579   0.256   4.920  18.234
   24ARHM   H6128580   0.163   4.910  18.177
   24ARHM   H6228581   0.338   4.909  18.161
   24ARHM   H6328582   0.264   4.837  18.307
   25ARHM    C128583   0.519   5.209  18.651
   25ARHM    H128584   0.563   5.285  18.583
   25ARHM    C528585   0.584   5.004  18.756
   25ARHM    H528586   0.490   4.957  18.721
   25ARHM    O528587   0.621   5.108  18.663
   25ARHM    C228588   0.491   5.275  18.783
   25ARHM    H228589   0.404   5.344  18.773
   25ARHM    O228590   0.607   5.347  18.826
   25ARHM    C328591   0.452   5.169  18.882
   25ARHM    H328592   0.360   5.116  18.845
   25ARHM    O328593   0.428   5.231  19.008
   25ARHM    C428594   0.559   5.066  18.893
   25ARHM    H428595   0.656   5.112  18.927
   25ARHM    O428596   0.520   4.968  18.988
   25ARHM   HO428597   0.600   4.942  19.034
   25ARHM    C628598   0.692   4.894  18.758
   25ARHM   H6128599   0.713   4.859  18.654
   25ARHM   H6228600   0.786   4.930  18.803
   25ARHM   H6328601   0.655   4.807  18.816
   26BMANN   C128602   0.622   5.472  18.763
   26BMANN   H128603   0.526   5.508  18.721
   26BMANN   C528604   0.728   5.601  18.593
   26BMANN   H528605   0.627   5.626  18.553
   26BMANN   O528606   0.721   5.473  18.657
   26BMANN   C228607   0.662   5.568  18.872
   26BMANN   H228608   0.582   5.565  18.950
   26BMANN    N28609   0.788   5.527  18.933
   26BMANN   HN28610   0.863   5.514  18.870
   26BMANN    C28611   0.813   5.509  19.063
   26BMANN    O28612   0.723   5.509  19.145
   26BMANN   CT28613   0.956   5.490  19.105
   26BMANN  HT128614   1.013   5.441  19.024
   26BMANN  HT228615   0.970   5.432  19.198
   26BMANN  HT328616   0.996   5.591  19.125
   26BMANN   C328617   0.663   5.706  18.811
   26BMANN   H328618   0.563   5.730  18.770
   26BMANN   O328619   0.691   5.803  18.910
   26BMANN  HO328620   0.615   5.812  18.967
   26BMANN   C428621   0.761   5.705  18.696
   26BMANN   H428622   0.860   5.701  18.730
   26BMANN   O428623   0.773   5.827  18.634
   26BMANN  HO428624   0.834   5.879  18.689
   26BMANN   C628625   0.819   5.592  18.467
   26BMANN  H6128626   0.800   5.493  18.423
   26BMANN  H6228627   0.791   5.669  18.394
   26BMANN   O628628   0.960   5.612  18.476
   26BMANN  HO628629   0.978   5.680  18.543
   27BGLCN   C128630   0.321   5.183  19.084
   27BGLCN   H128631   0.307   5.074  19.077
   27BGLCN   C528632   0.089   5.210  19.129
   27BGLCN   H528633   0.085   5.098  19.129
   27BGLCN   O528634   0.200   5.248  19.046
   27BGLCN   C228635   0.357   5.225  19.225
   27BGLCN   H228636   0.360   5.332  19.231
   27BGLCN    N28637   0.487   5.180  19.269
   27BGLCN   HN28638   0.509   5.087  19.244
   27BGLCN    C28639   0.573   5.262  19.334
   27BGLCN    O28640   0.535   5.366  19.387
   27BGLCN   CT28641   0.718   5.221  19.341
   27BGLCN  HT128642   0.735   5.133  19.278
   27BGLCN  HT228643   0.751   5.198  19.443
   27BGLCN  HT328644   0.781   5.305  19.304
   27BGLCN   C328645   0.247   5.191  19.318
   27BGLCN   H328646   0.234   5.081  19.314
   27BGLCN   O328647   0.294   5.236  19.448
   27BGLCN   C428648   0.120   5.257  19.271
   27BGLCN   H428649   0.127   5.369  19.271
   27BGLCN   O428650   0.017   5.214  19.359
   27BGLCN  HO428651  -0.008   5.130  19.321
   27BGLCN   C628652  -0.042   5.256  19.068
   27BGLCN  H6128653  -0.127   5.208  19.122
   27BGLCN  H6228654  -0.052   5.366  19.079
   27BGLCN   O628655  -0.052   5.222  18.930
   27BGLCN  HO628656  -0.132   5.257  18.892
   28AGAL    C128657   0.233   5.181  19.561
   28AGAL    H128658   0.133   5.227  19.571
   28AGAL    C528659   0.343   4.971  19.549
   28AGAL    H528660   0.417   5.018  19.479
   28AGAL    O528661   0.217   5.041  19.541
   28AGAL    C228662   0.300   5.205  19.698
   28AGAL    H228663   0.229   5.153  19.767
   28AGAL    O228664   0.309   5.340  19.745
   28AGAL    C328665   0.433   5.133  19.705
   28AGAL    H328666   0.497   5.169  19.621
   28AGAL    O328667   0.511   5.154  19.823
   28AGAL   HO328668   0.594   5.200  19.799
   28AGAL    C428669   0.404   4.988  19.685
   28AGAL    H428670   0.497   4.935  19.678
   28AGAL    O428671   0.326   4.930  19.787
   28AGAL   HO428672   0.382   4.878  19.846
   28AGAL    C628673   0.333   4.828  19.503
   28AGAL   H6128674   0.316   4.832  19.394
   28AGAL   H6228675   0.426   4.772  19.511
   28AGAL    O628676   0.234   4.752  19.571
   28AGAL   HO628677   0.149   4.761  19.528
   29ARHM    C128678   0.282   5.342  19.884
   29ARHM    H128679   0.301   5.244  19.932
   29ARHM    C528680   0.114   5.509  19.861
   29ARHM    H528681   0.133   5.506  19.750
   29ARHM    O528682   0.146   5.377  19.908
   29ARHM    C228683   0.365   5.445  19.953
   29ARHM    H228684   0.472   5.423  19.929
   29ARHM    O228685   0.342   5.440  20.096
   29ARHM    C328686   0.334   5.582  19.898
   29ARHM    H328687   0.352   5.583  19.788
   29ARHM    O328688   0.418   5.678  19.957
   29ARHM   HO328689   0.364   5.757  19.959
   29ARHM    C428690   0.191   5.617  19.924
   29ARHM    H428691   0.163   5.615  20.032
   29ARHM    O428692   0.152   5.747  19.876
   29ARHM   HO428693   0.173   5.760  19.782
   29ARHM    C628694  -0.031   5.522  19.901
   29ARHM   H6128695  -0.051   5.479  19.801
   29ARHM   H6228696  -0.073   5.486  19.992
   29ARHM   H6328697  -0.123   5.569  19.869
   30ARHM    C128698   0.434   5.367  20.173
   30ARHM    H128699   0.537   5.404  20.151
   30ARHM    C528700   0.301   5.170  20.185
   30ARHM    H528701   0.225   5.226  20.127
   30ARHM    O528702   0.429   5.225  20.152
   30ARHM    C228703   0.402   5.393  20.318
   30ARHM    H228704   0.403   5.502  20.339
   30ARHM    O228705   0.497   5.326  20.398
   30ARHM    C328706   0.268   5.337  20.358
   30ARHM    H328707   0.194   5.381  20.288
   30ARHM    O328708   0.229   5.379  20.491
   30ARHM    C428709   0.270   5.189  20.332
   30ARHM    H428710   0.348   5.137  20.391
   30ARHM    O428711   0.148   5.126  20.366
   30ARHM   HO428712   0.077   5.140  20.301
   30ARHM    C628713   0.293   5.023  20.142
   30ARHM   H6128714   0.190   4.985  20.159
   30ARHM   H6228715   0.313   5.015  20.034
   30ARHM   H6328716   0.365   4.959  20.198
   31BMANN   C128717   0.608   5.401  20.427
   31BMANN   H128718   0.583   5.506  20.454
   31BMANN   C528719   0.817   5.454  20.339
   31BMANN   H528720   0.796   5.558  20.381
   31BMANN   O528721   0.693   5.395  20.315
   31BMANN   C228722   0.662   5.329  20.545
   31BMANN   H228723   0.592   5.341  20.631
   31BMANN    N28724   0.681   5.187  20.518
   31BMANN   HN28725   0.694   5.158  20.423
   31BMANN    C28726   0.682   5.094  20.614
   31BMANN    O28727   0.661   5.125  20.731
   31BMANN   CT28728   0.706   4.952  20.570
   31BMANN  HT128729   0.786   4.951  20.494
   31BMANN  HT228730   0.612   4.912  20.526
   31BMANN  HT328731   0.735   4.889  20.656
   31BMANN   C328732   0.789   5.393  20.582
   31BMANN   H328733   0.771   5.502  20.600
   31BMANN   O328734   0.843   5.351  20.704
   31BMANN  HO328735   0.773   5.303  20.751
   31BMANN   C428736   0.867   5.377  20.454
   31BMANN   H428737   0.891   5.271  20.443
   31BMANN   O428738   0.992   5.392  20.437
   31BMANN  HO428739   0.990   5.471  20.490
   31BMANN   C628740   0.924   5.483  20.228
   31BMANN  H6128741   1.001   5.558  20.263
   31BMANN  H6228742   0.984   5.393  20.204
   31BMANN   O628743   0.865   5.524  20.107
   31BMANN  HO628744   0.834   5.615  20.113
   32BGLCN   C128745   0.282   5.304  20.598
   32BGLCN   H128746   0.386   5.274  20.577
   32BGLCN   C528747   0.269   5.106  20.728
   32BGLCN   H528748   0.373   5.083  20.695
   32BGLCN   O528749   0.207   5.186  20.627
   32BGLCN   C228750   0.285   5.390  20.722
   32BGLCN   H228751   0.178   5.405  20.751
   32BGLCN    N28752   0.344   5.519  20.693
   32BGLCN   HN28753   0.414   5.514  20.624
   32BGLCN    C28754   0.308   5.637  20.746
   32BGLCN    O28755   0.219   5.652  20.828
   32BGLCN   CT28756   0.387   5.754  20.691
   32BGLCN  HT128757   0.436   5.720  20.597
   32BGLCN  HT228758   0.465   5.789  20.761
   32BGLCN  HT328759   0.321   5.840  20.667
   32BGLCN   C328760   0.357   5.312  20.829
   32BGLCN   H328761   0.454   5.280  20.784
   32BGLCN   O328762   0.387   5.390  20.946
   32BGLCN   C428763   0.276   5.187  20.856
   32BGLCN   H428764   0.174   5.219  20.887
   32BGLCN   O428765   0.330   5.108  20.960
   32BGLCN  HO428766   0.298   5.140  21.046
   32BGLCN   C628767   0.196   4.973  20.740
   32BGLCN  H6128768   0.255   4.906  20.806
   32BGLCN  H6228769   0.097   4.987  20.788
   32BGLCN   O628770   0.179   4.908  20.613
   32BGLCN  HO628771   0.261   4.920  20.563
   33AGAL    C128772   0.512   5.359  21.004
   33AGAL    H128773   0.532   5.250  20.997
   33AGAL    C528774   0.611   5.572  20.956
   33AGAL    H528775   0.509   5.596  20.920
   33AGAL    O528776   0.622   5.429  20.940
   33AGAL    C228777   0.511   5.399  21.151
   33AGAL    H228778   0.613   5.379  21.189
   33AGAL    O228779   0.425   5.310  21.224
   33AGAL    C328780   0.491   5.550  21.166
   33AGAL    H328781   0.401   5.582  21.109
   33AGAL    O328782   0.461   5.590  21.300
   33AGAL   HO328783   0.532   5.565  21.359
   33AGAL    C428784   0.611   5.620  21.101
   33AGAL    H428785   0.595   5.730  21.103
   33AGAL    O428786   0.738   5.595  21.158
   33AGAL   HO428787   0.738   5.529  21.227
   33AGAL    C628788   0.705   5.647  20.862
   33AGAL   H6128789   0.674   5.619  20.759
   33AGAL   H6228790   0.692   5.757  20.874
   33AGAL    O628791   0.844   5.620  20.878
   33AGAL   HO628792   0.874   5.545  20.825
   34ARHM    C128793   0.482   5.256  21.342
   34ARHM    H128794   0.524   5.339  21.401
   34ARHM    C528795   0.551   5.046  21.244
   34ARHM    H528796   0.518   5.079  21.143
   34ARHM    O528797   0.590   5.162  21.320
   34ARHM    C228798   0.367   5.190  21.418
   34ARHM    H228799   0.280   5.261  21.421
   34ARHM    O228800   0.400   5.153  21.555
   34ARHM    C328801   0.321   5.069  21.337
   34ARHM    H328802   0.288   5.102  21.235
   34ARHM    O328803   0.209   5.004  21.398
   34ARHM   HO328804   0.147   4.969  21.333
   34ARHM    C428805   0.437   4.974  21.316
   34ARHM    H428806   0.478   4.942  21.414
   34ARHM    O428807   0.393   4.859  21.243
   34ARHM   HO428808   0.349   4.799  21.303
   34ARHM    C628809   0.671   4.949  21.223
   34ARHM   H6128810   0.716   4.910  21.316
   34ARHM   H6228811   0.629   4.859  21.176
   34ARHM   H6328812   0.749   4.989  21.155
   35ARHM    C128813   0.447   5.253  21.643
   35ARHM    H128814   0.393   5.349  21.623
   35ARHM    C528815   0.664   5.151  21.657
   35ARHM    H528816   0.634   5.070  21.588
   35ARHM    O528817   0.589   5.271  21.630
   35ARHM    C228818   0.421   5.213  21.788
   35ARHM    H228819   0.312   5.194  21.803
   35ARHM    O228820   0.463   5.314  21.880
   35ARHM    C328821   0.495   5.088  21.822
   35ARHM    H328822   0.463   5.013  21.750
   35ARHM    O328823   0.461   5.035  21.950
   35ARHM   HO328824   0.438   5.106  22.012
   35ARHM    C428825   0.644   5.107  21.803
   35ARHM    H428826   0.681   5.187  21.871
   35ARHM    O428827   0.714   4.985  21.832
   35ARHM   HO428828   0.668   4.912  21.793
   35ARHM    C628829   0.810   5.180  21.621
   35ARHM   H6128830   0.827   5.200  21.514
   35ARHM   H6228831   0.840   5.268  21.681
   35ARHM   H6328832   0.874   5.092  21.647
   36BMANN   C128833   0.384   5.428  21.884
   36BMANN   H128834   0.281   5.404  21.849
   36BMANN   C528835   0.343   5.647  21.808
   36BMANN   H528836   0.240   5.615  21.780
   36BMANN   O528837   0.433   5.534  21.801
   36BMANN   C228838   0.381   5.473  22.029
   36BMANN   H228839   0.336   5.388  22.085
   36BMANN    N28840   0.512   5.502  22.086
   36BMANN   HN28841   0.581   5.538  22.025
   36BMANN    C28842   0.539   5.489  22.219
   36BMANN    O28843   0.463   5.439  22.299
   36BMANN   CT28844   0.671   5.541  22.270
   36BMANN  HT128845   0.694   5.638  22.223
   36BMANN  HT228846   0.752   5.469  22.250
   36BMANN  HT328847   0.664   5.553  22.380
   36BMANN   C328848   0.286   5.591  22.038
   36BMANN   H328849   0.185   5.560  22.002
   36BMANN   O328850   0.272   5.640  22.171
   36BMANN  HO328851   0.183   5.625  22.206
   36BMANN   C428852   0.336   5.701  21.949
   36BMANN   H428853   0.436   5.737  21.982
   36BMANN   O428854   0.251   5.813  21.955
   36BMANN  HO428855   0.247   5.832  22.051
   36BMANN   C628856   0.385   5.753  21.711
   36BMANN  H6128857   0.392   5.708  21.610
   36BMANN  H6228858   0.303   5.827  21.705
   36BMANN   O628859   0.509   5.816  21.747
   36BMANN  HO628860   0.486   5.896  21.796
    1ECLIP HB6S28861   2.667   0.460  11.778
    1ECLIP  OB628862   2.809   0.529  11.909
    1ECLIP  CB628863   2.711   0.557  11.806
    1ECLIP HB6R28864   2.629   0.621  11.846
    1ECLIP  CB528865   2.764   0.625  11.680
    1ECLIP  OB528866   2.872   0.542  11.632
    1ECLIP  HB528867   2.801   0.726  11.711
    1ECLIP  CB128868   2.933   0.596  11.515
    1ECLIP  HB128869   2.971   0.700  11.533
    1ECLIP  OA628870   3.043   0.521  11.469
    1ECLIP  CA628871   3.032   0.379  11.492
    1ECLIP HA6R28872   2.927   0.347  11.511
    1ECLIP HA6S28873   3.095   0.354  11.581
    1ECLIP  CB428874   2.657   0.642  11.570
    1ECLIP  HB428875   2.611   0.544  11.542
    1ECLIP  OB428876   2.560   0.738  11.618
    1ECLIP   PB28877   2.407   0.691  11.667
    1ECLIP OPB428878   2.363   0.778  11.785
    1ECLIP OPB328879   2.424   0.544  11.704
    1ECLIP OPB228880   2.311   0.712  11.550
    1ECLIP  CB328881   2.723   0.699  11.445
    1ECLIP  OB328882   2.637   0.709  11.330
    1ECLIP  HB328883   2.772   0.796  11.470
    1ECLIP  C7128884   2.565   0.819  11.314
    1ECLIP  O7128885   2.596   0.927  11.362
    1ECLIP  C7228886   2.497   0.809  11.175
    1ECLIP H72R28887   2.573   0.787  11.096
    1ECLIP H72S28888   2.447   0.905  11.154
    1ECLIP  CB228889   2.834   0.604  11.403
    1ECLIP  HB228890   2.789   0.502  11.388
    1ECLIP  NB228891   2.899   0.653  11.281
    1ECLIP HNB228892   2.976   0.714  11.293
    1ECLIP  CA428893   3.209   0.365  11.317
    1ECLIP  HA428894   3.189   0.472  11.290
    1ECLIP  OA428895   3.302   0.353  11.423
    1ECLIP HOA428896   3.276   0.407  11.497
    1ECLIP  CA528897   3.083   0.305  11.370
    1ECLIP  HA528898   3.093   0.197  11.394
    1ECLIP  OA528899   2.984   0.317  11.269
    1ECLIP  CA128900   3.016   0.251  11.146
    1ECLIP  HA128901   2.937   0.291  11.079
    1ECLIP  OA128902   3.012   0.108  11.152
    1ECLIP OPA228903   2.932  -0.025  11.335
    1ECLIP OPA328904   2.763   0.140  11.228
    1ECLIP OPA428905   2.847  -0.073  11.111
    1ECLIP   PA28906   2.873   0.039  11.209
    1ECLIP  CA328907   3.254   0.297  11.189
    1ECLIP  HA328908   3.282   0.192  11.210
    1ECLIP  OA328909   3.372   0.364  11.155
    1ECLIP  C3128910   3.381   0.475  11.085
    1ECLIP  O3128911   3.356   0.486  10.966
    1ECLIP  C3228912   3.444   0.591  11.165
    1ECLIP H32R28913   3.537   0.615  11.109
    1ECLIP H32S28914   3.475   0.550  11.263
    1ECLIP  CA228915   3.143   0.308  11.087
    1ECLIP  HA228916   3.124   0.417  11.069
    1ECLIP  NA228917   3.177   0.242  10.960
    1ECLIP HNA228918   3.273   0.224  10.945
    1ECLIP  C7328919   2.394   0.694  11.172
    1ECLIP H73R28920   2.332   0.702  11.264
    1ECLIP  O7328921   2.469   0.573  11.163
    1ECLIP  C8128922   2.428   0.467  11.232
    1ECLIP  O8128923   2.322   0.461  11.292
    1ECLIP  C8228924   2.496   0.342  11.171
    1ECLIP H82R28925   2.461   0.251  11.223
    1ECLIP H82S28926   2.605   0.349  11.192
    1ECLIP  C8328927   2.477   0.327  11.017
    1ECLIP H83R28928   2.549   0.394  10.965
    1ECLIP H83S28929   2.374   0.359  10.990
    1ECLIP  C8428930   2.506   0.184  10.966
    1ECLIP H84R28931   2.427   0.113  10.996
    1ECLIP H84S28932   2.603   0.153  11.013
    1ECLIP  C8528933   2.528   0.180  10.813
    1ECLIP H85R28934   2.591   0.269  10.791
    1ECLIP H85S28935   2.432   0.195  10.760
    1ECLIP  C8628936   2.608   0.057  10.765
    1ECLIP H86R28937   2.540  -0.026  10.736
    1ECLIP H86S28938   2.670   0.019  10.849
    1ECLIP  C8728939   2.707   0.091  10.652
    1ECLIP H87R28940   2.756  -0.002  10.616
    1ECLIP H87S28941   2.789   0.155  10.694
    1ECLIP  C8828942   2.642   0.170  10.538
    1ECLIP H88R28943   2.628   0.275  10.571
    1ECLIP H88S28944   2.539   0.131  10.524
    1ECLIP  C8928945   2.724   0.169  10.408
    1ECLIP H89R28946   2.831   0.144  10.426
    1ECLIP H89S28947   2.725   0.270  10.362
    1ECLIP C81028948   2.661   0.074  10.306
    1ECLIPH810R28949   2.552   0.071  10.329
    1ECLIPH810S28950   2.703  -0.028  10.323
    1ECLIP C81128951   2.681   0.116  10.160
    1ECLIPH811R28952   2.668   0.030  10.090
    1ECLIPH811S28953   2.786   0.153  10.152
    1ECLIP C81228954   2.592   0.230  10.110
    1ECLIPH812R28955   2.628   0.257  10.008
    1ECLIPH812S28956   2.603   0.318  10.177
    1ECLIP C81328957   2.442   0.199  10.100
    1ECLIPH813R28958   2.429   0.115  10.029
    1ECLIPH813S28959   2.400   0.169  10.199
    1ECLIP C81428960   2.363   0.319  10.049
    1ECLIPH814R28961   2.407   0.365   9.958
    1ECLIPH814S28962   2.356   0.397  10.128
    1ECLIPH814T28963   2.261   0.287  10.023
    1ECLIP  C7428964   2.300   0.695  11.049
    1ECLIP H74R28965   2.235   0.785  11.041
    1ECLIP H74S28966   2.232   0.609  11.068
    1ECLIP  C7528967   2.368   0.664  10.914
    1ECLIP H75R28968   2.299   0.601  10.856
    1ECLIP H75S28969   2.460   0.604  10.933
    1ECLIP  C7628970   2.408   0.786  10.831
    1ECLIP H76R28971   2.502   0.830  10.873
    1ECLIP H76S28972   2.331   0.866  10.835
    1ECLIP  C7728973   2.429   0.752  10.682
    1ECLIP H77R28974   2.334   0.720  10.636
    1ECLIP H77S28975   2.503   0.671  10.668
    1ECLIP  C7828976   2.488   0.872  10.610
    1ECLIP H78R28977   2.436   0.965  10.641
    1ECLIP H78S28978   2.592   0.867  10.653
    1ECLIP  C7928979   2.523   0.864  10.463
    1ECLIP H79R28980   2.631   0.837  10.454
    1ECLIP H79S28981   2.502   0.960  10.411
    1ECLIP C71028982   2.436   0.779  10.379
    1ECLIPH710R28983   2.436   0.677  10.422
    1ECLIPH710S28984   2.335   0.825  10.383
    1ECLIP C71128985   2.483   0.774  10.235
    1ECLIPH711R28986   2.482   0.877  10.191
    1ECLIPH711S28987   2.586   0.733  10.229
    1ECLIP C71228988   2.388   0.682  10.162
    1ECLIPH712R28989   2.287   0.729  10.162
    1ECLIPH712S28990   2.382   0.588  10.221
    1ECLIP C71328991   2.434   0.646  10.023
    1ECLIPH713R28992   2.533   0.596  10.024
    1ECLIPH713S28993   2.359   0.580   9.971
    1ECLIP C71428994   2.441   0.765   9.936
    1ECLIPH714R28995   2.338   0.804   9.929
    1ECLIPH714S28996   2.514   0.845   9.963
    1ECLIPH714T28997   2.468   0.722   9.838
    1ECLIP  C5128998   2.853   0.621  11.159
    1ECLIP  O5128999   2.774   0.529  11.143
    1ECLIP  C5229000   2.899   0.705  11.042
    1ECLIP H52R29001   2.832   0.793  11.029
    1ECLIP H52S29002   3.001   0.742  11.061
    1ECLIP  C5329003   2.898   0.621  10.912
    1ECLIP H53R29004   2.925   0.515  10.935
    1ECLIP  O5329005   2.989   0.686  10.821
    1ECLIP  C6129006   3.102   0.621  10.790
    1ECLIP  O6129007   3.129   0.508  10.820
    1ECLIP  C6229008   3.186   0.709  10.696
    1ECLIP H62R29009   3.243   0.780  10.758
    1ECLIP H62S29010   3.114   0.769  10.637
    1ECLIP  C6329011   3.282   0.624  10.607
    1ECLIP H63R29012   3.223   0.540  10.564
    1ECLIP H63S29013   3.364   0.581  10.669
    1ECLIP  C6429014   3.346   0.697  10.487
    1ECLIP H64R29015   3.417   0.630  10.435
    1ECLIP H64S29016   3.401   0.784  10.528
    1ECLIP  C6529017   3.239   0.744  10.389
    1ECLIP H65R29018   3.179   0.814  10.450
    1ECLIP H65S29019   3.173   0.660  10.358
    1ECLIP  C6629020   3.281   0.821  10.262
    1ECLIP H66R29021   3.341   0.910  10.291
    1ECLIP H66S29022   3.186   0.856  10.216
    1ECLIP  C6729023   3.358   0.744  10.153
    1ECLIP H67R29024   3.447   0.692  10.193
    1ECLIP H67S29025   3.392   0.814  10.073
    1ECLIP  C6829026   3.277   0.633  10.085
    1ECLIP H68R29027   3.178   0.667  10.046
    1ECLIP H68S29028   3.260   0.557  10.164
    1ECLIP  C6929029   3.353   0.580   9.964
    1ECLIP H69R29030   3.463   0.587   9.975
    1ECLIP H69S29031   3.327   0.649   9.881
    1ECLIP C61029032   3.316   0.435   9.931
    1ECLIPH610R29033   3.205   0.424   9.937
    1ECLIPH610S29034   3.361   0.368  10.007
    1ECLIP C61129035   3.371   0.395   9.794
    1ECLIPH611R29036   3.480   0.413   9.792
    1ECLIPH611S29037   3.357   0.286   9.775
    1ECLIP C61229038   3.303   0.474   9.684
    1ECLIPH612R29039   3.198   0.442   9.692
    1ECLIPH612S29040   3.296   0.583   9.700
    1ECLIPH612T29041   3.343   0.454   9.582
    1ECLIP  C5429042   2.755   0.626  10.853
    1ECLIP H54R29043   2.735   0.731  10.824
    1ECLIP H54S29044   2.683   0.599  10.934
    1ECLIP  C5529045   2.726   0.534  10.733
    1ECLIP H55R29046   2.616   0.524  10.719
    1ECLIP H55S29047   2.763   0.432  10.756
    1ECLIP  C5629048   2.786   0.595  10.605
    1ECLIP H56R29049   2.894   0.611  10.622
    1ECLIP H56S29050   2.740   0.695  10.587
    1ECLIP  C5729051   2.779   0.513  10.477
    1ECLIP H57R29052   2.675   0.481  10.454
    1ECLIP H57S29053   2.839   0.420  10.491
    1ECLIP  C5829054   2.839   0.594  10.361
    1ECLIP H58R29055   2.799   0.698  10.358
    1ECLIP H58S29056   2.948   0.606  10.382
    1ECLIP  C5929057   2.814   0.529  10.224
    1ECLIP H59R29058   2.705   0.514  10.208
    1ECLIP H59S29059   2.860   0.428  10.232
    1ECLIP C51029060   2.863   0.610  10.102
    1ECLIPH510R29061   2.965   0.650  10.118
    1ECLIPH510S29062   2.794   0.697  10.088
    1ECLIP C51129063   2.862   0.532   9.970
    1ECLIPH511R29064   2.954   0.470   9.965
    1ECLIPH511S29065   2.773   0.466   9.960
    1ECLIP C51229066   2.861   0.619   9.848
    1ECLIPH512R29067   2.831   0.560   9.758
    1ECLIPH512S29068   2.794   0.708   9.852
    1ECLIP C51329069   2.998   0.660   9.816
    1ECLIPH513R29070   3.078   0.582   9.807
    1ECLIPH513S29071   3.042   0.742   9.879
    1ECLIP C51429072   2.964   0.704   9.679
    1ECLIPH514R29073   2.901   0.797   9.680
    1ECLIPH514S29074   3.072   0.707   9.667
    1ECLIPH514T29075   2.955   0.653   9.583
    1ECLIP  C3329076   3.366   0.724  11.182
    1ECLIP H33R29077   3.437   0.800  11.221
    1ECLIP  O3329078   3.265   0.712  11.281
    1ECLIP HO3329079   3.299   0.689  11.368
    1ECLIP  C3429080   3.299   0.782  11.056
    1ECLIP H34R29081   3.225   0.709  11.018
    1ECLIP H34S29082   3.375   0.796  10.977
    1ECLIP  C3529083   3.230   0.917  11.083
    1ECLIP H35R29084   3.300   0.997  11.113
    1ECLIP H35S29085   3.152   0.904  11.162
    1ECLIP  C3629086   3.161   0.967  10.961
    1ECLIP H36R29087   3.125   0.877  10.906
    1ECLIP H36S29088   3.223   1.028  10.891
    1ECLIP  C3729089   3.040   1.043  10.999
    1ECLIP H37R29090   3.060   1.152  11.007
    1ECLIP H37S29091   2.985   1.012  11.091
    1ECLIP  C3829092   2.950   1.021  10.885
    1ECLIP H38R29093   2.887   0.930  10.878
    1ECLIP H38S29094   2.898   1.112  10.922
    1ECLIP  C3929095   3.017   1.044  10.753
    1ECLIP H39R29096   3.097   0.978  10.729
    1ECLIP H39S29097   3.038   1.152  10.783
    1ECLIP C31029098   2.938   1.013  10.623
    1ECLIPH310R29099   2.904   1.106  10.673
    1ECLIPH310S29100   2.875   0.926  10.632
    1ECLIP C31129101   2.970   0.974  10.464
    1ECLIPH311R29102   3.044   1.042  10.496
    1ECLIPH311S29103   3.003   0.873  10.458
    1ECLIP C31229104   2.889   0.995  10.315
    1ECLIPH312R29105   2.766   0.976  10.308
    1ECLIPH312S29106   2.924   1.111  10.297
    1ECLIP C31329107   2.900   0.933  10.194
    1ECLIPH313R29108   2.990   1.000  10.189
    1ECLIPH313S29109   2.929   0.845  10.249
    1ECLIP C31429110   2.764   0.944  10.103
    1ECLIPH314R29111   2.704   1.036  10.079
    1ECLIPH314S29112   2.804   0.941  10.004
    1ECLIPH314T29113   2.672   0.891  10.123
    1ECLIP  C1129114   3.091   0.206  10.861
    1ECLIP  O1129115   2.976   0.246  10.849
    1ECLIP  C1229116   3.145   0.101  10.768
    1ECLIP H12R29117   3.097   0.004  10.790
    1ECLIP H12S29118   3.255   0.093  10.786
    1ECLIP  C1329119   3.124   0.135  10.621
    1ECLIP H13R29120   3.023   0.176  10.601
    1ECLIP  O1329121   3.140   0.014  10.548
    1ECLIP HO1329122   3.092   0.011  10.465
    1ECLIP  C1429123   3.230   0.240  10.580
    1ECLIP H14R29124   3.327   0.219  10.633
    1ECLIP H14S29125   3.192   0.338  10.614
    1ECLIP  C1529126   3.259   0.251  10.431
    1ECLIP H15R29127   3.288   0.151  10.393
    1ECLIP H15S29128   3.347   0.318  10.419
    1ECLIP  C1629129   3.138   0.307  10.356
    1ECLIP H16R29130   3.133   0.417  10.365
    1ECLIP H16S29131   3.044   0.268  10.401
    1ECLIP  C1729132   3.146   0.270  10.209
    1ECLIP H17R29133   3.251   0.287  10.176
    1ECLIP H17S29134   3.080   0.331  10.144
    1ECLIP  C1829135   3.112   0.124  10.191
    1ECLIP H18R29136   3.180   0.061  10.251
    1ECLIP H18S29137   3.006   0.102  10.217
    1ECLIP  C1929138   3.139   0.084  10.052
    1ECLIP H19R29139   3.133  -0.026  10.042
    1ECLIP H19S29140   3.236   0.115  10.006
    1ECLIP C11029141   3.035   0.138   9.967
    1ECLIPH110R29142   2.928   0.126   9.999
    1ECLIPH110S29143   3.050   0.249   9.953
    1ECLIP C11129144   3.059   0.057   9.839
    1ECLIPH111R29145   3.152   0.085   9.784
    1ECLIPH111S29146   3.031  -0.050   9.830
    1ECLIP C11229147   2.941   0.078   9.755
    1ECLIPH112R29148   2.845   0.068   9.808
    1ECLIPH112S29149   2.942   0.179   9.799
    1ECLIP C11329150   2.971   0.052   9.597
    1ECLIPH113R29151   3.074   0.096   9.585
    1ECLIPH113S29152   2.999  -0.047   9.564
    1ECLIP C11429153   2.869   0.074   9.472
    1ECLIPH114R29154   2.776   0.112   9.508
    1ECLIPH114S29155   2.848   0.170   9.420
    1ECLIPH114T29156   2.904   0.062   9.368
    2AKDO    C129157   2.827   0.758  11.978
    2AKDO   O1129158   2.730   0.838  11.970
    2AKDO   O1229159   2.947   0.782  11.946
    2AKDO    C229160   2.796   0.613  12.024
    2AKDO    C629161   2.627   0.474  12.123
    2AKDO    H629162   2.641   0.411  12.031
    2AKDO    O629163   2.663   0.606  12.082
    2AKDO    C329164   2.894   0.562  12.129
    2AKDO   H3129165   2.898   0.633  12.215
    2AKDO   H3229166   2.995   0.558  12.082
    2AKDO    C429167   2.859   0.425  12.175
    2AKDO    H429168   2.854   0.359  12.085
    2AKDO    O429169   2.950   0.375  12.274
    2AKDO    C529170   2.720   0.421  12.233
    2AKDO    H529171   2.693   0.313  12.246
    2AKDO    O529172   2.724   0.489  12.362
    2AKDO    C729173   2.479   0.463  12.151
    2AKDO    H729174   2.457   0.519  12.242
    2AKDO    O729175   2.443   0.325  12.170
    2AKDO   HO729176   2.416   0.297  12.084
    2AKDO    C829177   2.399   0.524  12.038
    2AKDO   H8129178   2.432   0.630  12.022
    2AKDO   H8229179   2.418   0.468  11.943
    2AKDO    O829180   2.259   0.522  12.069
    2AKDO   HO829181   2.220   0.600  12.025
    3AKDO    C129182   3.052   0.226  12.111
    3AKDO   O1129183   3.090   0.262  11.996
    3AKDO   O1229184   3.010   0.110  12.134
    3AKDO    C229185   3.074   0.321  12.235
    3AKDO    C629186   3.187   0.521  12.313
    3AKDO    H629187   3.090   0.572  12.334
    3AKDO    O629188   3.172   0.424  12.206
    3AKDO    C329189   3.119   0.253  12.368
    3AKDO   H3129190   3.218   0.204  12.352
    3AKDO   H3229191   3.049   0.172  12.396
    3AKDO    C429192   3.130   0.355  12.478
    3AKDO    H429193   3.033   0.411  12.484
    3AKDO    O429194   3.153   0.301  12.607
    3AKDO   HO429195   3.086   0.328  12.671
    3AKDO    C529196   3.235   0.455  12.441
    3AKDO    H529197   3.243   0.528  12.524
    3AKDO    O529198   3.364   0.395  12.423
    3AKDO   HO529199   3.355   0.327  12.356
    3AKDO    C729200   3.284   0.628  12.270
    3AKDO    H729201   3.383   0.581  12.248
    3AKDO    O729202   3.303   0.723  12.376
    3AKDO   HO729203   3.372   0.781  12.346
    3AKDO    C829204   3.231   0.697  12.147
    3AKDO   H8129205   3.210   0.621  12.068
    3AKDO   H8229206   3.136   0.748  12.167
    3AKDO    O829207   3.329   0.788  12.097
    3AKDO   HO829208   3.389   0.726  12.056
    4AHEP    C129209   2.637   0.441  12.463
    4AHEP    H129210   2.537   0.472  12.428
    4AHEP    C529211   2.731   0.235  12.538
    4AHEP    H529212   2.825   0.268  12.488
    4AHEP    O529213   2.624   0.300  12.468
    4AHEP    C229214   2.644   0.493  12.607
    4AHEP    H229215   2.661   0.603  12.603
    4AHEP    O229216   2.518   0.475  12.672
    4AHEP   HO229217   2.499   0.549  12.731
    4AHEP    C329218   2.758   0.431  12.686
    4AHEP    H329219   2.858   0.459  12.645
    4AHEP    O329220   2.750   0.470  12.825
    4AHEP    C429221   2.738   0.283  12.682
    4AHEP    H429222   2.646   0.250  12.734
    4AHEP    O429223   2.859   0.235  12.739
    4AHEP    P429224   2.854   0.146  12.876
    4AHEP  OP4229225   2.984   0.176  12.950
    4AHEP  OP4329226   2.847   0.009  12.812
    4AHEP  OP4429227   2.733   0.182  12.961
    4AHEP    C629228   2.715   0.085  12.520
    4AHEP    H629229   2.813   0.036  12.545
    4AHEP    O629230   2.615   0.024  12.602
    4AHEP   HO629231   2.655  -0.033  12.670
    4AHEP    C729232   2.673   0.051  12.379
    4AHEP   H7129233   2.669  -0.058  12.365
    4AHEP   H7229234   2.744   0.099  12.308
    4AHEP    O729235   2.541   0.080  12.335
    4AHEP   HO729236   2.491   0.007  12.375
    5AHEP    C129237   2.860   0.535  12.883
    5AHEP    H129238   2.955   0.502  12.834
    5AHEP    C529239   2.730   0.726  12.933
    5AHEP    H529240   2.651   0.663  12.894
    5AHEP    O529241   2.848   0.676  12.866
    5AHEP    C229242   2.869   0.505  13.033
    5AHEP    H229243   2.873   0.395  13.045
    5AHEP    O229244   2.993   0.558  13.082
    5AHEP   HO229245   3.054   0.485  13.096
    5AHEP    C329246   2.747   0.556  13.109
    5AHEP    H329247   2.657   0.506  13.067
    5AHEP    O329248   2.751   0.537  13.253
    5AHEP    C429249   2.737   0.704  13.084
    5AHEP    H429250   2.828   0.758  13.122
    5AHEP    O429251   2.614   0.751  13.141
    5AHEP    P429252   2.618   0.861  13.266
    5AHEP  OP4229253   2.474   0.867  13.316
    5AHEP  OP4329254   2.658   0.991  13.198
    5AHEP  OP4429255   2.717   0.805  13.369
    5AHEP    C629256   2.701   0.866  12.893
    5AHEP    H629257   2.608   0.905  12.942
    5AHEP    O629258   2.809   0.940  12.942
    5AHEP   HO629259   2.884   0.955  12.887
    5AHEP    C729260   2.681   0.879  12.744
    5AHEP   H7129261   2.598   0.950  12.732
    5AHEP   H7229262   2.637   0.789  12.697
    5AHEP    O729263   2.797   0.925  12.677
    6AHEP    C129264   2.874   0.819  12.629
    6AHEP    H129265   2.830   0.719  12.652
    6AHEP    C529266   2.931   0.955  12.447
    6AHEP    H529267   2.917   1.062  12.501
    6AHEP    O529268   2.868   0.831  12.493
    6AHEP    C229269   3.021   0.828  12.664
    6AHEP    H229270   3.023   0.824  12.774
    6AHEP    O229271   3.092   0.719  12.612
    6AHEP   HO229272   3.111   0.663  12.686
    6AHEP    C329273   3.083   0.959  12.620
    6AHEP    H329274   3.010   1.025  12.666
    6AHEP    O329275   3.218   0.985  12.665
    6AHEP   HO329276   3.224   1.035  12.746
    6AHEP    C429277   3.078   0.975  12.471
    6AHEP    H429278   3.137   0.905  12.412
    6AHEP    O429279   3.125   1.109  12.441
    6AHEP   HO429280   3.055   1.174  12.452
    6AHEP    C629281   2.874   0.917  12.305
    6AHEP    H629282   2.842   0.998  12.361
    6AHEP    O629283   2.977   0.911  12.209
    6AHEP   HO629284   2.924   0.882  12.133
    6AHEP    C729285   2.739   0.939  12.235
    6AHEP   H7129286   2.724   1.002  12.142
    6AHEP   H7229287   2.676   0.990  12.305
    6AHEP    O729288   2.658   0.832  12.260
    6AHEP   HO729289   2.646   0.847  12.354
    7AGLC    C129290   2.692   0.419  13.301
    7AGLC    H129291   2.594   0.400  13.252
    7AGLC    C529292   2.908   0.324  13.347
    7AGLC    H529293   2.954   0.420  13.319
    7AGLC    O529294   2.782   0.310  13.277
    7AGLC    C229295   2.668   0.418  13.453
    7AGLC    H229296   2.634   0.316  13.479
    7AGLC    O229297   2.562   0.503  13.494
    7AGLC   HO229298   2.594   0.595  13.491
    7AGLC    C329299   2.793   0.440  13.534
    7AGLC    H329300   2.841   0.534  13.497
    7AGLC    O329301   2.769   0.454  13.677
    7AGLC    C429302   2.884   0.324  13.498
    7AGLC    H429303   2.834   0.228  13.528
    7AGLC    O429304   3.010   0.336  13.564
    7AGLC   HO429305   3.036   0.251  13.602
    7AGLC    C629306   3.003   0.218  13.294
    7AGLC   H6129307   3.001   0.222  13.182
    7AGLC   H6229308   3.108   0.226  13.326
    7AGLC    O629309   2.956   0.095  13.345
    7AGLC   HO629310   3.009   0.042  13.404
    8AGLC    C129311   2.810   0.580  13.729
    8AGLC    H129312   2.910   0.606  13.687
    8AGLC    C529313   2.588   0.682  13.758
    8AGLC    H529314   2.541   0.586  13.725
    8AGLC    O529315   2.719   0.688  13.697
    8AGLC    C229316   2.828   0.578  13.880
    8AGLC    H229317   2.869   0.677  13.906
    8AGLC    O229318   2.919   0.479  13.931
    8AGLC    C329319   2.695   0.561  13.949
    8AGLC    H329320   2.652   0.468  13.907
    8AGLC    O329321   2.717   0.539  14.090
    8AGLC    C429322   2.607   0.678  13.909
    8AGLC    H429323   2.660   0.772  13.939
    8AGLC    O429324   2.482   0.676  13.975
    8AGLC   HO429325   2.444   0.588  13.974
    8AGLC    C629326   2.489   0.792  13.711
    8AGLC   H6129327   2.491   0.802  13.599
    8AGLC   H6229328   2.385   0.762  13.738
    8AGLC    O629329   2.509   0.921  13.772
    8AGLC   HO629330   2.470   0.916  13.859
    9AGAL    C129331   3.050   0.480  13.880
    9AGAL    H129332   3.048   0.483  13.769
    9AGAL    C529333   3.151   0.589  14.065
    9AGAL    H529334   3.050   0.578  14.111
    9AGAL    O529335   3.129   0.591  13.923
    9AGAL    C229336   3.115   0.348  13.922
    9AGAL    H229337   3.215   0.349  13.874
    9AGAL    O229338   3.042   0.242  13.857
    9AGAL    C329339   3.136   0.341  14.073
    9AGAL    H329340   3.039   0.352  14.125
    9AGAL    O329341   3.181   0.210  14.114
    9AGAL   HO329342   3.157   0.165  14.033
    9AGAL    C429343   3.225   0.461  14.107
    9AGAL    H429344   3.243   0.468  14.216
    9AGAL    O429345   3.352   0.447  14.047
    9AGAL   HO429346   3.413   0.504  14.096
    9AGAL    C629347   3.205   0.721  14.121
    9AGAL   H6129348   3.133   0.802  14.097
    9AGAL   H6229349   3.209   0.715  14.232
    9AGAL    O629350   3.335   0.762  14.075
    9AGAL   HO629351   3.315   0.815  13.999
   10AGAL    C129352   3.008   0.116  13.910
   10AGAL    H129353   3.102   0.057  13.916
   10AGAL    C529354   2.820   0.181  14.041
   10AGAL    H529355   2.835   0.283  14.000
   10AGAL    O529356   2.949   0.114  14.043
   10AGAL    C229357   2.917   0.049  13.812
   10AGAL    H229358   2.903  -0.050  13.857
   10AGAL    O229359   2.981   0.025  13.687
   10AGAL   HO229360   2.958  -0.067  13.662
   10AGAL    C329361   2.783   0.119  13.804
   10AGAL    H329362   2.802   0.225  13.777
   10AGAL    O329363   2.692   0.066  13.708
   10AGAL   HO329364   2.684   0.125  13.633
   10AGAL    C429365   2.725   0.116  13.943
   10AGAL    H429366   2.626   0.165  13.944
   10AGAL    O429367   2.701  -0.015  13.985
   10AGAL   HO429368   2.779  -0.069  13.995
   10AGAL    C629369   2.756   0.207  14.177
   10AGAL   H6129370   2.828   0.252  14.247
   10AGAL   H6229371   2.671   0.277  14.162
   10AGAL    O629372   2.710   0.089  14.239
   10AGAL   HO629373   2.742   0.078  14.329
   11BGLC    C129374   2.711   0.641  14.188
   11BGLC    H129375   2.606   0.679  14.199
   11BGLC    C529376   2.795   0.845  14.261
   11BGLC    H529377   2.694   0.891  14.291
   11BGLC    O529378   2.792   0.746  14.156
   11BGLC    C229379   2.765   0.588  14.317
   11BGLC    H229380   2.870   0.553  14.301
   11BGLC    O229381   2.686   0.478  14.356
   11BGLC   HO229382   2.745   0.404  14.368
   11BGLC    C329383   2.772   0.688  14.430
   11BGLC    H329384   2.669   0.726  14.455
   11BGLC    O329385   2.840   0.632  14.544
   11BGLC    C429386   2.858   0.798  14.386
   11BGLC    H429387   2.960   0.764  14.358
   11BGLC    O429388   2.876   0.899  14.483
   11BGLC   HO429389   2.936   0.867  14.551
   11BGLC    C629390   2.857   0.939  14.186
   11BGLC   H6129391   2.898   1.016  14.261
   11BGLC   H6229392   2.954   0.918  14.138
   11BGLC    O629393   2.748   0.971  14.087
   11BGLC   HO629394   2.745   1.068  14.071
   12BGLCN   C129395   2.774   0.636  14.668
   12BGLCN   H129396   2.702   0.553  14.674
   12BGLCN   C529397   2.641   0.757  14.823
   12BGLCN   H529398   2.568   0.674  14.831
   12BGLCN   O529399   2.707   0.758  14.695
   12BGLCN   C229400   2.885   0.619  14.772
   12BGLCN   H229401   2.947   0.713  14.766
   12BGLCN    N29402   2.963   0.503  14.740
   12BGLCN   HN29403   2.909   0.421  14.736
   12BGLCN    C29404   3.096   0.505  14.727
   12BGLCN    O29405   3.161   0.607  14.745
   12BGLCN   CT29406   3.166   0.377  14.693
   12BGLCN  HT129407   3.225   0.340  14.779
   12BGLCN  HT229408   3.239   0.394  14.611
   12BGLCN  HT329409   3.092   0.300  14.665
   12BGLCN   C329410   2.828   0.611  14.912
   12BGLCN   H329411   2.760   0.523  14.917
   12BGLCN   O329412   2.931   0.593  15.013
   12BGLCN   C429413   2.749   0.739  14.930
   12BGLCN   H429414   2.813   0.827  14.918
   12BGLCN   O429415   2.695   0.747  15.060
   12BGLCN  HO429416   2.621   0.686  15.070
   12BGLCN   C629417   2.565   0.888  14.833
   12BGLCN  H6129418   2.512   0.899  14.931
   12BGLCN  H6229419   2.635   0.973  14.820
   12BGLCN   O629420   2.467   0.900  14.730
   12BGLCN  HO629421   2.387   0.851  14.749
   13AGAL    C129422   2.898   0.504  15.120
   13AGAL    H129423   2.792   0.523  15.152
   13AGAL    C529424   3.054   0.331  15.063
   13AGAL    H529425   3.092   0.407  14.990
   13AGAL    O529426   2.915   0.365  15.083
   13AGAL    C229427   2.981   0.522  15.247
   13AGAL    H229428   2.948   0.441  15.316
   13AGAL    O229429   2.953   0.646  15.312
   13AGAL    C329430   3.128   0.494  15.226
   13AGAL    H329431   3.164   0.553  15.138
   13AGAL    O329432   3.212   0.529  15.336
   13AGAL   HO329433   3.294   0.570  15.304
   13AGAL    C429434   3.137   0.350  15.187
   13AGAL    H429435   3.238   0.333  15.149
   13AGAL    O429436   3.111   0.260  15.296
   13AGAL   HO429437   3.025   0.278  15.338
   13AGAL    C629438   3.082   0.200  14.991
   13AGAL   H6129439   3.023   0.197  14.897
   13AGAL   H6229440   3.191   0.196  14.967
   13AGAL    O629441   3.052   0.084  15.067
   13AGAL   HO629442   3.119   0.070  15.136
   14ARHM    C129443   2.887   0.637  15.437
   14ARHM    H129444   2.823   0.546  15.440
   14ARHM    C529445   2.863   0.870  15.456
   14ARHM    H529446   2.914   0.883  15.358
   14ARHM    O529447   2.797   0.745  15.455
   14ARHM    C229448   2.990   0.636  15.547
   14ARHM    H229449   3.059   0.551  15.530
   14ARHM    O229450   2.940   0.631  15.682
   14ARHM    C329451   3.067   0.763  15.543
   14ARHM    H329452   3.104   0.782  15.439
   14ARHM    O329453   3.185   0.757  15.623
   14ARHM   HO329454   3.160   0.771  15.715
   14ARHM    C429455   2.971   0.875  15.571
   14ARHM    H429456   2.914   0.864  15.667
   14ARHM    O429457   3.055   0.989  15.588
   14ARHM   HO429458   3.039   1.042  15.666
   14ARHM    C629459   2.735   0.954  15.467
   14ARHM   H6129460   2.654   0.940  15.395
   14ARHM   H6229461   2.722   0.982  15.573
   14ARHM   H6329462   2.731   1.053  15.423
   15ARHM    C129463   2.850   0.528  15.711
   15ARHM    H129464   2.867   0.443  15.640
   15ARHM    C529465   2.673   0.669  15.801
   15ARHM    H529466   2.725   0.766  15.781
   15ARHM    O529467   2.711   0.569  15.704
   15ARHM    C229468   2.881   0.477  15.850
   15ARHM    H229469   2.990   0.454  15.856
   15ARHM    O229470   2.805   0.356  15.867
   15ARHM    C329471   2.850   0.585  15.949
   15ARHM    H329472   2.906   0.677  15.920
   15ARHM    O329473   2.898   0.543  16.077
   15ARHM    C429474   2.702   0.617  15.940
   15ARHM    H429475   2.644   0.521  15.952
   15ARHM    O429476   2.652   0.708  16.038
   15ARHM   HO429477   2.555   0.703  16.030
   15ARHM    C629478   2.521   0.695  15.787
   15ARHM   H6129479   2.487   0.784  15.842
   15ARHM   H6229480   2.500   0.708  15.680
   15ARHM   H6329481   2.460   0.608  15.820
   16BMANN   C129482   2.812   0.286  15.988
   16BMANN   H129483   2.762   0.344  16.068
   16BMANN   C529484   2.948   0.185  16.155
   16BMANN   H529485   2.894   0.247  16.231
   16BMANN   O529486   2.946   0.252  16.028
   16BMANN   C229487   2.733   0.159  15.968
   16BMANN   H229488   2.628   0.185  15.941
   16BMANN    N29489   2.785   0.078  15.859
   16BMANN   HN29490   2.847   0.005  15.889
   16BMANN    C29491   2.743   0.087  15.732
   16BMANN    O29492   2.652   0.158  15.693
   16BMANN   CT29493   2.817   0.001  15.637
   16BMANN  HT129494   2.762  -0.084  15.588
   16BMANN  HT229495   2.902  -0.042  15.693
   16BMANN  HT329496   2.850   0.063  15.562
   16BMANN   C329497   2.734   0.087  16.100
   16BMANN   H329498   2.684   0.149  16.176
   16BMANN   O329499   2.657  -0.028  16.090
   16BMANN  HO329500   2.598  -0.038  16.166
   16BMANN   C429501   2.875   0.056  16.145
   16BMANN   H429502   2.926  -0.011  16.073
   16BMANN   O429503   2.883  -0.002  16.273
   16BMANN  HO429504   2.956  -0.067  16.276
   16BMANN   C629505   3.087   0.164  16.213
   16BMANN  H6129506   3.080   0.164  16.324
   16BMANN  H6229507   3.128   0.066  16.181
   16BMANN   O629508   3.181   0.263  16.172
   16BMANN  HO629509   3.252   0.221  16.124
   17BGLCN   C129510   2.960   0.646  16.149
   17BGLCN   H129511   2.905   0.741  16.133
   17BGLCN   C529512   3.163   0.766  16.192
   17BGLCN   H529513   3.115   0.865  16.172
   17BGLCN   O529514   3.098   0.664  16.114
   17BGLCN   C229515   2.947   0.599  16.291
   17BGLCN   H229516   3.002   0.505  16.298
   17BGLCN    N29517   2.811   0.562  16.324
   17BGLCN   HN29518   2.744   0.613  16.273
   17BGLCN    C29519   2.772   0.475  16.417
   17BGLCN    O29520   2.847   0.404  16.481
   17BGLCN   CT29521   2.624   0.474  16.441
   17BGLCN  HT129522   2.570   0.392  16.390
   17BGLCN  HT229523   2.591   0.571  16.403
   17BGLCN  HT329524   2.600   0.471  16.549
   17BGLCN   C329525   3.006   0.708  16.379
   17BGLCN   H329526   2.952   0.800  16.347
   17BGLCN   O329527   2.977   0.683  16.519
   17BGLCN   C429528   3.153   0.727  16.340
   17BGLCN   H429529   3.209   0.631  16.346
   17BGLCN   O429530   3.219   0.818  16.427
   17BGLCN  HO429531   3.313   0.826  16.409
   17BGLCN   C629532   3.309   0.781  16.147
   17BGLCN  H6129533   3.343   0.886  16.152
   17BGLCN  H6229534   3.373   0.722  16.215
   17BGLCN   O629535   3.337   0.734  16.017
   17BGLCN  HO629536   3.283   0.779  15.952
   18AGAL    C129537   2.949   0.798  16.599
   18AGAL    H129538   3.044   0.853  16.617
   18AGAL    C529539   2.725   0.835  16.523
   18AGAL    H529540   2.735   0.735  16.477
   18AGAL    O529541   2.857   0.888  16.536
   18AGAL    C229542   2.886   0.767  16.733
   18AGAL    H229543   2.869   0.869  16.776
   18AGAL    O229544   2.976   0.702  16.824
   18AGAL    C329545   2.747   0.704  16.721
   18AGAL    H329546   2.755   0.616  16.653
   18AGAL    O329547   2.697   0.656  16.845
   18AGAL   HO329548   2.657   0.569  16.834
   18AGAL    C429549   2.656   0.805  16.654
   18AGAL    H429550   2.556   0.761  16.631
   18AGAL    O429551   2.636   0.920  16.735
   18AGAL   HO429552   2.573   0.897  16.805
   18AGAL    C629553   2.655   0.911  16.414
   18AGAL   H6129554   2.713   0.895  16.320
   18AGAL   H6229555   2.555   0.870  16.400
   18AGAL    O629556   2.641   1.050  16.435
   18AGAL   HO629557   2.700   1.078  16.506
   19ARHM    C129558   2.962   0.756  16.953
   19ARHM    H129559   2.860   0.794  16.971
   19ARHM    C529560   3.186   0.836  16.961
   19ARHM    H529561   3.197   0.794  16.858
   19ARHM    O529562   3.048   0.868  16.979
   19ARHM    C229563   2.997   0.645  17.047
   19ARHM    H229564   2.939   0.553  17.023
   19ARHM    O229565   2.964   0.687  17.180
   19ARHM    C329566   3.143   0.609  17.032
   19ARHM    H329567   3.162   0.579  16.926
   19ARHM    O329568   3.174   0.497  17.113
   19ARHM   HO329569   3.146   0.516  17.203
   19ARHM    C429570   3.227   0.730  17.061
   19ARHM    H429571   3.207   0.763  17.165
   19ARHM    O429572   3.366   0.711  17.049
   19ARHM   HO429573   3.386   0.675  16.963
   19ARHM    C629574   3.271   0.963  16.962
   19ARHM   H6129575   3.230   1.029  16.884
   19ARHM   H6229576   3.265   1.016  17.059
   19ARHM   H6329577   3.378   0.942  16.942
   20ARHM    C129578   2.825   0.681  17.204
   20ARHM    H129579   2.771   0.631  17.121
   20ARHM    C529580   2.799   0.881  17.330
   20ARHM    H529581   2.910   0.888  17.314
   20ARHM    O529582   2.755   0.807  17.218
   20ARHM    C229583   2.806   0.601  17.330
   20ARHM    H229584   2.861   0.504  17.321
   20ARHM    O229585   2.667   0.580  17.352
   20ARHM    C329586   2.861   0.674  17.448
   20ARHM    H329587   2.971   0.690  17.432
   20ARHM    O329588   2.842   0.591  17.563
   20ARHM    C429589   2.786   0.803  17.460
   20ARHM    H429590   2.676   0.794  17.473
   20ARHM    O429591   2.840   0.872  17.572
   20ARHM   HO429592   2.833   0.965  17.557
   20ARHM    C629593   2.706   1.013  17.325
   20ARHM   H6129594   2.608   1.035  17.360
   20ARHM   H6229595   2.727   1.079  17.412
   20ARHM   H6329596   2.719   1.072  17.231
   21BMANN   C129597   2.623   0.472  17.277
   21BMANN   H129598   2.705   0.439  17.208
   21BMANN   C529599   2.489   0.391  17.101
   21BMANN   H529600   2.581   0.361  17.045
   21BMANN   O529601   2.517   0.503  17.187
   21BMANN   C229602   2.586   0.358  17.371
   21BMANN   H229603   2.681   0.337  17.429
   21BMANN    N29604   2.478   0.387  17.465
   21BMANN   HN29605   2.402   0.440  17.427
   21BMANN    C29606   2.474   0.346  17.595
   21BMANN    O29607   2.551   0.260  17.637
   21BMANN   CT29608   2.368   0.406  17.684
   21BMANN  HT129609   2.269   0.359  17.665
   21BMANN  HT229610   2.365   0.515  17.669
   21BMANN  HT329611   2.392   0.392  17.792
   21BMANN   C329612   2.557   0.239  17.283
   21BMANN   H329613   2.652   0.219  17.229
   21BMANN   O329614   2.526   0.124  17.358
   21BMANN  HO329615   2.451   0.146  17.416
   21BMANN   C429616   2.447   0.272  17.185
   21BMANN   H429617   2.352   0.297  17.238
   21BMANN   O429618   2.416   0.163  17.100
   21BMANN  HO429619   2.325   0.134  17.111
   21BMANN   C629620   2.385   0.424  16.998
   21BMANN  H6129621   2.387   0.347  16.917
   21BMANN  H6229622   2.285   0.420  17.045
   21BMANN   O629623   2.404   0.553  16.941
   21BMANN  HO629624   2.401   0.618  17.013
   22BGLCN   C129625   2.944   0.593  17.660
   22BGLCN   H129626   2.999   0.689  17.661
   22BGLCN   C529627   3.134   0.483  17.747
   22BGLCN   H529628   3.185   0.582  17.749
   22BGLCN   O529629   3.035   0.485  17.642
   22BGLCN   C229630   2.871   0.576  17.791
   22BGLCN   H229631   2.817   0.477  17.786
   22BGLCN    N29632   2.775   0.683  17.809
   22BGLCN   HN29633   2.803   0.772  17.774
   22BGLCN    C29634   2.659   0.671  17.872
   22BGLCN    O29635   2.619   0.568  17.924
   22BGLCN   CT29636   2.577   0.797  17.875
   22BGLCN  HT129637   2.506   0.792  17.790
   22BGLCN  HT229638   2.642   0.885  17.863
   22BGLCN  HT329639   2.522   0.805  17.972
   22BGLCN   C329640   2.970   0.574  17.904
   22BGLCN   H329641   3.029   0.669  17.901
   22BGLCN   O329642   2.893   0.570  18.025
   22BGLCN   C429643   3.066   0.460  17.881
   22BGLCN   H429644   3.009   0.365  17.877
   22BGLCN   O429645   3.163   0.448  17.985
   22BGLCN  HO429646   3.176   0.355  18.008
   22BGLCN   C629647   3.234   0.375  17.713
   22BGLCN  H6129648   3.292   0.351  17.805
   22BGLCN  H6229649   3.181   0.282  17.681
   22BGLCN   O629650   3.329   0.414  17.614
   22BGLCN  HO629651   3.285   0.441  17.532
   23AGAL    C129652   2.952   0.612  18.144
   23AGAL    H129653   3.019   0.532  18.174
   23AGAL    C529654   2.945   0.847  18.110
   23AGAL    H529655   2.885   0.825  18.018
   23AGAL    O529656   3.028   0.733  18.134
   23AGAL    C229657   2.849   0.625  18.254
   23AGAL    H229658   2.906   0.652  18.346
   23AGAL    O229659   2.778   0.501  18.279
   23AGAL    C329660   2.760   0.743  18.224
   23AGAL    H329661   2.717   0.731  18.122
   23AGAL    O329662   2.649   0.749  18.311
   23AGAL   HO329663   2.679   0.740  18.401
   23AGAL    C429664   2.845   0.870  18.223
   23AGAL    H429665   2.784   0.959  18.199
   23AGAL    O429666   2.910   0.893  18.347
   23AGAL   HO429667   2.991   0.942  18.324
   23AGAL    C629668   3.032   0.963  18.072
   23AGAL   H6129669   3.102   0.923  17.998
   23AGAL   H6229670   2.975   1.042  18.018
   23AGAL    O629671   3.102   1.020  18.183
   23AGAL   HO629672   3.172   1.080  18.151
   24ARHM    C129673   2.834   0.405  18.366
   24ARHM    H129674   2.940   0.427  18.379
   24ARHM    C529675   2.693   0.225  18.300
   24ARHM    H529676   2.644   0.296  18.230
   24ARHM    O529677   2.828   0.270  18.318
   24ARHM    C229678   2.765   0.418  18.498
   24ARHM    H229679   2.767   0.525  18.530
   24ARHM    O229680   2.827   0.333  18.596
   24ARHM    C329681   2.622   0.376  18.479
   24ARHM    H329682   2.579   0.441  18.399
   24ARHM    O329683   2.545   0.399  18.597
   24ARHM   HO329684   2.551   0.322  18.654
   24ARHM    C429685   2.618   0.231  18.432
   24ARHM    H429686   2.672   0.167  18.506
   24ARHM    O429687   2.485   0.182  18.416
   24ARHM   HO429688   2.481   0.088  18.438
   24ARHM    C629689   2.689   0.086  18.232
   24ARHM   H6129690   2.592   0.076  18.178
   24ARHM   H6229691   2.771   0.079  18.158
   24ARHM   H6329692   2.701   0.003  18.304
   25ARHM    C129693   2.946   0.383  18.651
   25ARHM    H129694   2.987   0.461  18.583
   25ARHM    C529695   3.015   0.183  18.758
   25ARHM    H529696   2.924   0.130  18.722
   25ARHM    O529697   3.049   0.285  18.663
   25ARHM    C229698   2.915   0.447  18.782
   25ARHM    H229699   2.825   0.514  18.772
   25ARHM    O229700   3.026   0.525  18.826
   25ARHM    C329701   2.878   0.340  18.882
   25ARHM    H329702   2.789   0.284  18.845
   25ARHM    O329703   2.853   0.405  19.006
   25ARHM    C429704   2.990   0.242  18.895
   25ARHM    H429705   3.085   0.292  18.927
   25ARHM    O429706   2.958   0.142  18.993
   25ARHM   HO429707   3.038   0.120  19.040
   25ARHM    C629708   3.128   0.080  18.761
   25ARHM   H6129709   3.150   0.051  18.655
   25ARHM   H6229710   3.222   0.117  18.805
   25ARHM   H6329711   3.093  -0.008  18.820
   26BMANN   C129712   3.038   0.650  18.764
   26BMANN   H129713   2.941   0.683  18.722
   26BMANN   C529714   3.141   0.784  18.595
   26BMANN   H529715   3.040   0.807  18.554
   26BMANN   O529716   3.135   0.654  18.658
   26BMANN   C229717   3.079   0.746  18.871
   26BMANN   H229718   2.998   0.741  18.949
   26BMANN    N29719   3.208   0.709  18.929
   26BMANN   HN29720   3.283   0.697  18.866
   26BMANN    C29721   3.231   0.693  19.060
   26BMANN    O29722   3.142   0.693  19.143
   26BMANN   CT29723   3.376   0.680  19.102
   26BMANN  HT129724   3.436   0.635  19.020
   26BMANN  HT229725   3.391   0.621  19.195
   26BMANN  HT329726   3.414   0.782  19.122
   26BMANN   C329727   3.077   0.884  18.811
   26BMANN   H329728   2.975   0.905  18.769
   26BMANN   O329729   3.099   0.982  18.911
   26BMANN  HO329730   3.021   0.988  18.968
   26BMANN   C429731   3.178   0.890  18.698
   26BMANN   H429732   3.280   0.869  18.735
   26BMANN   O429733   3.181   1.017  18.637
   26BMANN  HO429734   3.233   1.078  18.692
   26BMANN   C629735   3.236   0.772  18.476
   26BMANN  H6129736   3.222   0.673  18.427
   26BMANN  H6229737   3.213   0.850  18.400
   26BMANN   O629738   3.373   0.784  18.514
   26BMANN  HO629739   3.385   0.872  18.551
   27BGLCN   C129740   2.747   0.358  19.082
   27BGLCN   H129741   2.741   0.249  19.073
   27BGLCN   C529742   2.514   0.373  19.127
   27BGLCN   H529743   2.509   0.262  19.127
   27BGLCN   O529744   2.622   0.416  19.044
   27BGLCN   C229745   2.781   0.403  19.223
   27BGLCN   H229746   2.782   0.515  19.220
   27BGLCN    N29747   2.913   0.357  19.266
   27BGLCN   HN29748   2.936   0.263  19.243
   27BGLCN    C29749   2.998   0.439  19.333
   27BGLCN    O29750   2.958   0.540  19.389
   27BGLCN   CT29751   3.144   0.403  19.339
   27BGLCN  HT129752   3.163   0.319  19.270
   27BGLCN  HT229753   3.176   0.378  19.441
   27BGLCN  HT329754   3.204   0.489  19.304
   27BGLCN   C329755   2.673   0.360  19.319
   27BGLCN   H329756   2.665   0.250  19.317
   27BGLCN   O329757   2.719   0.403  19.449
   27BGLCN   C429758   2.541   0.418  19.271
   27BGLCN   H429759   2.550   0.528  19.275
   27BGLCN   O429760   2.432   0.379  19.352
   27BGLCN  HO429761   2.422   0.284  19.345
   27BGLCN   C629762   2.380   0.407  19.066
   27BGLCN  H6129763   2.301   0.353  19.122
   27BGLCN  H6229764   2.352   0.511  19.075
   27BGLCN   O629765   2.374   0.371  18.929
   27BGLCN  HO629766   2.297   0.410  18.886
   28AGAL    C129767   2.658   0.345  19.560
   28AGAL    H129768   2.555   0.386  19.569
   28AGAL    C529769   2.776   0.137  19.545
   28AGAL    H529770   2.848   0.189  19.477
   28AGAL    O529771   2.647   0.201  19.540
   28AGAL    C229772   2.726   0.375  19.695
   28AGAL    H229773   2.652   0.326  19.763
   28AGAL    O229774   2.730   0.509  19.746
   28AGAL    C329775   2.863   0.309  19.701
   28AGAL    H329776   2.926   0.346  19.618
   28AGAL    O329777   2.938   0.332  19.821
   28AGAL   HO329778   3.021   0.374  19.798
   28AGAL    C429779   2.843   0.164  19.679
   28AGAL    H429780   2.939   0.109  19.687
   28AGAL    O429781   2.755   0.131  19.780
   28AGAL   HO429782   2.806   0.071  19.839
   28AGAL    C629783   2.776  -0.008  19.488
   28AGAL   H6129784   2.769   0.009  19.380
   28AGAL   H6229785   2.871  -0.063  19.511
   28AGAL    O629786   2.663  -0.098  19.494
   28AGAL   HO629787   2.583  -0.061  19.531
   29ARHM    C129788   2.699   0.508  19.885
   29ARHM    H129789   2.725   0.410  19.932
   29ARHM    C529790   2.519   0.658  19.851
   29ARHM    H529791   2.547   0.658  19.743
   29ARHM    O529792   2.560   0.533  19.908
   29ARHM    C229793   2.780   0.613  19.954
   29ARHM    H229794   2.887   0.595  19.929
   29ARHM    O229795   2.759   0.607  20.097
   29ARHM    C329796   2.742   0.748  19.898
   29ARHM    H329797   2.762   0.749  19.788
   29ARHM    O329798   2.825   0.848  19.955
   29ARHM   HO329799   2.770   0.926  19.960
   29ARHM    C429800   2.594   0.774  19.919
   29ARHM    H429801   2.570   0.773  20.028
   29ARHM    O429802   2.556   0.904  19.873
   29ARHM   HO429803   2.579   0.919  19.782
   29ARHM    C629804   2.367   0.655  19.859
   29ARHM   H6129805   2.333   0.559  19.814
   29ARHM   H6229806   2.332   0.659  19.964
   29ARHM   H6329807   2.324   0.738  19.801
   30ARHM    C129808   2.855   0.538  20.173
   30ARHM    H129809   2.957   0.579  20.152
   30ARHM    C529810   2.728   0.337  20.185
   30ARHM    H529811   2.650   0.391  20.127
   30ARHM    O529812   2.854   0.396  20.151
   30ARHM    C229813   2.823   0.562  20.319
   30ARHM    H229814   2.820   0.672  20.339
   30ARHM    O229815   2.923   0.498  20.396
   30ARHM    C329816   2.690   0.501  20.359
   30ARHM    H329817   2.614   0.543  20.288
   30ARHM    O329818   2.650   0.543  20.491
   30ARHM    C429819   2.696   0.353  20.332
   30ARHM    H429820   2.776   0.304  20.391
   30ARHM    O429821   2.578   0.282  20.368
   30ARHM   HO429822   2.505   0.292  20.305
   30ARHM    C629823   2.725   0.192  20.141
   30ARHM   H6129824   2.625   0.148  20.160
   30ARHM   H6229825   2.745   0.185  20.033
   30ARHM   H6329826   2.802   0.135  20.198
   31BMANN   C129827   3.034   0.576  20.426
   31BMANN   H129828   3.002   0.679  20.452
   31BMANN   C529829   3.250   0.651  20.357
   31BMANN   H529830   3.212   0.751  20.387
   31BMANN   O529831   3.132   0.575  20.322
   31BMANN   C229832   3.094   0.509  20.545
   31BMANN   H229833   3.019   0.518  20.627
   31BMANN    N29834   3.116   0.368  20.518
   31BMANN   HN29835   3.122   0.342  20.422
   31BMANN    C29836   3.113   0.276  20.614
   31BMANN    O29837   3.091   0.305  20.731
   31BMANN   CT29838   3.140   0.135  20.572
   31BMANN  HT129839   3.222   0.139  20.497
   31BMANN  HT229840   3.048   0.092  20.527
   31BMANN  HT329841   3.171   0.073  20.658
   31BMANN   C329842   3.215   0.588  20.586
   31BMANN   H329843   3.186   0.694  20.604
   31BMANN   O329844   3.263   0.543  20.711
   31BMANN  HO329845   3.192   0.490  20.749
   31BMANN   C429846   3.318   0.589  20.477
   31BMANN   H429847   3.349   0.485  20.449
   31BMANN   O429848   3.435   0.662  20.515
   31BMANN  HO429849   3.411   0.745  20.558
   31BMANN   C629850   3.347   0.670  20.241
   31BMANN  H6129851   3.422   0.748  20.268
   31BMANN  H6229852   3.403   0.575  20.224
   31BMANN   O629853   3.283   0.705  20.118
   31BMANN  HO629854   3.250   0.795  20.116
   32BGLCN   C129855   2.704   0.469  20.598
   32BGLCN   H129856   2.809   0.443  20.577
   32BGLCN   C529857   2.700   0.270  20.728
   32BGLCN   H529858   2.804   0.250  20.693
   32BGLCN   O529859   2.635   0.348  20.627
   32BGLCN   C229860   2.704   0.556  20.722
   32BGLCN   H229861   2.596   0.567  20.751
   32BGLCN    N29862   2.759   0.685  20.694
   32BGLCN   HN29863   2.828   0.683  20.623
   32BGLCN    C29864   2.719   0.802  20.745
   32BGLCN    O29865   2.631   0.815  20.829
   32BGLCN   CT29866   2.792   0.919  20.691
   32BGLCN  HT129867   2.843   0.889  20.597
   32BGLCN  HT229868   2.869   0.956  20.761
   32BGLCN  HT329869   2.721   1.001  20.667
   32BGLCN   C329870   2.781   0.481  20.828
   32BGLCN   H329871   2.879   0.453  20.783
   32BGLCN   O329872   2.806   0.559  20.946
   32BGLCN   C429873   2.706   0.353  20.854
   32BGLCN   H429874   2.603   0.386  20.878
   32BGLCN   O429875   2.759   0.277  20.961
   32BGLCN  HO429876   2.727   0.308  21.046
   32BGLCN   C629877   2.632   0.135  20.742
   32BGLCN  H6129878   2.690   0.067  20.808
   32BGLCN  H6229879   2.531   0.147  20.787
   32BGLCN   O629880   2.618   0.069  20.616
   32BGLCN  HO629881   2.696   0.088  20.561
   33AGAL    C129882   2.933   0.533  21.004
   33AGAL    H129883   2.957   0.425  20.997
   33AGAL    C529884   3.024   0.749  20.957
   33AGAL    H529885   2.921   0.770  20.920
   33AGAL    O529886   3.039   0.607  20.942
   33AGAL    C229887   2.930   0.573  21.150
   33AGAL    H229888   3.033   0.557  21.189
   33AGAL    O229889   2.845   0.482  21.223
   33AGAL    C329890   2.905   0.723  21.166
   33AGAL    H329891   2.813   0.752  21.109
   33AGAL    O329892   2.876   0.762  21.299
   33AGAL   HO329893   2.946   0.736  21.360
   33AGAL    C429894   3.022   0.798  21.101
   33AGAL    H429895   3.001   0.907  21.102
   33AGAL    O429896   3.148   0.785  21.165
   33AGAL   HO429897   3.160   0.709  21.222
   33AGAL    C629898   3.115   0.827  20.862
   33AGAL   H6129899   3.084   0.798  20.760
   33AGAL   H6229900   3.098   0.936  20.873
   33AGAL    O629901   3.255   0.806  20.875
   33AGAL   HO629902   3.287   0.728  20.826
   34ARHM    C129903   2.904   0.432  21.342
   34ARHM    H129904   2.944   0.516  21.402
   34ARHM    C529905   2.986   0.228  21.246
   34ARHM    H529906   2.952   0.258  21.144
   34ARHM    O529907   3.018   0.344  21.322
   34ARHM    C229908   2.793   0.364  21.421
   34ARHM    H229909   2.703   0.430  21.425
   34ARHM    O229910   2.829   0.324  21.555
   34ARHM    C329911   2.750   0.246  21.341
   34ARHM    H329912   2.715   0.279  21.240
   34ARHM    O329913   2.640   0.172  21.399
   34ARHM   HO329914   2.583   0.130  21.333
   34ARHM    C429915   2.873   0.164  21.321
   34ARHM    H429916   2.912   0.115  21.415
   34ARHM    O429917   2.825   0.075  21.229
   34ARHM   HO429918   2.787   0.010  21.290
   34ARHM    C629919   3.105   0.128  21.221
   34ARHM   H6129920   3.151   0.092  21.315
   34ARHM   H6229921   3.069   0.036  21.171
   34ARHM   H6329922   3.184   0.171  21.156
   35ARHM    C129923   2.872   0.425  21.643
   35ARHM    H129924   2.813   0.518  21.624
   35ARHM    C529925   3.094   0.332  21.657
   35ARHM    H529926   3.066   0.250  21.587
   35ARHM    O529927   3.014   0.450  21.633
   35ARHM    C229928   2.845   0.382  21.786
   35ARHM    H229929   2.736   0.360  21.801
   35ARHM    O229930   2.884   0.483  21.879
   35ARHM    C329931   2.923   0.257  21.819
   35ARHM    H329932   2.898   0.177  21.747
   35ARHM    O329933   2.887   0.208  21.948
   35ARHM   HO329934   2.874   0.282  22.008
   35ARHM    C429935   3.071   0.283  21.801
   35ARHM    H429936   3.104   0.363  21.871
   35ARHM    O429937   3.148   0.166  21.829
   35ARHM   HO429938   3.102   0.088  21.797
   35ARHM    C629939   3.240   0.366  21.623
   35ARHM   H6129940   3.253   0.384  21.514
   35ARHM   H6229941   3.273   0.455  21.679
   35ARHM   H6329942   3.305   0.278  21.647
   36BMANN   C129943   2.799   0.594  21.885
   36BMANN   H129944   2.698   0.567  21.850
   36BMANN   C529945   2.748   0.809  21.809
   36BMANN   H529946   2.647   0.774  21.781
   36BMANN   O529947   2.841   0.699  21.801
   36BMANN   C229948   2.799   0.641  22.030
   36BMANN   H229949   2.756   0.555  22.086
   36BMANN    N29950   2.930   0.672  22.085
   36BMANN   HN29951   2.993   0.718  22.022
   36BMANN    C29952   2.956   0.662  22.217
   36BMANN    O29953   2.878   0.609  22.295
   36BMANN   CT29954   3.084   0.719  22.270
   36BMANN  HT129955   3.103   0.818  22.224
   36BMANN  HT229956   3.169   0.651  22.251
   36BMANN  HT329957   3.075   0.731  22.380
   36BMANN   C329958   2.703   0.758  22.043
   36BMANN   H329959   2.606   0.726  22.011
   36BMANN   O329960   2.683   0.801  22.178
   36BMANN  HO329961   2.591   0.790  22.205
   36BMANN   C429962   2.744   0.868  21.951
   36BMANN   H429963   2.842   0.908  21.982
   36BMANN   O429964   2.652   0.974  21.960
   36BMANN  HO429965   2.649   0.995  22.054
   36BMANN   C629966   2.787   0.906  21.707
   36BMANN  H6129967   2.795   0.871  21.603
   36BMANN  H6229968   2.700   0.974  21.701
   36BMANN   O629969   2.911   0.958  21.754
   36BMANN  HO629970   2.900   1.046  21.795
    1ECLIP HB6S29971   7.548   6.090  11.778
    1ECLIP  OB629972   7.410   6.008  11.908
    1ECLIP  CB629973   7.510   5.989  11.806
    1ECLIP HB6R29974   7.595   5.930  11.846
    1ECLIP  CB529975   7.461   5.918  11.680
    1ECLIP  OB529976   7.349   5.995  11.632
    1ECLIP  HB529977   7.430   5.816  11.710
    1ECLIP  CB129978   7.291   5.937  11.515
    1ECLIP  HB129979   7.258   5.832  11.533
    1ECLIP  OA629980   7.178   6.007  11.472
    1ECLIP  CA629981   7.182   6.148  11.497
    1ECLIP HA6R29982   7.284   6.189  11.514
    1ECLIP HA6S29983   7.115   6.172  11.583
    1ECLIP  CB429984   7.568   5.908  11.569
    1ECLIP  HB429985   7.609   6.009  11.541
    1ECLIP  OB429986   7.669   5.819  11.619
    1ECLIP   PB29987   7.817   5.878  11.667
    1ECLIP OPB429988   7.861   5.796  11.789
    1ECLIP OPB329989   7.786   6.024  11.704
    1ECLIP OPB229990   7.901   5.867  11.540
    1ECLIP  CB329991   7.506   5.848  11.445
    1ECLIP  OB329992   7.592   5.842  11.330
    1ECLIP  HB329993   7.462   5.748  11.470
    1ECLIP  C7129994   7.673   5.736  11.316
    1ECLIP  O7129995   7.643   5.626  11.361
    1ECLIP  C7229996   7.738   5.751  11.175
    1ECLIP H72R29997   7.661   5.768  11.097
    1ECLIP H72S29998   7.792   5.657  11.154
    1ECLIP  CB229999   7.390   5.936  11.403
    1ECLIP  HB230000   7.429   6.041  11.388
    1ECLIP  NB230001   7.327   5.886  11.281
    1ECLIP HNB230002   7.255   5.820  11.294
    1ECLIP  CA430003   7.015   6.144  11.319
    1ECLIP  HA430004   7.041   6.038  11.298
    1ECLIP  OA430005   6.913   6.154  11.418
    1ECLIP HOA430006   6.942   6.115  11.501
    1ECLIP  CA530007   7.132   6.210  11.373
    1ECLIP  HA530008   7.113   6.322  11.392
    1ECLIP  OA530009   7.233   6.188  11.275
    1ECLIP  CA130010   7.203   6.250  11.152
    1ECLIP  HA130011   7.275   6.217  11.076
    1ECLIP  OA130012   7.247   6.374  11.166
    1ECLIP OPA230013   7.341   6.494  11.369
    1ECLIP OPA330014   7.493   6.325  11.269
    1ECLIP OPA430015   7.421   6.493  11.115
    1ECLIP   PA30016   7.387   6.420  11.240
    1ECLIP  CA330017   6.987   6.207  11.188
    1ECLIP  HA330018   6.980   6.310  11.228
    1ECLIP  OA330019   6.885   6.112  11.169
    1ECLIP  C3130020   6.863   6.017  11.083
    1ECLIP  O3130021   6.855   6.027  10.962
    1ECLIP  C3230022   6.786   5.911  11.162
    1ECLIP H32R30023   6.695   5.883  11.105
    1ECLIP H32S30024   6.759   5.949  11.264
    1ECLIP  CA230025   7.081   6.197  11.083
    1ECLIP  HA230026   7.100   6.091  11.061
    1ECLIP  NA230027   7.034   6.270  10.961
    1ECLIP HNA230028   6.936   6.292  10.948
    1ECLIP  C7330029   7.834   5.871  11.172
    1ECLIP H73R30030   7.897   5.867  11.264
    1ECLIP  O7330031   7.752   5.988  11.164
    1ECLIP  C8130032   7.792   6.097  11.229
    1ECLIP  O8130033   7.896   6.108  11.290
    1ECLIP  C8230034   7.719   6.215  11.168
    1ECLIP H82R30035   7.742   6.308  11.223
    1ECLIP H82S30036   7.614   6.186  11.185
    1ECLIP  C8330037   7.733   6.233  11.015
    1ECLIP H83R30038   7.663   6.162  10.965
    1ECLIP H83S30039   7.836   6.206  10.988
    1ECLIP  C8430040   7.695   6.373  10.965
    1ECLIP H84R30041   7.769   6.449  10.997
    1ECLIP H84S30042   7.597   6.398  11.012
    1ECLIP  C8530043   7.673   6.376  10.813
    1ECLIP H85R30044   7.614   6.284  10.791
    1ECLIP H85S30045   7.769   6.367  10.759
    1ECLIP  C8630046   7.586   6.494  10.765
    1ECLIP H86R30047   7.648   6.581  10.736
    1ECLIP H86S30048   7.521   6.526  10.850
    1ECLIP  C8730049   7.489   6.454  10.654
    1ECLIP H87R30050   7.439   6.546  10.619
    1ECLIP H87S30051   7.410   6.386  10.694
    1ECLIP  C8830052   7.557   6.378  10.541
    1ECLIP H88R30053   7.579   6.274  10.573
    1ECLIP H88S30054   7.657   6.424  10.526
    1ECLIP  C8930055   7.477   6.372  10.412
    1ECLIP H89R30056   7.369   6.396  10.425
    1ECLIP H89S30057   7.480   6.272  10.364
    1ECLIP C81030058   7.550   6.465  10.318
    1ECLIPH810R30059   7.657   6.468  10.333
    1ECLIPH810S30060   7.532   6.568  10.349
    1ECLIP C81130061   7.526   6.429  10.174
    1ECLIPH811R30062   7.541   6.523  10.114
    1ECLIPH811S30063   7.420   6.391  10.161
    1ECLIP C81230064   7.619   6.319  10.122
    1ECLIPH812R30065   7.597   6.282  10.021
    1ECLIPH812S30066   7.609   6.231  10.185
    1ECLIP C81330067   7.764   6.360  10.108
    1ECLIPH813R30068   7.768   6.444  10.034
    1ECLIPH813S30069   7.803   6.397  10.204
    1ECLIP C81430070   7.846   6.239  10.063
    1ECLIPH814R30071   7.804   6.193   9.970
    1ECLIPH814S30072   7.856   6.162  10.139
    1ECLIPH814T30073   7.948   6.276  10.037
    1ECLIP  C7430074   7.929   5.880  11.049
    1ECLIP H74R30075   8.005   5.802  11.040
    1ECLIP H74S30076   7.993   5.969  11.069
    1ECLIP  C7530077   7.858   5.903  10.914
    1ECLIP H75R30078   7.924   5.969  10.854
    1ECLIP H75S30079   7.764   5.959  10.933
    1ECLIP  C7630080   7.820   5.778  10.831
    1ECLIP H76R30081   7.730   5.730  10.874
    1ECLIP H76S30082   7.896   5.699  10.836
    1ECLIP  C7730083   7.797   5.805  10.681
    1ECLIP H77R30084   7.891   5.842  10.636
    1ECLIP H77S30085   7.722   5.885  10.667
    1ECLIP  C7830086   7.742   5.678  10.616
    1ECLIP H78R30087   7.809   5.593  10.643
    1ECLIP H78S30088   7.646   5.658  10.669
    1ECLIP  C7930089   7.707   5.682  10.466
    1ECLIP H79R30090   7.599   5.707  10.454
    1ECLIP H79S30091   7.722   5.582  10.420
    1ECLIP C71030092   7.791   5.777  10.382
    1ECLIPH710R30093   7.788   5.880  10.423
    1ECLIPH710S30094   7.896   5.741  10.385
    1ECLIP C71130095   7.749   5.784  10.236
    1ECLIPH711R30096   7.755   5.682  10.192
    1ECLIPH711S30097   7.644   5.821  10.229
    1ECLIP C71230098   7.839   5.883  10.163
    1ECLIPH712R30099   7.943   5.841  10.163
    1ECLIPH712S30100   7.840   5.977  10.221
    1ECLIP C71330101   7.789   5.908  10.023
    1ECLIPH713R30102   7.690   5.959  10.024
    1ECLIPH713S30103   7.860   5.976   9.968
    1ECLIP C71430104   7.773   5.774   9.953
    1ECLIPH714R30105   7.876   5.732   9.938
    1ECLIPH714S30106   7.708   5.695   9.988
    1ECLIPH714T30107   7.719   5.793   9.859
    1ECLIP  C5130108   7.371   5.921  11.159
    1ECLIP  O5130109   7.447   6.014  11.142
    1ECLIP  C5230110   7.329   5.837  11.042
    1ECLIP H52R30111   7.408   5.761  11.029
    1ECLIP H52S30112   7.232   5.790  11.062
    1ECLIP  C5330113   7.327   5.918  10.912
    1ECLIP H53R30114   7.294   6.023  10.934
    1ECLIP  O5330115   7.241   5.851  10.819
    1ECLIP  C6130116   7.125   5.907  10.787
    1ECLIP  O6130117   7.087   6.016  10.820
    1ECLIP  C6230118   7.045   5.812  10.695
    1ECLIP H62R30119   6.991   5.738  10.757
    1ECLIP H62S30120   7.121   5.756  10.637
    1ECLIP  C6330121   6.944   5.891  10.606
    1ECLIP H63R30122   6.997   5.978  10.563
    1ECLIP H63S30123   6.860   5.930  10.669
    1ECLIP  C6430124   6.885   5.814  10.487
    1ECLIP H64R30125   6.810   5.877  10.435
    1ECLIP H64S30126   6.834   5.724  10.529
    1ECLIP  C6530127   6.995   5.772  10.389
    1ECLIP H65R30128   7.061   5.706  10.450
    1ECLIP H65S30129   7.055   5.861  10.358
    1ECLIP  C6630130   6.956   5.693  10.263
    1ECLIP H66R30131   6.901   5.601  10.292
    1ECLIP H66S30132   7.053   5.665  10.216
    1ECLIP  C6730133   6.875   5.765  10.156
    1ECLIP H67R30134   6.783   5.813  10.194
    1ECLIP H67S30135   6.845   5.695  10.074
    1ECLIP  C6830136   6.952   5.878  10.094
    1ECLIP H68R30137   7.051   5.854  10.051
    1ECLIP H68S30138   6.963   5.959  10.168
    1ECLIP  C6930139   6.875   5.924   9.978
    1ECLIP H69R30140   6.764   5.918   9.980
    1ECLIP H69S30141   6.900   5.849   9.902
    1ECLIP C61030142   6.922   6.061   9.950
    1ECLIPH610R30143   7.028   6.088   9.953
    1ECLIPH610S30144   6.868   6.138  10.011
    1ECLIP C61130145   6.889   6.064   9.810
    1ECLIPH611R30146   6.784   6.035   9.811
    1ECLIPH611S30147   6.902   6.177   9.795
    1ECLIP C61230148   6.933   5.955   9.707
    1ECLIPH612R30149   7.033   5.960   9.665
    1ECLIPH612S30150   6.915   5.852   9.717
    1ECLIPH612T30151   6.891   5.982   9.613
    1ECLIP  C5430152   7.471   5.919  10.853
    1ECLIP H54R30153   7.496   5.815  10.825
    1ECLIP H54S30154   7.540   5.950  10.934
    1ECLIP  C5530155   7.495   6.012  10.734
    1ECLIP H55R30156   7.603   6.028  10.719
    1ECLIP H55S30157   7.452   6.112  10.757
    1ECLIP  C5630158   7.438   5.949  10.607
    1ECLIP H56R30159   7.331   5.926  10.622
    1ECLIP H56S30160   7.489   5.852  10.586
    1ECLIP  C5730161   7.441   6.039  10.484
    1ECLIP H57R30162   7.544   6.072  10.457
    1ECLIP H57S30163   7.374   6.127  10.497
    1ECLIP  C5830164   7.385   5.960  10.370
    1ECLIP H58R30165   7.453   5.873  10.361
    1ECLIP H58S30166   7.279   5.926  10.387
    1ECLIP  C5930167   7.401   6.024  10.236
    1ECLIP H59R30168   7.509   6.034  10.209
    1ECLIP H59S30169   7.350   6.121  10.233
    1ECLIP C51030170   7.343   5.921  10.151
    1ECLIPH510R30171   7.226   5.892  10.138
    1ECLIPH510S30172   7.461   5.891  10.089
    1ECLIP C51130173   7.377   5.875  10.044
    1ECLIPH511R30174   7.325   5.987  10.028
    1ECLIPH511S30175   7.357   5.791  10.153
    1ECLIP C51230176   7.366   5.901   9.889
    1ECLIPH512R30177   7.405   5.978   9.817
    1ECLIPH512S30178   7.433   5.822   9.855
    1ECLIP C51330179   7.233   5.922   9.819
    1ECLIPH513R30180   7.137   5.966   9.824
    1ECLIPH513S30181   7.190   5.860   9.895
    1ECLIP C51430182   7.240   5.868   9.685
    1ECLIPH514R30183   7.331   5.803   9.696
    1ECLIPH514S30184   7.143   5.809   9.678
    1ECLIPH514T30185   7.255   5.903   9.583
    1ECLIP  C3330186   6.867   5.788  11.182
    1ECLIP H33R30187   6.802   5.706  11.222
    1ECLIP  O3330188   6.965   5.814  11.280
    1ECLIP HO3330189   6.933   5.812  11.370
    1ECLIP  C3430190   6.932   5.750  11.050
    1ECLIP H34R30191   7.004   5.824  11.012
    1ECLIP H34S30192   6.856   5.720  10.973
    1ECLIP  C3530193   7.020   5.636  11.074
    1ECLIP H35R30194   6.940   5.569  11.116
    1ECLIP H35S30195   7.085   5.645  11.162
    1ECLIP  C3630196   7.113   5.595  10.953
    1ECLIP H36R30197   7.132   5.681  10.894
    1ECLIP H36S30198   7.044   5.540  10.884
    1ECLIP  C3730199   7.257   5.528  10.990
    1ECLIP H37R30200   7.268   5.418  11.000
    1ECLIP H37S30201   7.279   5.532  11.098
    1ECLIP  C3830202   7.374   5.528  10.895
    1ECLIP H38R30203   7.424   5.589  10.972
    1ECLIP H38S30204   7.430   5.430  10.901
    1ECLIP  C3930205   7.320   5.546  10.749
    1ECLIP H39R30206   7.210   5.556  10.729
    1ECLIP H39S30207   7.314   5.443  10.727
    1ECLIP C31030208   7.407   5.529  10.625
    1ECLIPH310R30209   7.484   5.448  10.630
    1ECLIPH310S30210   7.464   5.618  10.634
    1ECLIP C31130211   7.326   5.523  10.494
    1ECLIPH311R30212   7.236   5.462  10.516
    1ECLIPH311S30213   7.271   5.615  10.471
    1ECLIP C31230214   7.412   5.492  10.368
    1ECLIPH312R30215   7.517   5.513  10.387
    1ECLIPH312S30216   7.419   5.390  10.330
    1ECLIP C31330217   7.355   5.545  10.237
    1ECLIPH313R30218   7.272   5.484  10.210
    1ECLIPH313S30219   7.304   5.640  10.249
    1ECLIP C31430220   7.447   5.526  10.118
    1ECLIPH314R30221   7.468   5.418  10.098
    1ECLIPH314S30222   7.401   5.566  10.028
    1ECLIPH314T30223   7.540   5.580  10.138
    1ECLIP  C1130224   7.114   6.314  10.863
    1ECLIP  O1130225   7.230   6.282  10.846
    1ECLIP  C1230226   7.050   6.412  10.771
    1ECLIP H12R30227   7.099   6.508  10.793
    1ECLIP H12S30228   6.942   6.421  10.792
    1ECLIP  C1330229   7.062   6.372  10.626
    1ECLIP H13R30230   7.170   6.353  10.600
    1ECLIP  O1330231   7.017   6.476  10.549
    1ECLIP HO1330232   7.083   6.500  10.484
    1ECLIP  C1430233   6.977   6.259  10.583
    1ECLIP H14R30234   6.880   6.278  10.633
    1ECLIP H14S30235   7.023   6.168  10.619
    1ECLIP  C1530236   6.953   6.252  10.433
    1ECLIP H15R30237   6.929   6.349  10.387
    1ECLIP H15S30238   6.863   6.190  10.417
    1ECLIP  C1630239   7.074   6.205  10.358
    1ECLIP H16R30240   7.086   6.097  10.368
    1ECLIP H16S30241   7.163   6.257  10.401
    1ECLIP  C1730242   7.056   6.235  10.214
    1ECLIP H17R30243   6.951   6.221  10.178
    1ECLIP H17S30244   7.128   6.186  10.145
    1ECLIP  C1830245   7.083   6.375  10.201
    1ECLIP H18R30246   7.021   6.447  10.262
    1ECLIP H18S30247   7.192   6.390  10.226
    1ECLIP  C1930248   7.055   6.405  10.062
    1ECLIP H19R30249   7.045   6.508  10.092
    1ECLIP H19S30250   6.968   6.405  10.007
    1ECLIP C11030251   7.155   6.354   9.964
    1ECLIPH110R30252   7.239   6.397  10.024
    1ECLIPH110S30253   7.161   6.248   9.957
    1ECLIP C11130254   7.146   6.393   9.814
    1ECLIPH111R30255   7.054   6.397   9.770
    1ECLIPH111S30256   7.186   6.493   9.830
    1ECLIP C11230257   7.222   6.324   9.694
    1ECLIPH112R30258   7.316   6.349   9.698
    1ECLIPH112S30259   7.247   6.222   9.719
    1ECLIP C11330260   7.197   6.363   9.536
    1ECLIPH113R30261   7.097   6.358   9.498
    1ECLIPH113S30262   7.162   6.461   9.526
    1ECLIP C11430263   7.308   6.355   9.428
    1ECLIPH114R30264   7.409   6.397   9.451
    1ECLIPH114S30265   7.327   6.250   9.414
    1ECLIPH114T30266   7.279   6.423   9.344
    2AKDO    C130267   7.407   5.780  11.979
    2AKDO   O1130268   7.507   5.703  11.983
    2AKDO   O1230269   7.288   5.751  11.948
    2AKDO    C230270   7.430   5.928  12.024
    2AKDO    C630271   7.590   6.078  12.122
    2AKDO    H630272   7.573   6.141  12.031
    2AKDO    O630273   7.562   5.943  12.083
    2AKDO    C330274   7.329   5.974  12.129
    2AKDO   H3130275   7.329   5.904  12.215
    2AKDO   H3230276   7.228   5.973  12.081
    2AKDO    C430277   7.355   6.115  12.173
    2AKDO    H430278   7.355   6.182  12.085
    2AKDO    O430279   7.262   6.158  12.273
    2AKDO    C530280   7.494   6.126  12.232
    2AKDO    H530281   7.515   6.235  12.245
    2AKDO    O530282   7.493   6.057  12.361
    2AKDO    C730283   7.738   6.095  12.153
    2AKDO    H730284   7.762   6.036  12.244
    2AKDO    O730285   7.770   6.234  12.173
    2AKDO   HO730286   7.785   6.268  12.083
    2AKDO    C830287   7.822   6.040  12.040
    2AKDO   H8130288   7.793   5.933  12.023
    2AKDO   H8230289   7.799   6.094  11.946
    2AKDO    O830290   7.962   6.049  12.072
    2AKDO   HO830291   8.002   5.976  12.021
    3AKDO    C130292   7.142   6.299  12.116
    3AKDO   O1130293   7.113   6.252  12.003
    3AKDO   O1230294   7.189   6.412  12.144
    3AKDO    C230295   7.133   6.203  12.237
    3AKDO    C630296   7.045   5.993  12.314
    3AKDO    H630297   7.144   5.948  12.331
    3AKDO    O630298   7.045   6.093  12.208
    3AKDO    C330299   7.086   6.270  12.368
    3AKDO   H3130300   6.984   6.313  12.353
    3AKDO   H3230301   7.151   6.356  12.395
    3AKDO    C430302   7.088   6.168  12.478
    3AKDO    H430303   7.189   6.121  12.486
    3AKDO    O430304   7.055   6.223  12.605
    3AKDO   HO430305   7.122   6.200  12.671
    3AKDO    C530306   7.003   6.053  12.441
    3AKDO    H530307   6.988   5.985  12.527
    3AKDO    O530308   6.878   6.087  12.412
    3AKDO   HO530309   6.872   6.175  12.368
    3AKDO    C730310   6.951   5.885  12.270
    3AKDO    H730311   6.854   5.932  12.240
    3AKDO    O730312   6.933   5.790  12.377
    3AKDO   HO730313   6.866   5.726  12.350
    3AKDO    C830314   7.003   5.821  12.146
    3AKDO   H8130315   7.019   5.899  12.068
    3AKDO   H8230316   7.100   5.771  12.166
    3AKDO    O830317   6.904   5.730  12.097
    3AKDO   HO830318   6.840   5.788  12.055
    4AHEP    C130319   7.580   6.108  12.461
    4AHEP    H130320   7.680   6.076  12.427
    4AHEP    C530321   7.473   6.310  12.535
    4AHEP    H530322   7.381   6.273  12.486
    4AHEP    O530323   7.586   6.250  12.467
    4AHEP    C230324   7.572   6.057  12.607
    4AHEP    H230325   7.560   5.946  12.604
    4AHEP    O230326   7.695   6.080  12.674
    4AHEP   HO230327   7.726   6.005  12.725
    4AHEP    C330328   7.455   6.114  12.686
    4AHEP    H330329   7.358   6.081  12.646
    4AHEP    O330330   7.466   6.074  12.825
    4AHEP    C430331   7.469   6.265  12.682
    4AHEP    H430332   7.562   6.300  12.733
    4AHEP    O430333   7.351   6.317  12.743
    4AHEP    P430334   7.358   6.401  12.886
    4AHEP  OP4230335   7.224   6.368  12.949
    4AHEP  OP4330336   7.372   6.548  12.847
    4AHEP  OP4430337   7.477   6.346  12.967
    4AHEP    C630338   7.482   6.462  12.515
    4AHEP    H630339   7.383   6.505  12.546
    4AHEP    O630340   7.583   6.514  12.601
    4AHEP   HO630341   7.536   6.581  12.654
    4AHEP    C730342   7.510   6.509  12.370
    4AHEP   H7130343   7.487   6.618  12.356
    4AHEP   H7230344   7.445   6.452  12.301
    4AHEP    O730345   7.645   6.493  12.325
    4AHEP   HO730346   7.690   6.561  12.378
    5AHEP    C130347   7.360   6.003  12.882
    5AHEP    H130348   7.263   6.031  12.834
    5AHEP    C530349   7.504   5.817  12.932
    5AHEP    H530350   7.587   5.882  12.895
    5AHEP    O530351   7.382   5.861  12.866
    5AHEP    C230352   7.348   6.032  13.032
    5AHEP    H230353   7.338   6.143  13.045
    5AHEP    O230354   7.229   5.972  13.084
    5AHEP   HO230355   7.163   6.042  13.098
    5AHEP    C330356   7.473   5.989  13.109
    5AHEP    H330357   7.559   6.045  13.066
    5AHEP    O330358   7.470   6.009  13.253
    5AHEP    C430359   7.492   5.841  13.082
    5AHEP    H430360   7.405   5.782  13.120
    5AHEP    O430361   7.616   5.801  13.141
    5AHEP    P430362   7.611   5.691  13.266
    5AHEP  OP4230363   7.752   5.698  13.320
    5AHEP  OP4330364   7.582   5.560  13.197
    5AHEP  OP4430365   7.508   5.745  13.366
    5AHEP    C630366   7.539   5.674  12.892
    5AHEP    H630367   7.636   5.646  12.941
    5AHEP    O630368   7.441   5.579  12.935
    5AHEP   HO630369   7.359   5.588  12.889
    5AHEP    C730370   7.559   5.660  12.743
    5AHEP   H7130371   7.640   5.585  12.728
    5AHEP   H7230372   7.595   5.755  12.697
    5AHEP    O730373   7.441   5.606  12.680
    6AHEP    C130374   7.365   5.704  12.615
    6AHEP    H130375   7.400   5.807  12.639
    6AHEP    C530376   7.334   5.557  12.432
    6AHEP    H530377   7.393   5.481  12.488
    6AHEP    O530378   7.380   5.687  12.474
    6AHEP    C230379   7.221   5.691  12.659
    6AHEP    H230380   7.219   5.702  12.769
    6AHEP    O230381   7.143   5.800  12.610
    6AHEP   HO230382   7.118   5.856  12.683
    6AHEP    C330383   7.168   5.553  12.621
    6AHEP    H330384   7.230   5.477  12.674
    6AHEP    O330385   7.031   5.532  12.659
    6AHEP   HO330386   7.016   5.478  12.738
    6AHEP    C430387   7.187   5.536  12.470
    6AHEP    H430388   7.122   5.609  12.416
    6AHEP    O430389   7.150   5.405  12.428
    6AHEP   HO430390   7.219   5.343  12.447
    6AHEP    C630391   7.366   5.528  12.286
    6AHEP    H630392   7.342   5.421  12.267
    6AHEP    O630393   7.282   5.603  12.200
    6AHEP   HO630394   7.334   5.652  12.133
    6AHEP    C730395   7.515   5.540  12.253
    6AHEP   H7130396   7.532   5.503  12.149
    6AHEP   H7230397   7.570   5.476  12.325
    6AHEP    O730398   7.572   5.670  12.267
    6AHEP   HO730399   7.577   5.690  12.360
    7AGLC    C130400   7.519   6.130  13.304
    7AGLC    H130401   7.613   6.160  13.255
    7AGLC    C530402   7.302   6.216  13.346
    7AGLC    H530403   7.259   6.117  13.318
    7AGLC    O530404   7.429   6.235  13.280
    7AGLC    C230405   7.546   6.131  13.453
    7AGLC    H230406   7.573   6.235  13.480
    7AGLC    O230407   7.658   6.052  13.492
    7AGLC   HO230408   7.629   5.958  13.495
    7AGLC    C330409   7.422   6.102  13.533
    7AGLC    H330410   7.379   6.006  13.497
    7AGLC    O330411   7.449   6.089  13.675
    7AGLC    C430412   7.325   6.215  13.497
    7AGLC    H430413   7.369   6.313  13.528
    7AGLC    O430414   7.202   6.193  13.563
    7AGLC   HO430415   7.167   6.273  13.602
    7AGLC    C630416   7.208   6.320  13.287
    7AGLC   H6130417   7.202   6.304  13.177
    7AGLC   H6230418   7.103   6.310  13.325
    7AGLC    O630419   7.256   6.452  13.311
    7AGLC   HO630420   7.208   6.488  13.385
    8AGLC    C130421   7.414   5.962  13.728
    8AGLC    H130422   7.315   5.931  13.687
    8AGLC    C530423   7.640   5.873  13.758
    8AGLC    H530424   7.681   5.970  13.725
    8AGLC    O530425   7.510   5.859  13.696
    8AGLC    C230426   7.396   5.963  13.880
    8AGLC    H230427   7.360   5.861  13.906
    8AGLC    O230428   7.298   6.055  13.931
    8AGLC    C330429   7.527   5.987  13.949
    8AGLC    H330430   7.567   6.084  13.909
    8AGLC    O330431   7.501   6.003  14.091
    8AGLC    C430432   7.621   5.876  13.910
    8AGLC    H430433   7.575   5.779  13.939
    8AGLC    O430434   7.743   5.889  13.979
    8AGLC   HO430435   7.776   5.979  13.972
    8AGLC    C630436   7.746   5.769  13.711
    8AGLC   H6130437   7.745   5.758  13.600
    8AGLC   H6230438   7.848   5.804  13.739
    8AGLC    O630439   7.733   5.639  13.771
    8AGLC   HO630440   7.772   5.641  13.859
    9AGAL    C130441   7.168   6.049  13.878
    9AGAL    H130442   7.170   6.046  13.768
    9AGAL    C530443   7.076   5.933  14.062
    9AGAL    H530444   7.174   5.950  14.111
    9AGAL    O530445   7.097   5.932  13.920
    9AGAL    C230446   7.095   6.176  13.919
    9AGAL    H230447   6.994   6.170  13.874
    9AGAL    O230448   7.164   6.284  13.851
    9AGAL    C330449   7.073   6.180  14.070
    9AGAL    H330450   7.170   6.179  14.125
    9AGAL    O330451   7.009   6.299  14.113
    9AGAL   HO330452   7.047   6.369  14.057
    9AGAL    C430453   6.993   6.053  14.104
    9AGAL    H430454   6.978   6.050  14.213
    9AGAL    O430455   6.866   6.045  14.042
    9AGAL   HO430456   6.802   6.002  14.100
    9AGAL    C630457   7.028   5.798  14.114
    9AGAL   H6130458   7.105   5.720  14.097
    9AGAL   H6230459   7.016   5.811  14.220
    9AGAL    O630460   6.901   5.751  14.072
    9AGAL   HO630461   6.916   5.694  13.997
   10AGAL    C130462   7.189   6.409  13.909
   10AGAL    H130463   7.093   6.465  13.920
   10AGAL    C530464   7.387   6.356  14.039
   10AGAL    H530465   7.377   6.255  13.999
   10AGAL    O530466   7.253   6.407  14.039
   10AGAL    C230467   7.274   6.491  13.811
   10AGAL    H230468   7.284   6.596  13.846
   10AGAL    O230469   7.212   6.506  13.684
   10AGAL   HO230470   7.221   6.601  13.664
   10AGAL    C330471   7.414   6.428  13.806
   10AGAL    H330472   7.400   6.320  13.781
   10AGAL    O330473   7.502   6.484  13.709
   10AGAL   HO330474   7.512   6.426  13.634
   10AGAL    C430475   7.477   6.435  13.943
   10AGAL    H430476   7.576   6.386  13.943
   10AGAL    O430477   7.502   6.568  13.983
   10AGAL   HO430478   7.419   6.606  14.008
   10AGAL    C630479   7.449   6.339  14.178
   10AGAL   H6130480   7.377   6.292  14.246
   10AGAL   H6230481   7.536   6.271  14.166
   10AGAL    O630482   7.498   6.457  14.243
   10AGAL   HO630483   7.450   6.474  14.325
   11BGLC    C130484   7.514   5.896  14.184
   11BGLC    H130485   7.622   5.872  14.198
   11BGLC    C530486   7.440   5.673  14.247
   11BGLC    H530487   7.542   5.639  14.272
   11BGLC    O530488   7.437   5.779  14.147
   11BGLC    C230489   7.458   5.951  14.315
   11BGLC    H230490   7.352   5.983  14.301
   11BGLC    O230491   7.532   6.065  14.356
   11BGLC   HO230492   7.472   6.139  14.364
   11BGLC    C330493   7.459   5.849  14.427
   11BGLC    H330494   7.563   5.822  14.454
   11BGLC    O330495   7.389   5.905  14.541
   11BGLC    C430496   7.381   5.730  14.377
   11BGLC    H430497   7.281   5.767  14.350
   11BGLC    O430498   7.366   5.633  14.481
   11BGLC   HO430499   7.306   5.670  14.547
   11BGLC    C630500   7.367   5.553  14.185
   11BGLC   H6130501   7.331   5.486  14.264
   11BGLC   H6230502   7.278   5.585  14.128
   11BGLC    O630503   7.449   5.475  14.098
   11BGLC   HO630504   7.472   5.387  14.133
   12BGLCN   C130505   7.452   5.906  14.668
   12BGLCN   H130506   7.519   5.994  14.674
   12BGLCN   C530507   7.587   5.788  14.822
   12BGLCN   H530508   7.656   5.872  14.816
   12BGLCN   O530509   7.524   5.787  14.693
   12BGLCN   C230510   7.340   5.917  14.771
   12BGLCN   H230511   7.283   5.820  14.766
   12BGLCN    N30512   7.257   6.031  14.740
   12BGLCN   HN30513   7.307   6.115  14.734
   12BGLCN    C30514   7.124   6.021  14.727
   12BGLCN    O30515   7.065   5.916  14.744
   12BGLCN   CT30516   7.049   6.146  14.691
   12BGLCN  HT130517   6.988   6.179  14.777
   12BGLCN  HT230518   6.978   6.126  14.609
   12BGLCN  HT330519   7.120   6.224  14.660
   12BGLCN   C330520   7.397   5.928  14.912
   12BGLCN   H330521   7.459   6.020  14.916
   12BGLCN   O330522   7.292   5.943  15.013
   12BGLCN   C430523   7.480   5.802  14.931
   12BGLCN   H430524   7.416   5.711  14.926
   12BGLCN   O430525   7.539   5.801  15.060
   12BGLCN  HO430526   7.603   5.873  15.064
   12BGLCN   C630527   7.675   5.665  14.831
   12BGLCN  H6130528   7.728   5.659  14.929
   12BGLCN  H6230529   7.611   5.576  14.819
   12BGLCN   O630530   7.774   5.665  14.728
   12BGLCN  HO630531   7.852   5.713  14.754
   13AGAL    C130532   7.321   6.033  15.120
   13AGAL    H130533   7.427   6.020  15.151
   13AGAL    C530534   7.152   6.196  15.064
   13AGAL    H530535   7.120   6.118  14.991
   13AGAL    O530536   7.293   6.170  15.084
   13AGAL    C230537   7.238   6.009  15.247
   13AGAL    H230538   7.265   6.091  15.316
   13AGAL    O230539   7.272   5.885  15.311
   13AGAL    C330540   7.089   6.030  15.225
   13AGAL    H330541   7.057   5.969  15.138
   13AGAL    O330542   7.012   5.989  15.337
   13AGAL   HO330543   6.929   5.948  15.308
   13AGAL    C430544   7.067   6.174  15.188
   13AGAL    H430545   6.960   6.188  15.160
   13AGAL    O430546   7.096   6.267  15.294
   13AGAL   HO430547   7.179   6.246  15.337
   13AGAL    C630548   7.118   6.325  14.991
   13AGAL   H6130549   7.178   6.330  14.898
   13AGAL   H6230550   7.010   6.322  14.966
   13AGAL    O630551   7.139   6.445  15.066
   13AGAL   HO630552   7.073   6.450  15.136
   14ARHM    C130553   7.336   5.892  15.438
   14ARHM    H130554   7.393   5.984  15.445
   14ARHM    C530555   7.370   5.661  15.453
   14ARHM    H530556   7.317   5.652  15.356
   14ARHM    O530557   7.434   5.790  15.455
   14ARHM    C230558   7.234   5.891  15.549
   14ARHM    H230559   7.162   5.974  15.530
   14ARHM    O230560   7.286   5.903  15.683
   14ARHM    C330561   7.165   5.758  15.543
   14ARHM    H330562   7.128   5.742  15.439
   14ARHM    O330563   7.049   5.753  15.628
   14ARHM   HO330564   7.080   5.752  15.718
   14ARHM    C430565   7.269   5.650  15.568
   14ARHM    H430566   7.324   5.668  15.664
   14ARHM    O430567   7.208   5.521  15.575
   14ARHM   HO430568   7.210   5.484  15.664
   14ARHM    C630569   7.481   5.555  15.458
   14ARHM   H6130570   7.568   5.579  15.394
   14ARHM   H6230571   7.509   5.550  15.564
   14ARHM   H6330572   7.445   5.455  15.430
   15ARHM    C130573   7.370   6.011  15.710
   15ARHM    H130574   7.348   6.095  15.640
   15ARHM    C530575   7.554   5.881  15.798
   15ARHM    H530576   7.508   5.781  15.780
   15ARHM    O530577   7.510   5.979  15.702
   15ARHM    C230578   7.336   6.060  15.849
   15ARHM    H230579   7.226   6.078  15.857
   15ARHM    O230580   7.406   6.185  15.862
   15ARHM    C330581   7.373   5.954  15.950
   15ARHM    H330582   7.324   5.858  15.920
   15ARHM    O330583   7.321   5.994  16.076
   15ARHM    C430584   7.523   5.930  15.939
   15ARHM    H430585   7.575   6.027  15.951
   15ARHM    O430586   7.574   5.839  16.036
   15ARHM   HO430587   7.671   5.855  16.035
   15ARHM    C630588   7.705   5.862  15.779
   15ARHM   H6130589   7.746   5.778  15.839
   15ARHM   H6230590   7.729   5.847  15.673
   15ARHM   H6330591   7.758   5.954  15.812
   16BMANN   C130592   7.394   6.254  15.983
   16BMANN   H130593   7.448   6.199  16.063
   16BMANN   C530594   7.259   6.325  16.166
   16BMANN   H530595   7.313   6.265  16.241
   16BMANN   O530596   7.260   6.270  16.032
   16BMANN   C230597   7.465   6.387  15.969
   16BMANN   H230598   7.567   6.367  15.936
   16BMANN    N30599   7.413   6.475  15.864
   16BMANN   HN30600   7.341   6.540  15.891
   16BMANN    C30601   7.455   6.472  15.737
   16BMANN    O30602   7.545   6.401  15.694
   16BMANN   CT30603   7.383   6.561  15.644
   16BMANN  HT130604   7.443   6.652  15.623
   16BMANN  HT230605   7.289   6.589  15.696
   16BMANN  HT330606   7.355   6.518  15.546
   16BMANN   C330607   7.475   6.446  16.106
   16BMANN   H330608   7.530   6.385  16.179
   16BMANN   O330609   7.548   6.568  16.093
   16BMANN  HO330610   7.605   6.583  16.170
   16BMANN   C430611   7.332   6.450  16.160
   16BMANN   H430612   7.267   6.487  16.078
   16BMANN   O430613   7.324   6.505  16.294
   16BMANN  HO430614   7.250   6.568  16.294
   16BMANN   C630615   7.115   6.356  16.214
   16BMANN  H6130616   7.117   6.361  16.325
   16BMANN  H6230617   7.073   6.453  16.177
   16BMANN   O630618   7.021   6.257  16.175
   16BMANN  HO630619   6.953   6.296  16.119
   17BGLCN   C130620   7.265   5.890  16.151
   17BGLCN   H130621   7.326   5.799  16.135
   17BGLCN   C530622   7.070   5.758  16.193
   17BGLCN   H530623   7.124   5.662  16.172
   17BGLCN   O530624   7.129   5.863  16.114
   17BGLCN   C230625   7.274   5.938  16.294
   17BGLCN   H230626   7.207   6.027  16.312
   17BGLCN    N30627   7.409   5.981  16.325
   17BGLCN   HN30628   7.481   5.936  16.273
   17BGLCN    C30629   7.446   6.068  16.420
   17BGLCN    O30630   7.369   6.139  16.486
   17BGLCN   CT30631   7.594   6.074  16.442
   17BGLCN  HT130632   7.643   6.159  16.391
   17BGLCN  HT230633   7.640   5.980  16.405
   17BGLCN  HT330634   7.617   6.081  16.550
   17BGLCN   C330635   7.224   5.824  16.379
   17BGLCN   H330636   7.283   5.735  16.346
   17BGLCN   O330637   7.254   5.849  16.519
   17BGLCN   C430638   7.079   5.797  16.341
   17BGLCN   H430639   7.020   5.891  16.350
   17BGLCN   O430640   7.022   5.699  16.426
   17BGLCN  HO430641   6.928   5.692  16.411
   17BGLCN   C630642   6.925   5.736  16.149
   17BGLCN  H6130643   6.903   5.628  16.156
   17BGLCN  H6230644   6.855   5.789  16.217
   17BGLCN   O630645   6.895   5.775  16.015
   17BGLCN  HO630646   6.959   5.736  15.956
   18AGAL    C130647   7.287   5.736  16.598
   18AGAL    H130648   7.194   5.676  16.617
   18AGAL    C530649   7.511   5.712  16.522
   18AGAL    H530650   7.496   5.811  16.476
   18AGAL    O530651   7.382   5.650  16.534
   18AGAL    C230652   7.348   5.770  16.733
   18AGAL    H230653   7.371   5.669  16.776
   18AGAL    O230654   7.256   5.831  16.824
   18AGAL    C330655   7.483   5.841  16.721
   18AGAL    H330656   7.470   5.929  16.653
   18AGAL    O330657   7.532   5.892  16.845
   18AGAL   HO330658   7.568   5.981  16.834
   18AGAL    C430659   7.580   5.745  16.653
   18AGAL    H430660   7.676   5.796  16.630
   18AGAL    O430661   7.610   5.631  16.732
   18AGAL   HO430662   7.664   5.659  16.807
   18AGAL    C630663   7.589   5.643  16.414
   18AGAL   H6130664   7.530   5.654  16.320
   18AGAL   H6230665   7.686   5.696  16.400
   18AGAL    O630666   7.612   5.505  16.439
   18AGAL   HO630667   7.550   5.473  16.506
   19ARHM    C130668   7.271   5.777  16.954
   19ARHM    H130669   7.376   5.745  16.972
   19ARHM    C530670   7.052   5.687  16.961
   19ARHM    H530671   7.038   5.726  16.858
   19ARHM    O530672   7.191   5.661  16.979
   19ARHM    C230673   7.230   5.885  17.048
   19ARHM    H230674   7.283   5.981  17.024
   19ARHM    O230675   7.263   5.849  17.183
   19ARHM    C330676   7.083   5.914  17.032
   19ARHM    H330677   7.061   5.943  16.927
   19ARHM    O330678   7.043   6.021  17.114
   19ARHM   HO330679   7.080   6.006  17.201
   19ARHM    C430680   7.004   5.790  17.061
   19ARHM    H430681   7.025   5.756  17.165
   19ARHM    O430682   6.864   5.811  17.050
   19ARHM   HO430683   6.840   5.831  16.959
   19ARHM    C630684   6.975   5.557  16.964
   19ARHM   H6130685   7.019   5.495  16.883
   19ARHM   H6230686   6.984   5.503  17.061
   19ARHM   H6330687   6.866   5.570  16.943
   20ARHM    C130688   7.402   5.856  17.206
   20ARHM    H130689   7.455   5.908  17.123
   20ARHM    C530690   7.413   5.656  17.332
   20ARHM    H530691   7.304   5.644  17.318
   20ARHM    O530692   7.465   5.729  17.220
   20ARHM    C230693   7.419   5.937  17.332
   20ARHM    H230694   7.359   6.031  17.322
   20ARHM    O230695   7.557   5.968  17.354
   20ARHM    C330696   7.366   5.864  17.449
   20ARHM    H330697   7.258   5.843  17.433
   20ARHM    O330698   7.382   5.949  17.563
   20ARHM    C430699   7.440   5.734  17.460
   20ARHM    H430700   7.551   5.748  17.468
   20ARHM    O430701   7.398   5.661  17.573
   20ARHM   HO430702   7.407   5.569  17.547
   20ARHM    C630703   7.471   5.513  17.332
   20ARHM   H6130704   7.577   5.513  17.354
   20ARHM   H6230705   7.428   5.452  17.413
   20ARHM   H6330706   7.456   5.463  17.235
   21BMANN   C130707   7.593   6.079  17.278
   21BMANN   H130708   7.510   6.107  17.209
   21BMANN   C530709   7.716   6.168  17.101
   21BMANN   H530710   7.622   6.194  17.048
   21BMANN   O530711   7.699   6.053  17.186
   21BMANN   C230712   7.624   6.196  17.371
   21BMANN   H230713   7.529   6.212  17.429
   21BMANN    N30714   7.734   6.172  17.466
   21BMANN   HN30715   7.810   6.126  17.425
   21BMANN    C30716   7.736   6.212  17.595
   21BMANN    O30717   7.654   6.290  17.641
   21BMANN   CT30718   7.845   6.158  17.685
   21BMANN  HT130719   7.941   6.211  17.665
   21BMANN  HT230720   7.856   6.049  17.672
   21BMANN  HT330721   7.820   6.174  17.792
   21BMANN   C330722   7.647   6.316  17.283
   21BMANN   H330723   7.550   6.332  17.229
   21BMANN   O330724   7.672   6.434  17.358
   21BMANN  HO330725   7.745   6.416  17.418
   21BMANN   C430726   7.757   6.289  17.183
   21BMANN   H430727   7.854   6.270  17.236
   21BMANN   O430728   7.780   6.398  17.095
   21BMANN  HO430729   7.869   6.434  17.112
   21BMANN   C630730   7.809   6.142  16.987
   21BMANN  H6130731   7.810   6.218  16.908
   21BMANN  H6230732   7.900   6.168  17.030
   21BMANN   O630733   7.813   6.009  16.936
   21BMANN  HO630734   7.824   5.950  17.012
   22BGLCN   C130735   7.281   5.940  17.661
   22BGLCN   H130736   7.231   5.841  17.661
   22BGLCN   C530737   7.085   6.039  17.749
   22BGLCN   H530738   7.038   5.937  17.749
   22BGLCN   O530739   7.183   6.042  17.644
   22BGLCN   C230740   7.352   5.962  17.791
   22BGLCN   H230741   7.400   6.064  17.786
   22BGLCN    N30742   7.454   5.861  17.809
   22BGLCN   HN30743   7.431   5.770  17.776
   22BGLCN    C30744   7.570   5.880  17.872
   22BGLCN    O30745   7.604   5.988  17.920
   22BGLCN   CT30746   7.658   5.759  17.877
   22BGLCN  HT130747   7.728   5.768  17.792
   22BGLCN  HT230748   7.597   5.667  17.865
   22BGLCN  HT330749   7.713   5.753  17.973
   22BGLCN   C330750   7.253   5.958  17.905
   22BGLCN   H330751   7.200   5.860  17.902
   22BGLCN   O330752   7.328   5.967  18.027
   22BGLCN   C430753   7.150   6.065  17.883
   22BGLCN   H430754   7.201   6.164  17.877
   22BGLCN   O430755   7.056   6.073  17.989
   22BGLCN  HO430756   7.033   6.165  18.001
   22BGLCN   C630757   6.981   6.140  17.714
   22BGLCN  H6130758   6.918   6.162  17.804
   22BGLCN  H6230759   7.025   6.236  17.680
   22BGLCN   O630760   6.896   6.080  17.617
   22BGLCN  HO630761   6.937   6.072  17.531
   23AGAL    C130762   7.270   5.924  18.147
   23AGAL    H130763   7.197   6.000  18.182
   23AGAL    C530764   7.291   5.688  18.109
   23AGAL    H530765   7.351   5.713  18.018
   23AGAL    O530766   7.202   5.798  18.136
   23AGAL    C230767   7.375   5.914  18.255
   23AGAL    H230768   7.321   5.884  18.347
   23AGAL    O230769   7.439   6.042  18.279
   23AGAL    C330770   7.472   5.800  18.225
   23AGAL    H330771   7.514   5.816  18.123
   23AGAL    O330772   7.582   5.794  18.313
   23AGAL   HO330773   7.556   5.816  18.402
   23AGAL    C430774   7.393   5.670  18.223
   23AGAL    H430775   7.459   5.584  18.199
   23AGAL    O430776   7.328   5.643  18.347
   23AGAL   HO430777   7.250   5.591  18.321
   23AGAL    C630778   7.208   5.567  18.069
   23AGAL   H6130779   7.133   5.599  17.994
   23AGAL   H6230780   7.272   5.491  18.018
   23AGAL    O630781   7.140   5.510  18.181
   23AGAL   HO630782   7.083   5.436  18.154
   24ARHM    C130783   7.375   6.135  18.365
   24ARHM    H130784   7.267   6.107  18.375
   24ARHM    C530785   7.510   6.323  18.301
   24ARHM    H530786   7.563   6.254  18.231
   24ARHM    O530787   7.377   6.271  18.318
   24ARHM    C230788   7.447   6.127  18.497
   24ARHM    H230789   7.452   6.020  18.529
   24ARHM    O230790   7.383   6.207  18.597
   24ARHM    C330791   7.590   6.175  18.480
   24ARHM    H330792   7.637   6.113  18.400
   24ARHM    O330793   7.667   6.157  18.599
   24ARHM   HO330794   7.658   6.235  18.653
   24ARHM    C430795   7.585   6.320  18.433
   24ARHM    H430796   7.528   6.381  18.506
   24ARHM    O430797   7.715   6.377  18.419
   24ARHM   HO430798   7.712   6.472  18.436
   24ARHM    C630799   7.505   6.462  18.233
   24ARHM   H6130800   7.601   6.478  18.179
   24ARHM   H6230801   7.423   6.466  18.160
   24ARHM   H6330802   7.489   6.545  18.305
   25ARHM    C130803   7.266   6.151  18.650
   25ARHM    H130804   7.229   6.071  18.583
   25ARHM    C530805   7.184   6.348  18.756
   25ARHM    H530806   7.274   6.405  18.722
   25ARHM    O530807   7.157   6.244  18.661
   25ARHM    C230808   7.301   6.087  18.782
   25ARHM    H230809   7.394   6.026  18.772
   25ARHM    O230810   7.193   6.005  18.826
   25ARHM    C330811   7.331   6.194  18.880
   25ARHM    H330812   7.417   6.258  18.844
   25ARHM    O330813   7.361   6.134  19.006
   25ARHM    C430814   7.213   6.284  18.891
   25ARHM    H430815   7.121   6.231  18.926
   25ARHM    O430816   7.250   6.376  18.989
   25ARHM   HO430817   7.173   6.407  19.036
   25ARHM    C630818   7.067   6.448  18.758
   25ARHM   H6130819   7.042   6.480  18.654
   25ARHM   H6230820   6.976   6.404  18.803
   25ARHM   H6330821   7.095   6.539  18.815
   26BMANN   C130822   7.189   5.879  18.764
   26BMANN   H130823   7.288   5.851  18.722
   26BMANN   C530824   7.095   5.740  18.595
   26BMANN   H530825   7.196   5.723  18.554
   26BMANN   O530826   7.093   5.869  18.658
   26BMANN   C230827   7.154   5.781  18.871
   26BMANN   H230828   7.234   5.791  18.949
   26BMANN    N30829   7.022   5.810  18.928
   26BMANN   HN30830   6.947   5.820  18.864
   26BMANN    C30831   6.999   5.825  19.059
   26BMANN    O30832   7.089   5.828  19.142
   26BMANN   CT30833   6.853   5.830  19.102
   26BMANN  HT130834   6.791   5.872  19.020
   26BMANN  HT230835   6.837   5.888  19.194
   26BMANN  HT330836   6.823   5.726  19.123
   26BMANN   C330837   7.164   5.643  18.811
   26BMANN   H330838   7.266   5.628  18.769
   26BMANN   O330839   7.147   5.546  18.913
   26BMANN  HO330840   7.229   5.538  18.963
   26BMANN   C430841   7.063   5.631  18.698
   26BMANN   H430842   6.960   5.647  18.735
   26BMANN   O430843   7.067   5.504  18.637
   26BMANN  HO430844   7.021   5.439  18.693
   26BMANN   C630845   6.999   5.747  18.477
   26BMANN  H6130846   7.007   5.847  18.428
   26BMANN  H6230847   7.027   5.671  18.400
   26BMANN   O630848   6.864   5.725  18.517
   26BMANN  HO630849   6.858   5.633  18.543
   27BGLCN   C130850   7.464   6.190  19.083
   27BGLCN   H130851   7.467   6.301  19.079
   27BGLCN   C530852   7.694   6.187  19.128
   27BGLCN   H530853   7.690   6.299  19.130
   27BGLCN   O530854   7.591   6.138  19.043
   27BGLCN   C230855   7.432   6.141  19.223
   27BGLCN   H230856   7.437   6.029  19.220
   27BGLCN    N30857   7.298   6.180  19.266
   27BGLCN   HN30858   7.270   6.273  19.241
   27BGLCN    C30859   7.218   6.092  19.331
   27BGLCN    O30860   7.263   5.992  19.386
   27BGLCN   CT30861   7.071   6.123  19.336
   27BGLCN  HT130862   7.046   6.208  19.271
   27BGLCN  HT230863   7.040   6.144  19.440
   27BGLCN  HT330864   7.015   6.033  19.303
   27BGLCN   C330865   7.536   6.188  19.318
   27BGLCN   H330866   7.539   6.300  19.314
   27BGLCN   O330867   7.492   6.144  19.450
   27BGLCN   C430868   7.669   6.138  19.269
   27BGLCN   H430869   7.673   6.026  19.270
   27BGLCN   O430870   7.771   6.187  19.352
   27BGLCN  HO430871   7.783   6.281  19.345
   27BGLCN   C630872   7.827   6.149  19.067
   27BGLCN  H6130873   7.901   6.205  19.123
   27BGLCN  H6230874   7.852   6.042  19.082
   27BGLCN   O630875   7.839   6.186  18.929
   27BGLCN  HO630876   7.919   6.158  18.886
   28AGAL    C130877   7.551   6.206  19.561
   28AGAL    H130878   7.656   6.170  19.569
   28AGAL    C530879   7.418   6.406  19.550
   28AGAL    H530880   7.352   6.350  19.479
   28AGAL    O530881   7.551   6.349  19.543
   28AGAL    C230882   7.486   6.177  19.698
   28AGAL    H230883   7.551   6.235  19.767
   28AGAL    O230884   7.490   6.041  19.746
   28AGAL    C330885   7.346   6.235  19.705
   28AGAL    H330886   7.286   6.193  19.621
   28AGAL    O330887   7.274   6.203  19.823
   28AGAL   HO330888   7.190   6.160  19.803
   28AGAL    C430889   7.357   6.383  19.686
   28AGAL    H430890   7.254   6.426  19.687
   28AGAL    O430891   7.431   6.447  19.789
   28AGAL   HO430892   7.366   6.494  19.842
   28AGAL    C630893   7.415   6.551  19.502
   28AGAL   H6130894   7.441   6.552  19.394
   28AGAL   H6230895   7.315   6.597  19.512
   28AGAL    O630896   7.506   6.636  19.571
   28AGAL   HO630897   7.593   6.627  19.531
   29ARHM    C130898   7.519   6.040  19.884
   29ARHM    H130899   7.488   6.135  19.932
   29ARHM    C530900   7.708   5.901  19.851
   29ARHM    H530901   7.681   5.898  19.743
   29ARHM    O530902   7.660   6.024  19.906
   29ARHM    C230903   7.445   5.930  19.953
   29ARHM    H230904   7.336   5.942  19.929
   29ARHM    O230905   7.466   5.937  20.096
   29ARHM    C330906   7.491   5.798  19.898
   29ARHM    H330907   7.469   5.794  19.788
   29ARHM    O330908   7.417   5.695  19.963
   29ARHM   HO330909   7.471   5.616  19.959
   29ARHM    C430910   7.641   5.781  19.918
   29ARHM    H430911   7.663   5.781  20.028
   29ARHM    O430912   7.694   5.657  19.866
   29ARHM   HO430913   7.657   5.634  19.781
   29ARHM    C630914   7.860   5.912  19.859
   29ARHM   H6130915   7.889   6.010  19.814
   29ARHM   H6230916   7.896   5.909  19.964
   29ARHM   H6330917   7.908   5.832  19.800
   30ARHM    C130918   7.366   6.001  20.173
   30ARHM    H130919   7.267   5.955  20.152
   30ARHM    C530920   7.481   6.209  20.186
   30ARHM    H530921   7.562   6.160  20.128
   30ARHM    O530922   7.359   6.143  20.152
   30ARHM    C230923   7.399   5.979  20.319
   30ARHM    H230924   7.409   5.870  20.339
   30ARHM    O230925   7.295   6.037  20.397
   30ARHM    C330926   7.528   6.047  20.358
   30ARHM    H330927   7.606   6.008  20.288
   30ARHM    O330928   7.570   6.009  20.491
   30ARHM    C430929   7.515   6.195  20.333
   30ARHM    H430930   7.432   6.239  20.392
   30ARHM    O430931   7.631   6.270  20.366
   30ARHM   HO430932   7.703   6.258  20.303
   30ARHM    C630933   7.474   6.356  20.142
   30ARHM   H6130934   7.573   6.403  20.159
   30ARHM   H6230935   7.453   6.362  20.034
   30ARHM   H6330936   7.397   6.412  20.198
   31BMANN   C130937   7.189   5.952  20.425
   31BMANN   H130938   7.227   5.851  20.452
   31BMANN   C530939   6.978   5.866  20.356
   31BMANN   H530940   7.021   5.768  20.386
   31BMANN   O530941   7.091   5.949  20.321
   31BMANN   C230942   7.127   6.013  20.545
   31BMANN   H230943   7.202   6.010  20.627
   31BMANN    N30944   7.095   6.150  20.522
   31BMANN   HN30945   7.089   6.181  20.426
   31BMANN    C30946   7.086   6.233  20.624
   31BMANN    O30947   7.115   6.210  20.739
   31BMANN   CT30948   7.054   6.363  20.578
   31BMANN  HT130949   6.995   6.366  20.485
   31BMANN  HT230950   7.155   6.378  20.535
   31BMANN  HT330951   7.028   6.441  20.654
   31BMANN   C330952   7.009   5.929  20.587
   31BMANN   H330953   7.045   5.825  20.602
   31BMANN   O330954   6.961   5.967  20.713
   31BMANN  HO330955   7.024   6.031  20.749
   31BMANN   C430956   6.906   5.925  20.477
   31BMANN   H430957   6.870   6.027  20.450
   31BMANN   O430958   6.792   5.847  20.512
   31BMANN  HO430959   6.821   5.767  20.557
   31BMANN   C630960   6.882   5.841  20.241
   31BMANN  H6130961   6.812   5.759  20.268
   31BMANN  H6230962   6.820   5.932  20.224
   31BMANN   O630963   6.948   5.809  20.119
   31BMANN  HO630964   6.990   5.722  20.122
   32BGLCN   C130965   7.512   6.078  20.599
   32BGLCN   H130966   7.405   6.098  20.578
   32BGLCN   C530967   7.507   6.277  20.729
   32BGLCN   H530968   7.401   6.290  20.695
   32BGLCN   O530969   7.574   6.203  20.627
   32BGLCN   C230970   7.518   5.991  20.722
   32BGLCN   H230971   7.627   5.986  20.751
   32BGLCN    N30972   7.470   5.858  20.695
   32BGLCN   HN30973   7.400   5.858  20.626
   32BGLCN    C30974   7.515   5.743  20.746
   32BGLCN    O30975   7.602   5.733  20.831
   32BGLCN   CT30976   7.448   5.620  20.690
   32BGLCN  HT130977   7.397   5.649  20.597
   32BGLCN  HT230978   7.373   5.577  20.761
   32BGLCN  HT330979   7.523   5.540  20.669
   32BGLCN   C330980   7.439   6.062  20.829
   32BGLCN   H330981   7.340   6.085  20.784
   32BGLCN   O330982   7.416   5.982  20.947
   32BGLCN   C430983   7.508   6.194  20.856
   32BGLCN   H430984   7.613   6.173  20.887
   32BGLCN   O430985   7.445   6.268  20.959
   32BGLCN  HO430986   7.483   6.241  21.043
   32BGLCN   C630987   7.566   6.417  20.740
   32BGLCN  H6130988   7.505   6.481  20.808
   32BGLCN  H6230989   7.667   6.410  20.786
   32BGLCN   O630990   7.573   6.481  20.612
   32BGLCN  HO630991   7.494   6.457  20.563
   33AGAL    C130992   7.288   6.002  21.005
   33AGAL    H130993   7.259   6.109  20.997
   33AGAL    C530994   7.208   5.781  20.957
   33AGAL    H530995   7.312   5.766  20.920
   33AGAL    O530996   7.184   5.923  20.943
   33AGAL    C230997   7.293   5.962  21.151
   33AGAL    H230998   7.189   5.972  21.189
   33AGAL    O230999   7.371   6.059  21.223
   33AGAL    C331000   7.327   5.813  21.166
   33AGAL    H331001   7.420   5.790  21.108
   33AGAL    O331002   7.361   5.771  21.298
   33AGAL   HO331003   7.293   5.798  21.360
   33AGAL    C431004   7.213   5.732  21.101
   33AGAL    H431005   7.240   5.624  21.102
   33AGAL    O431006   7.085   5.740  21.163
   33AGAL   HO431007   7.075   5.812  21.226
   33AGAL    C631008   7.121   5.698  20.862
   33AGAL   H6131009   7.151   5.728  20.760
   33AGAL   H6231010   7.144   5.590  20.875
   33AGAL    O631011   6.979   5.712  20.872
   33AGAL   HO631012   6.948   5.789  20.822
   34ARHM    C131013   7.310   6.107  21.342
   34ARHM    H131014   7.275   6.020  21.402
   34ARHM    C531015   7.222   6.311  21.244
   34ARHM    H531016   7.257   6.281  21.143
   34ARHM    O531017   7.194   6.192  21.319
   34ARHM    C231018   7.417   6.183  21.417
   34ARHM    H231019   7.510   6.120  21.423
   34ARHM    O231020   7.379   6.218  21.553
   34ARHM    C331021   7.452   6.308  21.337
   34ARHM    H331022   7.487   6.278  21.235
   34ARHM    O331023   7.559   6.382  21.396
   34ARHM   HO331024   7.613   6.428  21.331
   34ARHM    C431025   7.329   6.392  21.317
   34ARHM    H431026   7.285   6.420  21.415
   34ARHM    O431027   7.359   6.512  21.246
   34ARHM   HO431028   7.404   6.575  21.304
   34ARHM    C631029   7.094   6.396  21.222
   34ARHM   H6131030   7.046   6.431  21.316
   34ARHM   H6231031   7.126   6.490  21.172
   34ARHM   H6331032   7.020   6.347  21.156
   35ARHM    C131033   7.343   6.114  21.643
   35ARHM    H131034   7.407   6.024  21.624
   35ARHM    C531035   7.116   6.194  21.657
   35ARHM    H531036   7.139   6.277  21.587
   35ARHM    O531037   7.203   6.082  21.632
   35ARHM    C231038   7.367   6.159  21.787
   35ARHM    H231039   7.475   6.185  21.801
   35ARHM    O231040   7.334   6.055  21.881
   35ARHM    C331041   7.283   6.280  21.819
   35ARHM    H331042   7.309   6.362  21.748
   35ARHM    O331043   7.311   6.332  21.949
   35ARHM   HO331044   7.327   6.258  22.009
   35ARHM    C431045   7.136   6.244  21.801
   35ARHM    H431046   7.107   6.161  21.870
   35ARHM    O431047   7.051   6.356  21.829
   35ARHM   HO431048   7.094   6.436  21.795
   35ARHM    C631049   6.971   6.152  21.623
   35ARHM   H6131050   6.959   6.132  21.514
   35ARHM   H6231051   6.943   6.060  21.679
   35ARHM   H6331052   6.901   6.235  21.648
   36BMANN   C131053   7.422   5.946  21.884
   36BMANN   H131054   7.522   5.978  21.850
   36BMANN   C531055   7.481   5.731  21.809
   36BMANN   H531056   7.581   5.774  21.780
   36BMANN   O531057   7.382   5.835  21.803
   36BMANN   C231058   7.429   5.900  22.028
   36BMANN   H231059   7.466   5.989  22.085
   36BMANN    N31060   7.299   5.860  22.085
   36BMANN   HN31061   7.236   5.814  22.022
   36BMANN    C31062   7.273   5.872  22.217
   36BMANN    O31063   7.349   5.929  22.295
   36BMANN   CT31064   7.147   5.808  22.270
   36BMANN  HT131065   7.133   5.709  22.224
   36BMANN  HT231066   7.059   5.872  22.250
   36BMANN  HT331067   7.156   5.797  22.381
   36BMANN   C331068   7.534   5.792  22.039
   36BMANN   H331069   7.631   5.833  22.001
   36BMANN   O331070   7.554   5.747  22.173
   36BMANN  HO331071   7.641   5.767  22.209
   36BMANN   C431072   7.495   5.677  21.950
   36BMANN   H431073   7.399   5.632  21.982
   36BMANN   O431074   7.591   5.574  21.959
   36BMANN  HO431075   7.593   5.552  22.053
   36BMANN   C631076   7.453   5.622  21.710
   36BMANN  H6131077   7.448   5.663  21.606
   36BMANN  H6231078   7.541   5.556  21.717
   36BMANN   O631079   7.339   5.544  21.741
   36BMANN  HO631080   7.362   5.473  21.802
    1ECLIP HB6S31081   6.742   1.026  11.779
    1ECLIP  OB631082   6.609   1.118  11.908
    1ECLIP  CB631083   6.634   1.019  11.806
    1ECLIP HB6R31084   6.617   0.916  11.846
    1ECLIP  CB531085   6.550   1.033  11.680
    1ECLIP  OB531086   6.571   1.168  11.633
    1ECLIP  HB531087   6.444   1.019  11.710
    1ECLIP  CB131088   6.496   1.196  11.514
    1ECLIP  HB131089   6.387   1.181  11.532
    1ECLIP  OA631090   6.513   1.328  11.470
    1ECLIP  CA631091   6.643   1.385  11.490
    1ECLIP HA6R31092   6.722   1.308  11.511
    1ECLIP HA6S31093   6.637   1.453  11.576
    1ECLIP  CB431094   6.586   0.931  11.569
    1ECLIP  HB431095   6.694   0.937  11.542
    1ECLIP  OB431096   6.549   0.801  11.620
    1ECLIP   PB31097   6.664   0.688  11.667
    1ECLIP OPB431098   6.612   0.613  11.790
    1ECLIP OPB331099   6.787   0.772  11.701
    1ECLIP OPB231100   6.694   0.595  11.548
    1ECLIP  CB331101   6.505   0.963  11.445
    1ECLIP  OB331102   6.537   0.883  11.330
    1ECLIP  HB331103   6.396   0.960  11.470
    1ECLIP  C7131104   6.473   0.768  11.312
    1ECLIP  O7131105   6.361   0.747  11.358
    1ECLIP  C7231106   6.514   0.712  11.174
    1ECLIP H72R31107   6.497   0.789  11.096
    1ECLIP H72S31108   6.452   0.622  11.153
    1ECLIP  CB231109   6.535   1.104  11.402
    1ECLIP  HB231110   6.647   1.113  11.387
    1ECLIP  NB231111   6.462   1.139  11.281
    1ECLIP HNB231112   6.372   1.179  11.293
    1ECLIP  CA431113   6.570   1.549  11.315
    1ECLIP  HA431114   6.488   1.479  11.288
    1ECLIP  OA431115   6.525   1.637  11.417
    1ECLIP HOA431116   6.513   1.589  11.500
    1ECLIP  CA531117   6.684   1.466  11.369
    1ECLIP  HA531118   6.775   1.526  11.393
    1ECLIP  OA531119   6.716   1.371  11.269
    1ECLIP  CA131120   6.761   1.430  11.146
    1ECLIP  HA131121   6.763   1.342  11.078
    1ECLIP  OA131122   6.891   1.488  11.151
    1ECLIP OPA231123   7.058   1.466  11.337
    1ECLIP OPA331124   6.973   1.255  11.223
    1ECLIP OPA431125   7.131   1.414  11.102
    1ECLIP   PA31126   7.020   1.399  11.205
    1ECLIP  CA331127   6.609   1.623  11.189
    1ECLIP  HA331128   6.693   1.694  11.210
    1ECLIP  OA331129   6.492   1.700  11.155
    1ECLIP  C3131130   6.392   1.642  11.087
    1ECLIP  O3131131   6.394   1.628  10.966
    1ECLIP  C3231132   6.260   1.650  11.165
    1ECLIP H32R31133   6.196   1.720  11.108
    1ECLIP H32S31134   6.281   1.695  11.264
    1ECLIP  CA231135   6.651   1.517  11.087
    1ECLIP  HA231136   6.565   1.449  11.070
    1ECLIP  NA231137   6.692   1.576  10.958
    1ECLIP HNA231138   6.671   1.672  10.948
    1ECLIP  C7331139   6.663   0.674  11.172
    1ECLIP H73R31140   6.685   0.616  11.265
    1ECLIP  O7331141   6.738   0.796  11.164
    1ECLIP  C8131142   6.849   0.811  11.234
    1ECLIP  O8131143   6.913   0.717  11.285
    1ECLIP  C8231144   6.926   0.930  11.171
    1ECLIP H82R31145   7.021   0.944  11.224
    1ECLIP H82S31146   6.868   1.023  11.191
    1ECLIP  C8331147   6.949   0.920  11.018
    1ECLIP H83R31148   6.856   0.953  10.966
    1ECLIP H83S31149   6.967   0.814  10.990
    1ECLIP  C8431150   7.061   1.012  10.966
    1ECLIP H84R31151   7.161   0.978  10.996
    1ECLIP H84S31152   7.042   1.113  11.012
    1ECLIP  C8531153   7.054   1.033  10.814
    1ECLIP H85R31154   6.946   1.048  10.791
    1ECLIP H85S31155   7.086   0.942  10.759
    1ECLIP  C8631156   7.125   1.162  10.765
    1ECLIP H86R31157   7.230   1.142  10.735
    1ECLIP H86S31158   7.129   1.235  10.849
    1ECLIP  C8731159   7.048   1.234  10.652
    1ECLIP H87R31160   7.107   1.321  10.616
    1ECLIP H87S31161   6.953   1.276  10.694
    1ECLIP  C8831162   7.009   1.140  10.538
    1ECLIP H88R31163   6.923   1.077  10.571
    1ECLIP H88S31164   7.092   1.067  10.524
    1ECLIP  C8931165   6.971   1.213  10.408
    1ECLIP H89R31166   6.943   1.319  10.426
    1ECLIP H89S31167   6.882   1.165  10.362
    1ECLIP C81031168   7.085   1.202  10.306
    1ECLIPH810R31169   7.139   1.107  10.330
    1ECLIPH810S31170   7.155   1.287  10.323
    1ECLIP C81131171   7.038   1.199  10.161
    1ECLIPH811R31172   7.120   1.227  10.090
    1ECLIPH811S31173   6.956   1.274  10.153
    1ECLIP C81231174   6.978   1.065  10.116
    1ECLIPH812R31175   6.927   1.083  10.020
    1ECLIPH812S31176   6.897   1.034  10.184
    1ECLIP C81331177   7.077   0.948  10.101
    1ECLIPH813R31178   7.158   0.977  10.031
    1ECLIPH813S31179   7.125   0.926  10.199
    1ECLIP C81431180   7.009   0.821  10.050
    1ECLIPH814R31181   6.948   0.840   9.958
    1ECLIPH814S31182   6.943   0.780  10.128
    1ECLIPH814T31183   7.086   0.745  10.025
    1ECLIP  C7431184   6.707   0.590  11.049
    1ECLIP H74R31185   6.657   0.491  11.040
    1ECLIP H74S31186   6.815   0.568  11.068
    1ECLIP  C7531187   6.701   0.666  10.914
    1ECLIP H75R31188   6.790   0.634  10.855
    1ECLIP H75S31189   6.713   0.775  10.934
    1ECLIP  C7631190   6.575   0.645  10.831
    1ECLIP H76R31191   6.492   0.705  10.874
    1ECLIP H76S31192   6.542   0.538  10.834
    1ECLIP  C7731193   6.593   0.685  10.682
    1ECLIP H77R31194   6.663   0.613  10.635
    1ECLIP H77S31195   6.634   0.785  10.668
    1ECLIP  C7831196   6.456   0.686  10.616
    1ECLIP H78R31197   6.432   0.584  10.645
    1ECLIP H78S31198   6.389   0.758  10.670
    1ECLIP  C7931199   6.441   0.713  10.465
    1ECLIP H79R31200   6.417   0.821  10.452
    1ECLIP H79S31201   6.354   0.660  10.420
    1ECLIP C71031202   6.560   0.673  10.381
    1ECLIPH710R31203   6.652   0.719  10.422
    1ECLIPH710S31204   6.571   0.562  10.385
    1ECLIP C71131205   6.549   0.715  10.235
    1ECLIPH711R31206   6.458   0.668  10.190
    1ECLIPH711S31207   6.538   0.826  10.228
    1ECLIP C71231208   6.676   0.674  10.162
    1ECLIPH712R31209   6.682   0.563  10.163
    1ECLIPH712S31210   6.762   0.714  10.220
    1ECLIP C71331211   6.680   0.725  10.019
    1ECLIPH713R31212   6.679   0.837  10.020
    1ECLIPH713S31213   6.775   0.694   9.968
    1ECLIP C71431214   6.562   0.668   9.943
    1ECLIPH714R31215   6.571   0.559   9.923
    1ECLIPH714S31216   6.463   0.704   9.974
    1ECLIPH714T31217   6.554   0.708   9.846
    1ECLIP  C5131218   6.512   1.114  11.159
    1ECLIP  O5131219   6.629   1.087  11.143
    1ECLIP  C5231220   6.416   1.115  11.042
    1ECLIP H52R31221   6.370   1.015  11.029
    1ECLIP H52S31222   6.336   1.188  11.061
    1ECLIP  C5331223   6.491   1.154  10.912
    1ECLIP H53R31224   6.572   1.228  10.935
    1ECLIP  O5331225   6.391   1.204  10.822
    1ECLIP  C6131226   6.395   1.333  10.789
    1ECLIP  O6131227   6.480   1.412  10.822
    1ECLIP  C6231228   6.278   1.366  10.696
    1ECLIP H62R31229   6.188   1.383  10.758
    1ECLIP H62S31230   6.259   1.274  10.637
    1ECLIP  C6331231   6.308   1.491  10.607
    1ECLIP H63R31232   6.410   1.479  10.564
    1ECLIP H63S31233   6.307   1.583  10.669
    1ECLIP  C6431234   6.213   1.512  10.487
    1ECLIP H64R31235   6.239   1.608  10.435
    1ECLIP H64S31236   6.110   1.521  10.528
    1ECLIP  C6531237   6.222   1.395  10.389
    1ECLIP H65R31238   6.189   1.307  10.450
    1ECLIP H65S31239   6.327   1.378  10.358
    1ECLIP  C6631240   6.134   1.398  10.262
    1ECLIP H66R31241   6.028   1.408  10.291
    1ECLIP H66S31242   6.148   1.297  10.216
    1ECLIP  C6731243   6.167   1.501  10.153
    1ECLIP H67R31244   6.170   1.605  10.194
    1ECLIP H67S31245   6.088   1.499  10.073
    1ECLIP  C6831246   6.302   1.482  10.086
    1ECLIP H68R31247   6.319   1.379  10.046
    1ECLIP H68S31248   6.378   1.503  10.164
    1ECLIP  C6931249   6.312   1.574   9.965
    1ECLIP H69R31250   6.255   1.668   9.975
    1ECLIP H69S31251   6.264   1.518   9.881
    1ECLIP C61031252   6.457   1.608   9.932
    1ECLIPH610R31253   6.520   1.516   9.938
    1ECLIPH610S31254   6.496   1.680  10.006
    1ECLIP C61131255   6.464   1.671   9.794
    1ECLIPH611R31256   6.401   1.762   9.790
    1ECLIPH611S31257   6.568   1.702   9.785
    1ECLIP C61231258   6.436   1.574   9.679
    1ECLIPH612R31259   6.517   1.498   9.674
    1ECLIPH612S31260   6.341   1.520   9.698
    1ECLIPH612T31261   6.430   1.625   9.581
    1ECLIP  C5431262   6.554   1.025  10.853
    1ECLIP H54R31263   6.470   0.958  10.824
    1ECLIP H54S31264   6.611   0.974  10.934
    1ECLIP  C5531265   6.649   1.043  10.733
    1ECLIP H55R31266   6.710   0.951  10.719
    1ECLIP H55S31267   6.721   1.123  10.756
    1ECLIP  C5631268   6.567   1.067  10.605
    1ECLIP H56R31269   6.501   1.154  10.622
    1ECLIP H56S31270   6.500   0.979  10.587
    1ECLIP  C5731271   6.642   1.099  10.477
    1ECLIP H57R31272   6.719   1.022  10.454
    1ECLIP H57S31273   6.696   1.196  10.491
    1ECLIP  C5831274   6.542   1.114  10.360
    1ECLIP H58R31275   6.469   1.030  10.358
    1ECLIP H58S31276   6.481   1.205  10.382
    1ECLIP  C5931277   6.611   1.123  10.223
    1ECLIP H59R31278   6.676   1.033  10.208
    1ECLIP H59S31279   6.679   1.211  10.232
    1ECLIP C51031280   6.516   1.127  10.100
    1ECLIPH510R31281   6.433   1.199  10.119
    1ECLIPH510S31282   6.471   1.026  10.088
    1ECLIP C51131283   6.581   1.165   9.965
    1ECLIPH511R31284   6.596   1.274   9.963
    1ECLIPH511S31285   6.682   1.117   9.957
    1ECLIP C51231286   6.499   1.127   9.839
    1ECLIPH512R31287   6.566   1.130   9.750
    1ECLIPH512S31288   6.460   1.023   9.849
    1ECLIP C51331289   6.386   1.224   9.802
    1ECLIPH513R31290   6.425   1.327   9.790
    1ECLIPH513S31291   6.310   1.228   9.883
    1ECLIP C51431292   6.316   1.186   9.672
    1ECLIPH514R31293   6.283   1.080   9.673
    1ECLIPH514S31294   6.226   1.250   9.661
    1ECLIPH514T31295   6.384   1.201   9.584
    1ECLIP  C3331296   6.180   1.517  11.182
    1ECLIP H33R31297   6.080   1.544  11.223
    1ECLIP  O3331298   6.239   1.435  11.281
    1ECLIP HO3331299   6.240   1.474  11.370
    1ECLIP  C3431300   6.159   1.430  11.056
    1ECLIP H34R31301   6.259   1.400  11.018
    1ECLIP H34S31302   6.112   1.491  10.976
    1ECLIP  C3531303   6.073   1.302  11.080
    1ECLIP H35R31304   5.971   1.329  11.111
    1ECLIP H35S31305   6.120   1.243  11.162
    1ECLIP  C3631306   6.064   1.210  10.956
    1ECLIP H36R31307   6.159   1.229  10.903
    1ECLIP H36S31308   5.980   1.240  10.889
    1ECLIP  C3731309   6.064   1.058  10.987
    1ECLIP H37R31310   5.965   1.012  10.996
    1ECLIP H37S31311   6.110   1.041  11.087
    1ECLIP  C3831312   6.118   0.967  10.877
    1ECLIP H38R31313   6.229   0.966  10.877
    1ECLIP H38S31314   6.084   0.863  10.903
    1ECLIP  C3931315   6.070   1.007  10.737
    1ECLIP H39R31316   6.093   1.114  10.718
    1ECLIP H39S31317   5.962   0.993  10.726
    1ECLIP C31031318   6.126   0.924  10.622
    1ECLIPH310R31319   6.080   0.823  10.633
    1ECLIPH310S31320   6.236   0.915  10.631
    1ECLIP C31131321   6.100   0.993  10.487
    1ECLIPH311R31322   6.002   1.046  10.489
    1ECLIPH311S31323   6.178   1.072  10.473
    1ECLIP C31231324   6.110   0.900  10.366
    1ECLIPH312R31325   6.187   0.822  10.385
    1ECLIPH312S31326   6.011   0.850  10.354
    1ECLIP C31331327   6.143   0.976  10.237
    1ECLIPH313R31328   6.052   1.034  10.211
    1ECLIPH313S31329   6.226   1.049  10.254
    1ECLIP C31431330   6.180   0.887  10.118
    1ECLIPH314R31331   6.096   0.818  10.096
    1ECLIPH314S31332   6.201   0.947  10.027
    1ECLIPH314T31333   6.271   0.826  10.141
    1ECLIP  C1131334   6.767   1.518  10.862
    1ECLIP  O1131335   6.782   1.398  10.846
    1ECLIP  C1231336   6.834   1.616  10.769
    1ECLIP H12R31337   6.943   1.619  10.791
    1ECLIP H12S31338   6.790   1.716  10.787
    1ECLIP  C1331339   6.813   1.582  10.622
    1ECLIP H13R31340   6.825   1.473  10.601
    1ECLIP  O1331341   6.913   1.652  10.549
    1ECLIP HO1331342   6.938   1.611  10.465
    1ECLIP  C1431343   6.671   1.626  10.580
    1ECLIP H14R31344   6.644   1.721  10.632
    1ECLIP H14S31345   6.603   1.546  10.614
    1ECLIP  C1531346   6.648   1.646  10.431
    1ECLIP H15R31347   6.722   1.719  10.394
    1ECLIP H15S31348   6.547   1.692  10.419
    1ECLIP  C1631349   6.655   1.513  10.356
    1ECLIP H16R31350   6.561   1.457  10.364
    1ECLIP H16S31351   6.734   1.449  10.401
    1ECLIP  C1731352   6.686   1.538  10.210
    1ECLIP H17R31353   6.621   1.622  10.175
    1ECLIP H17S31354   6.659   1.450  10.148
    1ECLIP  C1831355   6.832   1.578  10.197
    1ECLIP H18R31356   6.855   1.669  10.255
    1ECLIP H18S31357   6.900   1.493  10.221
    1ECLIP  C1931358   6.861   1.610  10.059
    1ECLIP H19R31359   6.963   1.653  10.041
    1ECLIP H19S31360   6.789   1.687  10.016
    1ECLIP C11031361   6.839   1.470   9.994
    1ECLIPH110R31362   6.916   1.390  10.005
    1ECLIPH110S31363   6.734   1.445   9.969
    1ECLIP C11131364   6.870   1.497   9.861
    1ECLIPH111R31365   6.823   1.589   9.867
    1ECLIPH111S31366   6.977   1.538   9.879
    1ECLIP C11231367   6.783   1.444   9.725
    1ECLIPH112R31368   6.873   1.372   9.747
    1ECLIPH112S31369   6.726   1.357   9.738
    1ECLIP C11331370   6.751   1.497   9.538
    1ECLIPH113R31371   6.678   1.570   9.528
    1ECLIPH113S31372   6.828   1.580   9.513
    1ECLIP C11431373   6.781   1.392   9.382
    1ECLIPH114R31374   6.867   1.318   9.355
    1ECLIPH114S31375   6.747   1.293   9.411
    1ECLIPH114T31376   6.881   1.396   9.328
    2AKDO    C131377   6.402   1.025  11.980
    2AKDO   O1131378   6.377   0.902  11.980
    2AKDO   O1231379   6.325   1.119  11.943
    2AKDO    C231380   6.545   1.066  12.024
    2AKDO    C631381   6.749   0.983  12.122
    2AKDO    H631382   6.799   1.024  12.031
    2AKDO    O631383   6.615   0.954  12.082
    2AKDO    C331384   6.545   1.177  12.129
    2AKDO   H3131385   6.480   1.148  12.215
    2AKDO   H3231386   6.501   1.268  12.082
    2AKDO    C431387   6.683   1.211  12.173
    2AKDO    H431388   6.744   1.239  12.085
    2AKDO    O431389   6.683   1.314  12.273
    2AKDO    C531390   6.752   1.091  12.232
    2AKDO    H531391   6.860   1.118  12.245
    2AKDO    O531392   6.690   1.062  12.361
    2AKDO    C731393   6.824   0.856  12.153
    2AKDO    H731394   6.781   0.810  12.244
    2AKDO    O731395   6.963   0.885  12.175
    2AKDO   HO731396   7.004   0.885  12.088
    2AKDO    C831397   6.812   0.756  12.040
    2AKDO   H8131398   6.703   0.738  12.022
    2AKDO   H8231399   6.854   0.801  11.946
    2AKDO    O831400   6.875   0.631  12.074
    2AKDO   HO831401   6.823   0.568  12.021
    3AKDO    C131402   6.764   1.480  12.116
    3AKDO   O1131403   6.711   1.495  12.004
    3AKDO   O1231404   6.886   1.497  12.146
    3AKDO    C231405   6.670   1.449  12.237
    3AKDO    C631406   6.442   1.456  12.314
    3AKDO    H631407   6.444   1.345  12.334
    3AKDO    O631408   6.535   1.488  12.207
    3AKDO    C331409   6.709   1.521  12.368
    3AKDO   H3131410   6.709   1.630  12.354
    3AKDO   H3231411   6.812   1.492  12.394
    3AKDO    C431412   6.615   1.482  12.479
    3AKDO    H431413   6.613   1.371  12.484
    3AKDO    O431414   6.650   1.529  12.609
    3AKDO   HO431415   6.664   1.456  12.671
    3AKDO    C531416   6.479   1.529  12.441
    3AKDO    H531417   6.410   1.501  12.524
    3AKDO    O531418   6.469   1.670  12.424
    3AKDO   HO531419   6.536   1.695  12.360
    3AKDO    C731420   6.302   1.490  12.272
    3AKDO    H731421   6.296   1.599  12.250
    3AKDO    O731422   6.211   1.458  12.378
    3AKDO   HO731423   6.125   1.495  12.352
    3AKDO    C831424   6.268   1.410  12.148
    3AKDO   H8131425   6.345   1.428  12.069
    3AKDO   H8231426   6.266   1.301  12.169
    3AKDO    O831427   6.143   1.453  12.096
    3AKDO   HO831428   6.168   1.536  12.058
    4AHEP    C131429   6.772   1.005  12.461
    4AHEP    H131430   6.785   0.900  12.427
    4AHEP    C531431   6.913   1.186  12.536
    4AHEP    H531432   6.839   1.254  12.488
    4AHEP    O531433   6.905   1.059  12.467
    4AHEP    C231434   6.722   0.990  12.607
    4AHEP    H231435   6.617   0.955  12.604
    4AHEP    O231436   6.794   0.884  12.671
    4AHEP   HO231437   6.736   0.835  12.729
    4AHEP    C331438   6.725   1.120  12.686
    4AHEP    H331439   6.654   1.196  12.646
    4AHEP    O331440   6.693   1.094  12.824
    4AHEP    C431441   6.868   1.171  12.681
    4AHEP    H431442   6.939   1.102  12.733
    4AHEP    O431443   6.865   1.301  12.740
    4AHEP    P431444   6.942   1.330  12.883
    4AHEP  OP4231445   6.853   1.437  12.945
    4AHEP  OP4331446   7.083   1.376  12.845
    4AHEP  OP4431447   6.946   1.199  12.962
    4AHEP    C631448   7.056   1.244  12.516
    4AHEP    H631449   7.049   1.352  12.546
    4AHEP    O631450   7.157   1.184  12.600
    4AHEP   HO631451   7.190   1.248  12.665
    4AHEP    C731452   7.107   1.239  12.370
    4AHEP   H7131453   7.195   1.305  12.358
    4AHEP   H7231454   7.025   1.273  12.303
    4AHEP    O731455   7.150   1.112  12.319
    4AHEP   HO731456   7.222   1.088  12.380
    5AHEP    C131457   6.583   1.160  12.882
    5AHEP    H131458   6.568   1.260  12.835
    5AHEP    C531459   6.476   0.953  12.932
    5AHEP    H531460   6.569   0.904  12.897
    5AHEP    O531461   6.465   1.080  12.864
    5AHEP    C231462   6.604   1.184  13.033
    5AHEP    H231463   6.701   1.238  13.045
    5AHEP    O231464   6.501   1.268  13.086
    5AHEP   HO231465   6.535   1.357  13.096
    5AHEP    C331466   6.616   1.053  13.110
    5AHEP    H331467   6.704   1.003  13.067
    5AHEP    O331468   6.634   1.065  13.253
    5AHEP    C431469   6.491   0.972  13.083
    5AHEP    H431470   6.401   1.027  13.120
    5AHEP    O431471   6.509   0.843  13.143
    5AHEP    P431472   6.408   0.801  13.270
    5AHEP  OP4231473   6.473   0.676  13.324
    5AHEP  OP4331474   6.273   0.782  13.204
    5AHEP  OP4431475   6.412   0.918  13.370
    5AHEP    C631476   6.359   0.861  12.892
    5AHEP    H631477   6.374   0.763  12.942
    5AHEP    O631478   6.231   0.908  12.933
    5AHEP   HO631479   6.207   0.991  12.894
    5AHEP    C731480   6.357   0.836  12.743
    5AHEP   H7131481   6.325   0.730  12.728
    5AHEP   H7231482   6.458   0.842  12.698
    5AHEP    O731483   6.259   0.918  12.677
    6AHEP    C131484   6.315   1.029  12.615
    6AHEP    H131485   6.423   1.042  12.639
    6AHEP    C531486   6.168   0.997  12.432
    6AHEP    H531487   6.124   0.911  12.488
    6AHEP    O531488   6.305   1.013  12.474
    6AHEP    C231489   6.242   1.155  12.659
    6AHEP    H231490   6.252   1.161  12.770
    6AHEP    O231491   6.309   1.270  12.610
    6AHEP   HO231492   6.352   1.312  12.684
    6AHEP    C331493   6.094   1.146  12.621
    6AHEP    H331494   6.051   1.058  12.675
    6AHEP    O331495   6.022   1.265  12.660
    6AHEP   HO331496   5.962   1.248  12.733
    6AHEP    C431497   6.087   1.122  12.469
    6AHEP    H431498   6.127   1.211  12.415
    6AHEP    O431499   5.953   1.102  12.426
    6AHEP   HO431500   5.926   1.014  12.451
    6AHEP    C631501   6.156   0.956  12.286
    6AHEP    H631502   6.048   0.932  12.268
    6AHEP    O631503   6.184   1.063  12.195
    6AHEP   HO631504   6.258   1.037  12.137
    6AHEP    C731505   6.229   0.828  12.254
    6AHEP   H7131506   6.202   0.795  12.151
    6AHEP   H7231507   6.195   0.748  12.325
    6AHEP    O731508   6.371   0.839  12.265
    6AHEP   HO731509   6.394   0.829  12.357
    7AGLC    C131510   6.766   1.068  13.302
    7AGLC    H131511   6.828   0.989  13.253
    7AGLC    C531512   6.753   1.302  13.345
    7AGLC    H531513   6.646   1.299  13.318
    7AGLC    O531514   6.823   1.196  13.279
    7AGLC    C231515   6.775   1.045  13.454
    7AGLC    H231516   6.881   1.065  13.482
    7AGLC    O231517   6.748   0.912  13.495
    7AGLC   HO231518   6.651   0.897  13.493
    7AGLC    C331519   6.699   1.147  13.533
    7AGLC    H331520   6.594   1.144  13.497
    7AGLC    O331521   6.700   1.120  13.676
    7AGLC    C431522   6.761   1.282  13.496
    7AGLC    H431523   6.869   1.282  13.529
    7AGLC    O431524   6.692   1.390  13.559
    7AGLC   HO431525   6.753   1.444  13.608
    7AGLC    C631526   6.807   1.432  13.287
    7AGLC   H6131527   6.790   1.429  13.176
    7AGLC   H6231528   6.753   1.521  13.324
    7AGLC    O631529   6.946   1.449  13.308
    7AGLC   HO631530   6.967   1.496  13.388
    8AGLC    C131531   6.571   1.095  13.729
    8AGLC    H131532   6.500   1.170  13.687
    8AGLC    C531533   6.587   0.853  13.757
    8AGLC    H531534   6.693   0.857  13.725
    8AGLC    O531535   6.519   0.965  13.695
    8AGLC    C231536   6.562   1.111  13.880
    8AGLC    H231537   6.455   1.101  13.906
    8AGLC    O231538   6.606   1.237  13.932
    8AGLC    C331539   6.638   1.003  13.949
    8AGLC    H331540   6.742   1.009  13.908
    8AGLC    O331541   6.641   1.033  14.091
    8AGLC    C431542   6.578   0.871  13.909
    8AGLC    H431543   6.470   0.872  13.939
    8AGLC    O431544   6.641   0.764  13.977
    8AGLC   HO431545   6.736   0.775  13.969
    8AGLC    C631546   6.537   0.717  13.710
    8AGLC   H6131547   6.523   0.709  13.599
    8AGLC   H6231548   6.607   0.635  13.738
    8AGLC    O631549   6.416   0.690  13.778
    8AGLC   HO631550   6.435   0.634  13.853
    9AGAL    C131551   6.545   1.352  13.881
    9AGAL    H131552   6.543   1.350  13.770
    9AGAL    C531553   6.400   1.391  14.064
    9AGAL    H531554   6.458   1.308  14.111
    9AGAL    O531555   6.408   1.369  13.922
    9AGAL    C231556   6.631   1.472  13.921
    9AGAL    H231557   6.582   1.560  13.874
    9AGAL    O231558   6.759   1.459  13.855
    9AGAL    C331559   6.625   1.497  14.071
    9AGAL    H331560   6.664   1.408  14.126
    9AGAL    O331561   6.707   1.606  14.111
    9AGAL   HO331562   6.784   1.595  14.055
    9AGAL    C431563   6.477   1.518  14.105
    9AGAL    H431564   6.466   1.531  14.215
    9AGAL    O431565   6.426   1.634  14.040
    9AGAL   HO431566   6.354   1.665  14.096
    9AGAL    C631567   6.259   1.377  14.121
    9AGAL   H6131568   6.220   1.275  14.098
    9AGAL   H6231569   6.261   1.385  14.232
    9AGAL    O631570   6.165   1.472  14.070
    9AGAL   HO631571   6.112   1.428  14.004
   10AGAL    C131572   6.887   1.487  13.912
   10AGAL    H131573   6.892   1.595  13.926
   10AGAL    C531574   6.923   1.288  14.041
   10AGAL    H531575   6.824   1.256  14.001
   10AGAL    O531576   6.916   1.431  14.043
   10AGAL    C231577   6.992   1.443  13.811
   10AGAL    H231578   7.091   1.478  13.849
   10AGAL    O231579   6.980   1.510  13.685
   10AGAL   HO231580   7.073   1.529  13.663
   10AGAL    C331581   6.994   1.290  13.806
   10AGAL    H331582   6.891   1.257  13.780
   10AGAL    O331583   7.082   1.235  13.708
   10AGAL   HO331584   7.028   1.200  13.636
   10AGAL    C431585   7.028   1.238  13.944
   10AGAL    H431586   7.022   1.126  13.944
   10AGAL    O431587   7.160   1.276  13.982
   10AGAL   HO431588   7.158   1.371  13.999
   10AGAL    C631589   6.928   1.220  14.179
   10AGAL   H6131590   6.853   1.266  14.246
   10AGAL   H6231591   6.899   1.114  14.163
   10AGAL    O631592   7.052   1.215  14.248
   10AGAL   HO631593   7.052   1.278  14.321
   11BGLC    C131594   6.551   0.975  14.185
   11BGLC    H131595   6.576   0.867  14.198
   11BGLC    C531596   6.316   0.951  14.249
   11BGLC    H531597   6.329   0.842  14.273
   11BGLC    O531598   6.413   0.998  14.150
   11BGLC    C231599   6.579   1.049  14.316
   11BGLC    H231600   6.563   1.159  14.300
   11BGLC    O231601   6.715   1.032  14.357
   11BGLC   HO231602   6.753   1.120  14.360
   11BGLC    C331603   6.486   1.008  14.427
   11BGLC    H331604   6.504   0.901  14.454
   11BGLC    O331605   6.506   1.094  14.540
   11BGLC    C431606   6.344   1.030  14.378
   11BGLC    H431607   6.332   1.139  14.354
   11BGLC    O431608   6.251   1.000  14.481
   11BGLC   HO431609   6.253   1.069  14.549
   11BGLC    C631610   6.175   0.965  14.190
   11BGLC   H6131611   6.095   0.965  14.267
   11BGLC   H6231612   6.169   1.058  14.130
   11BGLC    O631613   6.143   0.860  14.100
   11BGLC   HO631614   6.072   0.802  14.133
   12BGLCN   C131615   6.529   1.038  14.668
   12BGLCN   H131616   6.634   1.011  14.676
   12BGLCN   C531617   6.490   0.866  14.825
   12BGLCN   H531618   6.599   0.840  14.832
   12BGLCN   O531619   6.457   0.920  14.695
   12BGLCN   C231620   6.496   1.143  14.772
   12BGLCN   H231621   6.385   1.155  14.767
   12BGLCN    N31622   6.566   1.265  14.741
   12BGLCN   HN31623   6.664   1.257  14.732
   12BGLCN    C31624   6.502   1.382  14.727
   12BGLCN    O31625   6.382   1.389  14.747
   12BGLCN   CT31626   6.582   1.504  14.690
   12BGLCN  HT131627   6.586   1.573  14.777
   12BGLCN  HT231628   6.533   1.559  14.608
   12BGLCN  HT331629   6.684   1.473  14.661
   12BGLCN   C331630   6.531   1.096  14.913
   12BGLCN   H331631   6.641   1.077  14.916
   12BGLCN   O331632   6.500   1.197  15.013
   12BGLCN   C431633   6.454   0.967  14.933
   12BGLCN   H431634   6.344   0.986  14.925
   12BGLCN   O431635   6.476   0.912  15.062
   12BGLCN  HO431636   6.567   0.879  15.067
   12BGLCN   C631637   6.414   0.738  14.834
   12BGLCN  H6131638   6.428   0.683  14.930
   12BGLCN  H6231639   6.305   0.756  14.819
   12BGLCN   O631640   6.460   0.657  14.729
   12BGLCN  HO631641   6.525   0.594  14.757
   13AGAL    C131642   6.595   1.208  15.120
   13AGAL    H131643   6.627   1.106  15.152
   13AGAL    C531644   6.673   1.429  15.063
   13AGAL    H531645   6.588   1.426  14.990
   13AGAL    O531646   6.709   1.290  15.083
   13AGAL    C231647   6.539   1.274  15.247
   13AGAL    H231648   6.626   1.283  15.316
   13AGAL    O231649   6.443   1.190  15.312
   13AGAL    C331650   6.495   1.418  15.225
   13AGAL    H331651   6.426   1.421  15.138
   13AGAL    O331652   6.425   1.471  15.337
   13AGAL   HO331653   6.352   1.527  15.308
   13AGAL    C431654   6.617   1.497  15.188
   13AGAL    H431655   6.585   1.600  15.160
   13AGAL    O431656   6.712   1.509  15.295
   13AGAL   HO431657   6.727   1.424  15.339
   13AGAL    C631658   6.776   1.513  14.992
   13AGAL   H6131659   6.806   1.463  14.897
   13AGAL   H6231660   6.729   1.612  14.967
   13AGAL    O631661   6.891   1.539  15.071
   13AGAL   HO631662   6.868   1.612  15.131
   14ARHM    C131663   6.480   1.135  15.437
   14ARHM    H131664   6.590   1.122  15.441
   14ARHM    C531665   6.280   1.007  15.454
   14ARHM    H531666   6.248   1.051  15.357
   14ARHM    O531667   6.424   1.004  15.455
   14ARHM    C231668   6.432   1.226  15.549
   14ARHM    H231669   6.475   1.327  15.530
   14ARHM    O231670   6.462   1.185  15.684
   14ARHM    C331671   6.282   1.233  15.542
   14ARHM    H331672   6.250   1.261  15.439
   14ARHM    O331673   6.230   1.337  15.626
   14ARHM   HO331674   6.234   1.313  15.719
   14ARHM    C431675   6.226   1.094  15.567
   14ARHM    H431676   6.265   1.052  15.663
   14ARHM    O431677   6.084   1.090  15.572
   14ARHM   HO431678   6.051   1.081  15.663
   14ARHM    C631679   6.231   0.862  15.462
   14ARHM   H6131680   6.287   0.795  15.394
   14ARHM   H6231681   6.239   0.828  15.568
   14ARHM   H6331682   6.125   0.856  15.433
   15ARHM    C131683   6.597   1.153  15.710
   15ARHM    H131684   6.663   1.209  15.639
   15ARHM    C531685   6.554   0.931  15.800
   15ARHM    H531686   6.444   0.932  15.781
   15ARHM    O531687   6.624   1.012  15.703
   15ARHM    C231688   6.632   1.201  15.849
   15ARHM    H231689   6.614   1.307  15.856
   15ARHM    O231690   6.773   1.190  15.866
   15ARHM    C331691   6.549   1.126  15.951
   15ARHM    H331692   6.442   1.132  15.921
   15ARHM    O331693   6.561   1.192  16.077
   15ARHM    C431694   6.588   0.980  15.939
   15ARHM    H431695   6.699   0.975  15.953
   15ARHM    O431696   6.529   0.895  16.037
   15ARHM   HO431697   6.578   0.811  16.035
   15ARHM    C631698   6.602   0.785  15.782
   15ARHM   H6131699   6.541   0.714  15.841
   15ARHM   H6231700   6.599   0.759  15.674
   15ARHM   H6331701   6.706   0.773  15.818
   16BMANN   C131702   6.831   1.235  15.987
   16BMANN   H131703   6.802   1.164  16.068
   16BMANN   C531704   6.853   1.402  16.156
   16BMANN   H531705   6.823   1.324  16.231
   16BMANN   O531706   6.795   1.369  16.027
   16BMANN   C231707   6.982   1.228  15.968
   16BMANN   H231708   7.006   1.122  15.940
   16BMANN    N31709   7.035   1.314  15.862
   16BMANN   HN31710   7.068   1.403  15.889
   16BMANN    C31711   7.054   1.277  15.735
   16BMANN    O31712   7.025   1.167  15.691
   16BMANN   CT31713   7.107   1.385  15.645
   16BMANN  HT131714   7.215   1.371  15.628
   16BMANN  HT231715   7.093   1.485  15.690
   16BMANN  HT331716   7.054   1.384  15.548
   16BMANN   C331717   7.045   1.260  16.102
   16BMANN   H331718   7.009   1.186  16.176
   16BMANN   O331719   7.186   1.244  16.096
   16BMANN  HO331720   7.217   1.190  16.169
   16BMANN   C431721   7.004   1.398  16.149
   16BMANN   H431722   7.039   1.474  16.077
   16BMANN   O431723   7.062   1.436  16.274
   16BMANN  HO431724   7.070   1.532  16.281
   16BMANN   C631725   6.804   1.533  16.216
   16BMANN  H6131726   6.810   1.527  16.326
   16BMANN  H6231727   6.870   1.614  16.183
   16BMANN   O631728   6.673   1.573  16.183
   16BMANN  HO631729   6.675   1.645  16.119
   17BGLCN   C131730   6.443   1.199  16.151
   17BGLCN   H131731   6.384   1.106  16.135
   17BGLCN   C531732   6.242   1.323  16.193
   17BGLCN   H531733   6.183   1.232  16.171
   17BGLCN   O531734   6.362   1.312  16.115
   17BGLCN   C231735   6.488   1.211  16.295
   17BGLCN   H231736   6.542   1.308  16.312
   17BGLCN    N31737   6.582   1.105  16.324
   17BGLCN   HN31738   6.571   1.021  16.272
   17BGLCN    C31739   6.679   1.108  16.417
   17BGLCN    O31740   6.711   1.206  16.482
   17BGLCN   CT31741   6.747   0.976  16.440
   17BGLCN  HT131742   6.845   0.970  16.389
   17BGLCN  HT231743   6.680   0.895  16.404
   17BGLCN  HT331744   6.763   0.960  16.548
   17BGLCN   C331745   6.363   1.209  16.380
   17BGLCN   H331746   6.308   1.118  16.346
   17BGLCN   O331747   6.398   1.192  16.520
   17BGLCN   C431748   6.279   1.331  16.342
   17BGLCN   H431749   6.340   1.424  16.353
   17BGLCN   O431750   6.160   1.340  16.422
   17BGLCN  HO431751   6.120   1.427  16.411
   17BGLCN   C631752   6.156   1.442  16.148
   17BGLCN  H6131753   6.048   1.421  16.154
   17BGLCN  H6231754   6.174   1.528  16.216
   17BGLCN   O631755   6.182   1.485  16.014
   17BGLCN  HO631756   6.174   1.414  15.950
   18AGAL    C131757   6.310   1.114  16.599
   18AGAL    H131758   6.219   1.174  16.618
   18AGAL    C531759   6.382   0.901  16.521
   18AGAL    H531760   6.466   0.957  16.477
   18AGAL    O531761   6.272   0.992  16.535
   18AGAL    C231762   6.368   1.073  16.733
   18AGAL    H231763   6.286   1.010  16.775
   18AGAL    O231764   6.382   1.182  16.824
   18AGAL    C331765   6.489   0.981  16.721
   18AGAL    H331766   6.563   1.030  16.653
   18AGAL    O331767   6.557   0.958  16.844
   18AGAL   HO331768   6.651   0.970  16.834
   18AGAL    C431769   6.442   0.853  16.653
   18AGAL    H431770   6.529   0.787  16.629
   18AGAL    O431771   6.351   0.779  16.734
   18AGAL   HO431772   6.403   0.739  16.805
   18AGAL    C631773   6.353   0.801  16.413
   18AGAL   H6131774   6.338   0.859  16.320
   18AGAL   H6231775   6.442   0.734  16.399
   18AGAL    O631776   6.237   0.723  16.436
   18AGAL   HO631777   6.182   0.766  16.503
   19ARHM    C131778   6.341   1.146  16.954
   19ARHM    H131779   6.356   1.038  16.971
   19ARHM    C531780   6.167   1.306  16.961
   19ARHM    H531781   6.196   1.335  16.857
   19ARHM    O531782   6.202   1.169  16.980
   19ARHM    C231783   6.423   1.230  17.047
   19ARHM    H231784   6.532   1.221  17.023
   19ARHM    O231785   6.403   1.184  17.181
   19ARHM    C331786   6.388   1.376  17.030
   19ARHM    H331787   6.406   1.407  16.925
   19ARHM    O331788   6.468   1.456  17.117
   19ARHM   HO331789   6.467   1.417  17.204
   19ARHM    C431790   6.242   1.395  17.056
   19ARHM    H431791   6.231   1.361  17.160
   19ARHM    O431792   6.196   1.529  17.046
   19ARHM   HO431793   6.218   1.559  16.957
   19ARHM    C631794   6.016   1.317  16.968
   19ARHM   H6131795   5.974   1.256  16.884
   19ARHM   H6231796   5.968   1.288  17.062
   19ARHM   H6331797   5.990   1.423  16.954
   20ARHM    C131798   6.468   1.061  17.206
   20ARHM    H131799   6.537   1.034  17.123
   20ARHM    C531800   6.292   0.964  17.331
   20ARHM    H531801   6.234   1.058  17.318
   20ARHM    O531802   6.379   0.950  17.219
   20ARHM    C231803   6.549   1.080  17.331
   20ARHM    H231804   6.609   1.174  17.321
   20ARHM    O231805   6.634   0.967  17.352
   20ARHM    C331806   6.461   1.096  17.449
   20ARHM    H331807   6.395   1.185  17.432
   20ARHM    O331808   6.544   1.119  17.563
   20ARHM    C431809   6.374   0.974  17.459
   20ARHM    H431810   6.433   0.880  17.469
   20ARHM    O431811   6.290   0.985  17.572
   20ARHM   HO431812   6.209   0.936  17.553
   20ARHM    C631813   6.191   0.847  17.331
   20ARHM   H6131814   6.239   0.748  17.345
   20ARHM   H6231815   6.117   0.862  17.413
   20ARHM   H6331816   6.136   0.845  17.235
   21BMANN   C131817   6.751   0.981  17.277
   21BMANN   H131818   6.741   1.068  17.208
   21BMANN   C531819   6.885   0.901  17.102
   21BMANN   H531820   6.868   0.996  17.046
   21BMANN   O531821   6.773   0.872  17.187
   21BMANN   C231822   6.868   1.002  17.371
   21BMANN   H231823   6.843   1.095  17.429
   21BMANN    N31824   6.892   0.892  17.465
   21BMANN   HN31825   6.882   0.800  17.426
   21BMANN    C31826   6.928   0.907  17.594
   21BMANN    O31827   6.967   1.014  17.639
   21BMANN   CT31828   6.928   0.786  17.683
   21BMANN  HT131829   7.018   0.726  17.663
   21BMANN  HT231830   6.836   0.729  17.666
   21BMANN  HT331831   6.928   0.813  17.791
   21BMANN   C331832   6.986   1.030  17.283
   21BMANN   H331833   6.957   1.124  17.231
   21BMANN   O331834   7.103   1.059  17.356
   21BMANN  HO331835   7.121   0.985  17.415
   21BMANN   C431836   7.010   0.918  17.184
   21BMANN   H431837   7.034   0.824  17.238
   21BMANN   O431838   7.118   0.940  17.094
   21BMANN  HO431839   7.193   0.887  17.122
   21BMANN   C631840   6.903   0.792  17.000
   21BMANN  H6131841   6.970   0.827  16.920
   21BMANN  H6231842   6.954   0.705  17.045
   21BMANN   O631843   6.780   0.753  16.940
   21BMANN  HO631844   6.726   0.711  17.009
   22BGLCN   C131845   6.495   1.207  17.660
   22BGLCN   H131846   6.384   1.208  17.662
   22BGLCN   C531847   6.500   1.427  17.747
   22BGLCN   H531848   6.389   1.426  17.747
   22BGLCN   O531849   6.546   1.339  17.643
   22BGLCN   C231850   6.543   1.152  17.791
   22BGLCN   H231851   6.656   1.150  17.786
   22BGLCN    N31852   6.493   1.018  17.809
   22BGLCN   HN31853   6.401   0.999  17.774
   22BGLCN    C31854   6.559   0.922  17.872
   22BGLCN    O31855   6.670   0.934  17.921
   22BGLCN   CT31856   6.484   0.795  17.879
   22BGLCN  HT131857   6.517   0.734  17.795
   22BGLCN  HT231858   6.375   0.807  17.866
   22BGLCN  HT331859   6.504   0.743  17.975
   22BGLCN   C331860   6.498   1.240  17.905
   22BGLCN   H331861   6.387   1.246  17.902
   22BGLCN   O331862   6.539   1.174  18.027
   22BGLCN   C431863   6.552   1.379  17.883
   22BGLCN   H431864   6.663   1.372  17.877
   22BGLCN   O431865   6.520   1.471  17.987
   22BGLCN  HO431866   6.597   1.525  18.009
   22BGLCN   C631867   6.550   1.566  17.714
   22BGLCN  H6131868   6.544   1.629  17.805
   22BGLCN  H6231869   6.656   1.563  17.682
   22BGLCN   O631870   6.469   1.630  17.616
   22BGLCN  HO631871   6.466   1.582  17.533
   23AGAL    C131872   6.476   1.209  18.147
   23AGAL    H131873   6.513   1.308  18.182
   23AGAL    C531874   6.270   1.092  18.109
   23AGAL    H531875   6.316   1.048  18.018
   23AGAL    O531876   6.333   1.219  18.136
   23AGAL    C231877   6.510   1.110  18.255
   23AGAL    H231878   6.460   1.146  18.347
   23AGAL    O231879   6.652   1.104  18.280
   23AGAL    C331880   6.447   0.974  18.223
   23AGAL    H331881   6.479   0.942  18.122
   23AGAL    O331882   6.491   0.871  18.310
   23AGAL   HO331883   6.496   0.903  18.399
   23AGAL    C431884   6.297   0.992  18.221
   23AGAL    H431885   6.245   0.897  18.195
   23AGAL    O431886   6.245   1.037  18.346
   23AGAL   HO431887   6.163   1.083  18.322
   23AGAL    C631888   6.125   1.117  18.070
   23AGAL   H6131889   6.122   1.198  17.995
   23AGAL   H6231890   6.083   1.026  18.019
   23AGAL    O631891   6.042   1.155  18.181
   23AGAL   HO631892   5.952   1.173  18.147
   24ARHM    C131893   6.710   1.202  18.365
   24ARHM    H131894   6.639   1.288  18.375
   24ARHM    C531895   6.937   1.158  18.299
   24ARHM    H531896   6.897   1.082  18.228
   24ARHM    O531897   6.834   1.258  18.317
   24ARHM    C231898   6.733   1.133  18.497
   24ARHM    H231899   6.638   1.084  18.530
   24ARHM    O231900   6.779   1.227  18.597
   24ARHM    C331901   6.836   1.024  18.479
   24ARHM    H331902   6.799   0.955  18.399
   24ARHM    O331903   6.852   0.947  18.598
   24ARHM   HO331904   6.919   0.987  18.654
   24ARHM    C431905   6.965   1.086  18.429
   24ARHM    H431906   6.996   1.161  18.501
   24ARHM    O431907   7.073   0.995  18.417
   24ARHM   HO431908   7.155   1.040  18.438
   24ARHM    C631909   7.062   1.220  18.232
   24ARHM   H6131910   7.117   1.140  18.178
   24ARHM   H6231911   7.030   1.295  18.157
   24ARHM   H6331912   7.130   1.270  18.304
   25ARHM    C131913   6.678   1.308  18.651
   25ARHM    H131914   6.591   1.307  18.583
   25ARHM    C531915   6.816   1.470  18.760
   25ARHM    H531916   6.901   1.414  18.730
   25ARHM    O531917   6.712   1.447  18.664
   25ARHM    C231918   6.637   1.250  18.782
   25ARHM    H231919   6.621   1.140  18.773
   25ARHM    O231920   6.516   1.312  18.826
   25ARHM    C331921   6.749   1.270  18.882
   25ARHM    H331922   6.841   1.218  18.845
   25ARHM    O331923   6.706   1.216  19.007
   25ARHM    C431924   6.780   1.416  18.897
   25ARHM    H431925   6.691   1.474  18.930
   25ARHM    O431926   6.886   1.431  18.991
   25ARHM   HO431927   6.868   1.512  19.040
   25ARHM    C631928   6.864   1.616  18.759
   25ARHM   H6131929   6.884   1.649  18.655
   25ARHM   H6231930   6.787   1.680  18.804
   25ARHM   H6331931   6.959   1.625  18.816
   26BMANN   C131932   6.400   1.264  18.764
   26BMANN   H131933   6.416   1.163  18.722
   26BMANN   C531934   6.233   1.291  18.595
   26BMANN   H531935   6.261   1.192  18.554
   26BMANN   O531936   6.350   1.348  18.658
   26BMANN   C231937   6.296   1.255  18.872
   26BMANN   H231938   6.338   1.186  18.950
   26BMANN    N31939   6.267   1.386  18.930
   26BMANN   HN31940   6.246   1.458  18.865
   26BMANN    C31941   6.270   1.415  19.060
   26BMANN    O31942   6.314   1.336  19.142
   26BMANN   CT31943   6.213   1.549  19.102
   26BMANN  HT131944   6.224   1.622  19.020
   26BMANN  HT231945   6.259   1.588  19.195
   26BMANN  HT331946   6.106   1.533  19.122
   26BMANN   C331947   6.175   1.187  18.811
   26BMANN   H331948   6.205   1.088  18.769
   26BMANN   O331949   6.079   1.160  18.911
   26BMANN  HO331950   6.108   1.086  18.964
   26BMANN   C431951   6.122   1.273  18.698
   26BMANN   H431952   6.092   1.373  18.735
   26BMANN   O431953   6.006   1.215  18.638
   26BMANN  HO431954   5.931   1.234  18.695
   26BMANN   C631955   6.198   1.381  18.477
   26BMANN  H6131956   6.293   1.414  18.428
   26BMANN  H6231957   6.142   1.323  18.400
   26BMANN   O631958   6.121   1.495  18.514
   26BMANN  HO631959   6.036   1.467  18.550
   27BGLCN   C131960   6.799   1.145  19.084
   27BGLCN   H131961   6.900   1.189  19.079
   27BGLCN   C531962   6.893   0.933  19.128
   27BGLCN   H531963   6.992   0.985  19.130
   27BGLCN   O531964   6.805   1.008  19.044
   27BGLCN   C231965   6.740   1.153  19.223
   27BGLCN   H231966   6.640   1.102  19.220
   27BGLCN    N31967   6.719   1.292  19.266
   27BGLCN   HN31968   6.790   1.357  19.241
   27BGLCN    C31969   6.606   1.328  19.332
   27BGLCN    O31970   6.533   1.247  19.388
   27BGLCN   CT31971   6.571   1.475  19.338
   27BGLCN  HT131972   6.639   1.533  19.273
   27BGLCN  HT231973   6.574   1.513  19.442
   27BGLCN  HT331974   6.466   1.486  19.302
   27BGLCN   C331975   6.827   1.077  19.319
   27BGLCN   H331976   6.929   1.122  19.314
   27BGLCN   O331977   6.768   1.097  19.449
   27BGLCN   C431978   6.838   0.933  19.270
   27BGLCN   H431979   6.736   0.886  19.270
   27BGLCN   O431980   6.923   0.854  19.352
   27BGLCN  HO431981   7.011   0.892  19.347
   27BGLCN   C631982   6.917   0.796  19.068
   27BGLCN  H6131983   7.003   0.748  19.121
   27BGLCN  H6231984   6.829   0.731  19.082
   27BGLCN   O631985   6.947   0.805  18.929
   27BGLCN  HO631986   6.965   0.719  18.889
   28AGAL    C131987   6.849   1.072  19.561
   28AGAL    H131988   6.860   0.962  19.568
   28AGAL    C531989   6.974   1.277  19.549
   28AGAL    H531990   6.895   1.314  19.479
   28AGAL    O531991   6.979   1.132  19.543
   28AGAL    C231992   6.794   1.119  19.697
   28AGAL    H231993   6.874   1.084  19.766
   28AGAL    O231994   6.672   1.060  19.745
   28AGAL    C331995   6.789   1.271  19.704
   28AGAL    H331996   6.726   1.307  19.620
   28AGAL    O331997   6.732   1.325  19.822
   28AGAL   HO331998   6.653   1.377  19.799
   28AGAL    C431999   6.927   1.324  19.684
   28AGAL    H432000   6.922   1.435  19.685
   28AGAL    O432001   7.018   1.286  19.786
   28AGAL   HO432002   7.029   1.356  19.849
   28AGAL    C632003   7.105   1.340  19.501
   28AGAL   H6132004   7.114   1.318  19.393
   28AGAL   H6232005   7.104   1.451  19.513
   28AGAL    O632006   7.221   1.292  19.568
   28AGAL   HO632007   7.248   1.210  19.524
   29ARHM    C132008   6.685   1.032  19.883
   29ARHM    H132009   6.758   1.099  19.932
   29ARHM    C532010   6.636   0.802  19.851
   29ARHM    H532011   6.623   0.826  19.743
   29ARHM    O532012   6.728   0.898  19.906
   29ARHM    C232013   6.554   1.053  19.953
   29ARHM    H232014   6.518   1.157  19.928
   29ARHM    O232015   6.568   1.038  20.096
   29ARHM    C332016   6.454   0.956  19.897
   29ARHM    H332017   6.443   0.973  19.787
   29ARHM    O332018   6.328   0.984  19.954
   29ARHM   HO332019   6.280   0.901  19.961
   29ARHM    C432020   6.499   0.812  19.919
   29ARHM    H432021   6.510   0.793  20.028
   29ARHM    O432022   6.405   0.714  19.873
   29ARHM   HO432023   6.374   0.735  19.783
   29ARHM    C632024   6.710   0.669  19.859
   29ARHM   H6132025   6.812   0.683  19.815
   29ARHM   H6232026   6.724   0.634  19.963
   29ARHM   H6332027   6.657   0.591  19.800
   30ARHM    C132028   6.584   1.155  20.173
   30ARHM    H132029   6.501   1.225  20.152
   30ARHM    C532030   6.823   1.137  20.186
   30ARHM    H532031   6.811   1.043  20.128
   30ARHM    O532032   6.711   1.221  20.152
   30ARHM    C232033   6.578   1.115  20.319
   30ARHM    H232034   6.483   1.060  20.339
   30ARHM    O232035   6.588   1.233  20.397
   30ARHM    C332036   6.694   1.027  20.359
   30ARHM    H332037   6.692   0.942  20.288
   30ARHM    O332038   6.678   0.971  20.491
   30ARHM    C432039   6.823   1.101  20.332
   30ARHM    H432040   6.827   1.194  20.392
   30ARHM    O432041   6.940   1.029  20.368
   30ARHM   HO432042   6.963   0.960  20.305
   30ARHM    C632043   6.954   1.203  20.141
   30ARHM   H6132044   7.038   1.133  20.158
   30ARHM   H6232045   6.949   1.226  20.033
   30ARHM   H6332046   6.975   1.294  20.199
   31BMANN   C132047   6.467   1.294  20.427
   31BMANN   H132048   6.392   1.217  20.453
   31BMANN   C532049   6.301   1.450  20.357
   31BMANN   H532050   6.231   1.369  20.384
   31BMANN   O532051   6.422   1.381  20.322
   31BMANN   C232052   6.499   1.379  20.545
   31BMANN   H232053   6.526   1.309  20.628
   31BMANN    N32054   6.613   1.466  20.518
   31BMANN   HN32055   6.633   1.482  20.422
   31BMANN    C32056   6.695   1.508  20.614
   31BMANN    O32057   6.679   1.476  20.731
   31BMANN   CT32058   6.808   1.597  20.569
   31BMANN  HT132059   6.768   1.667  20.493
   31BMANN  HT232060   6.888   1.534  20.527
   31BMANN  HT332061   6.849   1.653  20.656
   31BMANN   C332062   6.372   1.449  20.586
   31BMANN   H332063   6.295   1.372  20.603
   31BMANN   O332064   6.386   1.510  20.712
   31BMANN  HO332065   6.468   1.477  20.751
   31BMANN   C432066   6.323   1.540  20.477
   31BMANN   H432067   6.399   1.616  20.449
   31BMANN   O432068   6.202   1.611  20.511
   31BMANN  HO432069   6.140   1.557  20.558
   31BMANN   C632070   6.238   1.526  20.241
   31BMANN  H6132071   6.134   1.556  20.267
   31BMANN  H6232072   6.294   1.621  20.223
   31BMANN   O632073   6.239   1.451  20.120
   31BMANN  HO632074   6.170   1.385  20.115
   32BGLCN   C132075   6.716   1.054  20.598
   32BGLCN   H132076   6.689   1.159  20.577
   32BGLCN   C532077   6.894   1.144  20.728
   32BGLCN   H532078   6.862   1.245  20.694
   32BGLCN   O532079   6.856   1.050  20.627
   32BGLCN   C232080   6.640   1.012  20.722
   32BGLCN   H232081   6.681   0.912  20.751
   32BGLCN    N32082   6.499   1.000  20.695
   32BGLCN   HN32083   6.469   1.060  20.622
   32BGLCN    C32084   6.413   0.909  20.746
   32BGLCN    O32085   6.444   0.824  20.829
   32BGLCN   CT32086   6.273   0.920  20.691
   32BGLCN  HT132087   6.278   0.978  20.597
   32BGLCN  HT232088   6.203   0.969  20.761
   32BGLCN  HT332089   6.232   0.819  20.667
   32BGLCN   C332090   6.670   1.115  20.828
   32BGLCN   H332091   6.648   1.215  20.783
   32BGLCN   O332092   6.590   1.101  20.946
   32BGLCN   C432093   6.818   1.109  20.854
   32BGLCN   H432094   6.839   1.005  20.881
   32BGLCN   O432095   6.860   1.194  20.960
   32BGLCN  HO432096   6.853   1.147  21.044
   32BGLCN   C632097   7.046   1.149  20.742
   32BGLCN  H6132098   7.078   1.230  20.810
   32BGLCN  H6232099   7.083   1.053  20.785
   32BGLCN   O632100   7.111   1.177  20.618
   32BGLCN  HO632101   7.051   1.226  20.562
   33AGAL    C132102   6.553   1.225  21.004
   33AGAL    H132103   6.637   1.297  20.997
   33AGAL    C532104   6.320   1.205  20.956
   33AGAL    H532105   6.349   1.104  20.920
   33AGAL    O532106   6.438   1.285  20.940
   33AGAL    C232107   6.520   1.205  21.151
   33AGAL    H232108   6.485   1.303  21.190
   33AGAL    O232109   6.641   1.174  21.224
   33AGAL    C332110   6.400   1.113  21.166
   33AGAL    H332111   6.416   1.017  21.110
   33AGAL    O332112   6.377   1.069  21.300
   33AGAL   HO332113   6.368   1.141  21.362
   33AGAL    C432114   6.281   1.182  21.101
   33AGAL    H432115   6.199   1.111  21.103
   33AGAL    O432116   6.230   1.299  21.165
   33AGAL   HO432117   6.293   1.338  21.227
   33AGAL    C632118   6.210   1.249  20.859
   33AGAL   H6132119   6.251   1.235  20.758
   33AGAL   H6232120   6.124   1.181  20.864
   33AGAL    O632121   6.155   1.381  20.868
   33AGAL   HO632122   6.214   1.446  20.826
   34ARHM    C132123   6.658   1.250  21.342
   34ARHM    H132124   6.564   1.245  21.401
   34ARHM    C532125   6.806   1.416  21.243
   34ARHM    H532126   6.792   1.371  21.142
   34ARHM    O532127   6.687   1.391  21.319
   34ARHM    C232128   6.772   1.184  21.417
   34ARHM    H232129   6.753   1.074  21.422
   34ARHM    O232130   6.788   1.233  21.553
   34ARHM    C332131   6.900   1.204  21.336
   34ARHM    H332132   6.888   1.159  21.235
   34ARHM    O332133   7.011   1.139  21.399
   34ARHM   HO332134   7.074   1.107  21.333
   34ARHM    C432135   6.924   1.351  21.316
   34ARHM    H432136   6.928   1.399  21.416
   34ARHM    O432137   7.047   1.377  21.248
   34ARHM   HO432138   7.121   1.357  21.306
   34ARHM    C632139   6.831   1.568  21.219
   34ARHM   H6132140   6.838   1.626  21.313
   34ARHM   H6232141   6.929   1.581  21.169
   34ARHM   H6332142   6.754   1.615  21.155
   35ARHM    C132143   6.678   1.223  21.643
   35ARHM    H132144   6.623   1.127  21.624
   35ARHM    C532145   6.655   1.462  21.657
   35ARHM    H532146   6.740   1.476  21.587
   35ARHM    O532147   6.589   1.336  21.631
   35ARHM    C232148   6.728   1.219  21.787
   35ARHM    H232149   6.797   1.133  21.802
   35ARHM    O232150   6.619   1.206  21.880
   35ARHM    C332151   6.803   1.346  21.820
   35ARHM    H332152   6.888   1.356  21.747
   35ARHM    O332153   6.865   1.341  21.949
   35ARHM   HO332154   6.805   1.294  22.009
   35ARHM    C432155   6.709   1.464  21.801
   35ARHM    H432156   6.621   1.455  21.869
   35ARHM    O432157   6.779   1.585  21.833
   35ARHM   HO432158   6.861   1.589  21.786
   35ARHM    C632159   6.557   1.576  21.622
   35ARHM   H6132160   6.533   1.579  21.513
   35ARHM   H6232161   6.462   1.561  21.679
   35ARHM   H6332162   6.603   1.674  21.647
   36BMANN   C132163   6.559   1.079  21.884
   36BMANN   H132164   6.630   1.001  21.849
   36BMANN   C532165   6.387   0.934  21.809
   36BMANN   H532166   6.468   0.863  21.780
   36BMANN   O532167   6.441   1.068  21.803
   36BMANN   C232168   6.520   1.054  22.028
   36BMANN   H232169   6.617   1.057  22.085
   36BMANN    N32170   6.431   1.155  22.085
   36BMANN   HN32171   6.361   1.190  22.024
   36BMANN    C32172   6.429   1.183  22.218
   36BMANN    O32173   6.511   1.140  22.298
   36BMANN   CT32174   6.318   1.271  22.269
   36BMANN  HT132175   6.222   1.242  22.223
   36BMANN  HT232176   6.337   1.378  22.248
   36BMANN  HT332177   6.310   1.260  22.380
   36BMANN   C332178   6.465   0.913  22.039
   36BMANN   H332179   6.542   0.841  22.001
   36BMANN   O332180   6.434   0.876  22.173
   36BMANN  HO332181   6.493   0.806  22.202
   36BMANN   C432182   6.345   0.899  21.950
   36BMANN   H432183   6.264   0.967  21.982
   36BMANN   O432184   6.293   0.767  21.960
   36BMANN  HO432185   6.272   0.763  22.055
   36BMANN   C632186   6.275   0.915  21.708
   36BMANN  H6132187   6.311   0.939  21.606
   36BMANN  H6232188   6.251   0.806  21.706
   36BMANN   O632189   6.158   0.991  21.743
   36BMANN  HO632190   6.106   0.933  21.799
    1ECLIP HB6S32191   7.033   7.327  11.779
    1ECLIP  OB632192   7.091   7.178  11.908
    1ECLIP  CB632193   7.126   7.273  11.807
    1ECLIP HB6R32194   7.199   7.348  11.846
    1ECLIP  CB532195   7.187   7.213  11.682
    1ECLIP  OB532196   7.093   7.116  11.634
    1ECLIP  HB532197   7.284   7.166  11.711
    1ECLIP  CB132198   7.139   7.048  11.517
    1ECLIP  HB132199   7.239   6.999  11.533
    1ECLIP  OA632200   7.052   6.949  11.472
    1ECLIP  CA632201   6.913   6.976  11.496
    1ECLIP HA6R32202   6.892   7.083  11.513
    1ECLIP HA6S32203   6.881   6.914  11.583
    1ECLIP  CB432204   7.215   7.317  11.573
    1ECLIP  HB432205   7.123   7.374  11.542
    1ECLIP  OB432206   7.319   7.404  11.621
    1ECLIP   PB32207   7.287   7.562  11.666
    1ECLIP OPB432208   7.366   7.603  11.791
    1ECLIP OPB332209   7.139   7.563  11.701
    1ECLIP OPB232210   7.318   7.650  11.546
    1ECLIP  CB332211   7.261   7.240  11.454
    1ECLIP  OB332212   7.270   7.322  11.344
    1ECLIP  HB332213   7.354   7.182  11.475
    1ECLIP  C7132214   7.377   7.378  11.326
    1ECLIP  O7132215   7.486   7.341  11.373
    1ECLIP  C7232216   7.340   7.415  11.178
    1ECLIP H72R32217   7.320   7.345  11.100
    1ECLIP H72S32218   7.434   7.391  11.129
    1ECLIP  CB232219   7.158   7.144  11.405
    1ECLIP  HB232220   7.062   7.201  11.388
    1ECLIP  NB232221   7.202   7.076  11.282
    1ECLIP HNB232222   7.254   6.992  11.292
    1ECLIP  CA432223   6.896   6.808  11.326
    1ECLIP  HA432224   6.997   6.822  11.299
    1ECLIP  OA432225   6.876   6.702  11.421
    1ECLIP HOA432226   6.914   6.731  11.504
    1ECLIP  CA532227   6.838   6.936  11.375
    1ECLIP  HA532228   6.728   6.932  11.394
    1ECLIP  OA532229   6.864   7.038  11.278
    1ECLIP  CA132230   6.800   7.014  11.151
    1ECLIP  HA132231   6.841   7.087  11.080
    1ECLIP  OA132232   6.660   7.030  11.156
    1ECLIP OPA232233   6.532   7.135  11.343
    1ECLIP OPA332234   6.712   7.271  11.225
    1ECLIP OPA432235   6.498   7.218  11.101
    1ECLIP   PA32236   6.596   7.173  11.209
    1ECLIP  CA332237   6.838   6.785  11.199
    1ECLIP  HA332238   6.740   6.758  11.247
    1ECLIP  OA332239   6.892   6.681  11.130
    1ECLIP  C3132240   6.995   6.661  11.065
    1ECLIP  O3132241   6.994   6.626  10.947
    1ECLIP  C3232242   7.060   6.575  11.155
    1ECLIP H32R32243   7.066   6.481  11.096
    1ECLIP H32S32244   7.026   6.536  11.255
    1ECLIP  CA232245   6.856   6.890  11.092
    1ECLIP  HA232246   6.965   6.900  11.079
    1ECLIP  NA232247   6.811   6.861  10.953
    1ECLIP HNA232248   6.761   6.775  10.944
    1ECLIP  C7332249   7.254   7.554  11.163
    1ECLIP H73R32250   7.275   7.621  11.253
    1ECLIP  O7332251   7.131   7.500  11.170
    1ECLIP  C8132252   7.047   7.567  11.238
    1ECLIP  O8132253   7.064   7.678  11.290
    1ECLIP  C8232254   6.923   7.512  11.172
    1ECLIP H82R32255   6.837   7.555  11.224
    1ECLIP H82S32256   6.925   7.401  11.192
    1ECLIP  C8332257   6.920   7.531  11.018
    1ECLIP H83R32258   6.980   7.452  10.967
    1ECLIP H83S32259   6.963   7.629  10.991
    1ECLIP  C8432260   6.778   7.516  10.964
    1ECLIP H84R32261   6.718   7.604  10.993
    1ECLIP H84S32262   6.735   7.424  11.012
    1ECLIP  C8532263   6.771   7.496  10.812
    1ECLIP H85R32264   6.853   7.423  10.790
    1ECLIP H85S32265   6.795   7.590  10.759
    1ECLIP  C8632266   6.640   7.430  10.765
    1ECLIP H86R32267   6.564   7.506  10.736
    1ECLIP H86S32268   6.595   7.372  10.849
    1ECLIP  C8732269   6.663   7.327  10.652
    1ECLIP H87R32270   6.565   7.289  10.616
    1ECLIP H87S32271   6.718   7.239  10.694
    1ECLIP  C8832272   6.749   7.383  10.538
    1ECLIP H88R32273   6.855   7.387  10.571
    1ECLIP H88S32274   6.720   7.490  10.524
    1ECLIP  C8932275   6.739   7.302  10.408
    1ECLIP H89R32276   6.702   7.198  10.426
    1ECLIP H89S32277   6.839   7.291  10.362
    1ECLIP C81032278   6.651   7.375  10.306
    1ECLIPH810R32279   6.659   7.483  10.329
    1ECLIPH810S32280   6.545   7.344  10.323
    1ECLIP C81132281   6.690   7.349  10.160
    1ECLIPH811R32282   6.606   7.373  10.090
    1ECLIPH811S32283   6.716   7.242  10.152
    1ECLIP C81232284   6.814   7.424  10.110
    1ECLIPH812R32285   6.837   7.387  10.007
    1ECLIPH812S32286   6.900   7.405  10.178
    1ECLIP C81332287   6.802   7.575  10.102
    1ECLIPH813R32288   6.722   7.598  10.029
    1ECLIPH813S32289   6.776   7.620  10.201
    1ECLIP C81432290   6.933   7.638  10.061
    1ECLIPH814R32291   6.968   7.601   9.961
    1ECLIPH814S32292   7.012   7.630  10.136
    1ECLIPH814T32293   6.921   7.747  10.064
    1ECLIP  C7432294   7.250   7.659  11.039
    1ECLIP H74R32295   7.315   7.740  11.003
    1ECLIP H74S32296   7.187   7.745  11.070
    1ECLIP  C7532297   7.248   7.597  10.902
    1ECLIP H75R32298   7.201   7.676  10.839
    1ECLIP H75S32299   7.185   7.509  10.923
    1ECLIP  C7632300   7.373   7.542  10.829
    1ECLIP H76R32301   7.413   7.449  10.875
    1ECLIP H76S32302   7.462   7.607  10.822
    1ECLIP  C7732303   7.338   7.517  10.682
    1ECLIP H77R32304   7.329   7.618  10.635
    1ECLIP H77S32305   7.245   7.467  10.667
    1ECLIP  C7832306   7.437   7.419  10.621
    1ECLIP H78R32307   7.530   7.452  10.670
    1ECLIP H78S32308   7.452   7.325  10.673
    1ECLIP  C7932309   7.423   7.395  10.464
    1ECLIP H79R32310   7.395   7.291  10.450
    1ECLIP H79S32311   7.515   7.382  10.404
    1ECLIP C71032312   7.352   7.506  10.379
    1ECLIPH710R32313   7.258   7.531  10.428
    1ECLIPH710S32314   7.399   7.608  10.366
    1ECLIP C71132315   7.332   7.461  10.236
    1ECLIPH711R32316   7.416   7.409  10.191
    1ECLIPH711S32317   7.276   7.369  10.233
    1ECLIP C71232318   7.278   7.577  10.154
    1ECLIPH712R32319   7.341   7.670  10.161
    1ECLIPH712S32320   7.188   7.602  10.215
    1ECLIP C71332321   7.234   7.532  10.012
    1ECLIPH713R32322   7.168   7.446  10.028
    1ECLIPH713S32323   7.184   7.620   9.965
    1ECLIP C71432324   7.330   7.473   9.908
    1ECLIPH714R32325   7.372   7.566   9.887
    1ECLIPH714S32326   7.420   7.420   9.946
    1ECLIPH714T32327   7.313   7.474   9.799
    1ECLIP  C5132328   7.175   7.124  11.160
    1ECLIP  O5132329   7.092   7.212  11.143
    1ECLIP  C5232330   7.253   7.071  11.042
    1ECLIP H52R32331   7.348   7.129  11.029
    1ECLIP H52S32332   7.279   6.967  11.061
    1ECLIP  C5332333   7.170   7.082  10.912
    1ECLIP H53R32334   7.062   7.065  10.934
    1ECLIP  O5332335   7.227   6.986  10.821
    1ECLIP  C6132336   7.155   6.882  10.786
    1ECLIP  O6132337   7.041   6.858  10.818
    1ECLIP  C6232338   7.234   6.792  10.694
    1ECLIP H62R32339   7.293   6.722  10.757
    1ECLIP H62S32340   7.301   6.856  10.637
    1ECLIP  C6332341   7.139   6.714  10.601
    1ECLIP H63R32342   7.058   6.775  10.559
    1ECLIP H63S32343   7.085   6.648  10.671
    1ECLIP  C6432344   7.207   6.643  10.481
    1ECLIP H64R32345   7.141   6.591  10.410
    1ECLIP H64S32346   7.277   6.568  10.522
    1ECLIP  C6532347   7.261   6.747  10.387
    1ECLIP H65R32348   7.338   6.794  10.450
    1ECLIP H65S32349   7.177   6.813  10.360
    1ECLIP  C6632350   7.325   6.704  10.257
    1ECLIP H66R32351   7.381   6.618  10.281
    1ECLIP H66S32352   7.382   6.785  10.213
    1ECLIP  C6732353   7.248   6.639  10.148
    1ECLIP H67R32354   7.188   6.573  10.206
    1ECLIP H67S32355   7.309   6.581  10.075
    1ECLIP  C6832356   7.149   6.728  10.088
    1ECLIP H68R32357   7.192   6.822  10.053
    1ECLIP H68S32358   7.066   6.737  10.162
    1ECLIP  C6932359   7.111   6.679   9.959
    1ECLIP H69R32360   7.089   6.580   9.943
    1ECLIP H69S32361   7.193   6.689   9.889
    1ECLIP C61032362   6.969   6.686   9.932
    1ECLIPH610R32363   6.959   6.796   9.938
    1ECLIPH610S32364   6.913   6.659  10.015
    1ECLIP C61132365   6.947   6.596   9.808
    1ECLIPH611R32366   6.921   6.494   9.787
    1ECLIPH611S32367   6.854   6.559   9.759
    1ECLIP C61232368   7.014   6.686   9.724
    1ECLIPH612R32369   6.972   6.788   9.694
    1ECLIPH612S32370   7.111   6.705   9.741
    1ECLIPH612T32371   7.028   6.611   9.647
    1ECLIP  C5432372   7.189   7.224  10.853
    1ECLIP H54R32373   7.296   7.232  10.824
    1ECLIP H54S32374   7.170   7.297  10.934
    1ECLIP  C5532375   7.101   7.261  10.733
    1ECLIP H55R32376   7.099   7.370  10.720
    1ECLIP H55S32377   6.995   7.235  10.757
    1ECLIP  C5632378   7.155   7.195  10.606
    1ECLIP H56R32379   7.160   7.086  10.622
    1ECLIP H56S32380   7.259   7.229  10.587
    1ECLIP  C5732381   7.075   7.211  10.477
    1ECLIP H57R32382   7.054   7.318  10.454
    1ECLIP H57S32383   6.976   7.161  10.491
    1ECLIP  C5832384   7.149   7.142  10.361
    1ECLIP H58R32385   7.256   7.170  10.358
    1ECLIP H58S32386   7.149   7.033  10.383
    1ECLIP  C5932387   7.086   7.174  10.225
    1ECLIP H59R32388   7.083   7.284  10.208
    1ECLIP H59S32389   6.981   7.139  10.233
    1ECLIP C51032390   7.163   7.117  10.104
    1ECLIPH510R32391   7.193   7.012  10.121
    1ECLIPH510S32392   7.256   7.176  10.089
    1ECLIP C51132393   7.085   7.120   9.972
    1ECLIPH511R32394   7.011   7.038   9.967
    1ECLIPH511S32395   7.031   7.217   9.963
    1ECLIP C51232396   7.182   7.102   9.856
    1ECLIPH512R32397   7.167   7.133   9.752
    1ECLIPH512S32398   7.250   7.185   9.878
    1ECLIP C51332399   7.209   6.959   9.813
    1ECLIPH513R32400   7.117   6.900   9.802
    1ECLIPH513S32401   7.278   6.912   9.886
    1ECLIP C51432402   7.267   6.945   9.676
    1ECLIPH514R32403   7.350   6.996   9.675
    1ECLIPH514S32404   7.337   6.859   9.671
    1ECLIPH514T32405   7.217   6.978   9.583
    1ECLIP  C3332406   7.192   6.645  11.168
    1ECLIP H33R32407   7.234   6.595  11.238
    1ECLIP  O3332408   7.189   6.745  11.264
    1ECLIP HO3332409   7.212   6.692  11.344
    1ECLIP  C3432410   7.271   6.705  11.049
    1ECLIP H34R32411   7.208   6.778  11.000
    1ECLIP H34S32412   7.280   6.618  10.978
    1ECLIP  C3532413   7.422   6.750  11.076
    1ECLIP H35R32414   7.504   6.679  11.105
    1ECLIP H35S32415   7.423   6.813  11.165
    1ECLIP  C3632416   7.490   6.803  10.952
    1ECLIP H36R32417   7.403   6.838  10.896
    1ECLIP H36S32418   7.542   6.724  10.892
    1ECLIP  C3732419   7.586   6.916  10.987
    1ECLIP H37R32420   7.687   6.873  11.003
    1ECLIP H37S32421   7.554   6.959  11.085
    1ECLIP  C3832422   7.588   7.025  10.879
    1ECLIP H38R32423   7.495   7.085  10.879
    1ECLIP H38S32424   7.672   7.094  10.904
    1ECLIP  C3932425   7.605   6.964  10.738
    1ECLIP H39R32426   7.524   6.890  10.718
    1ECLIP H39S32427   7.703   6.913  10.734
    1ECLIP C31032428   7.602   7.065  10.623
    1ECLIPH310R32429   7.696   7.124  10.633
    1ECLIPH310S32430   7.515   7.134  10.632
    1ECLIP C31132431   7.583   6.994  10.488
    1ECLIPH311R32432   7.635   6.896  10.489
    1ECLIPH311S32433   7.474   6.974  10.473
    1ECLIP C31232434   7.627   7.077  10.367
    1ECLIPH312R32435   7.606   7.184  10.386
    1ECLIPH312S32436   7.737   7.063  10.354
    1ECLIP C31332437   7.557   7.032  10.237
    1ECLIPH313R32438   7.600   6.933  10.211
    1ECLIPH313S32439   7.447   7.019  10.254
    1ECLIP C31432440   7.577   7.127  10.119
    1ECLIPH314R32441   7.685   7.138  10.096
    1ECLIPH314S32442   7.525   7.090  10.028
    1ECLIPH314T32443   7.535   7.227  10.142
    1ECLIP  C1132444   6.779   6.949  10.854
    1ECLIP  O1132445   6.812   7.065  10.846
    1ECLIP  C1232446   6.675   6.905  10.760
    1ECLIP H12R32447   6.595   6.968  10.799
    1ECLIP H12S32448   6.639   6.798  10.764
    1ECLIP  C1332449   6.704   6.916  10.623
    1ECLIP H13R32450   6.734   7.016  10.592
    1ECLIP  O1332451   6.587   6.902  10.564
    1ECLIP HO1332452   6.569   6.950  10.483
    1ECLIP  C1432453   6.783   6.802  10.586
    1ECLIP H14R32454   6.738   6.709  10.631
    1ECLIP H14S32455   6.882   6.819  10.623
    1ECLIP  C1532456   6.780   6.787  10.440
    1ECLIP H15R32457   6.674   6.779  10.407
    1ECLIP H15S32458   6.839   6.695  10.423
    1ECLIP  C1632459   6.840   6.892  10.353
    1ECLIP H16R32460   6.949   6.876  10.363
    1ECLIP H16S32461   6.808   6.986  10.399
    1ECLIP  C1732462   6.800   6.886  10.204
    1ECLIP H17R32463   6.816   6.789  10.154
    1ECLIP H17S32464   6.867   6.947  10.143
    1ECLIP  C1832465   6.656   6.928  10.186
    1ECLIP H18R32466   6.596   6.861  10.251
    1ECLIP H18S32467   6.641   7.033  10.217
    1ECLIP  C1932468   6.609   6.915  10.045
    1ECLIP H19R32469   6.501   6.937  10.030
    1ECLIP H19S32470   6.619   6.811  10.011
    1ECLIP C11032471   6.696   7.009   9.965
    1ECLIPH110R32472   6.684   7.117   9.992
    1ECLIPH110S32473   6.801   6.977   9.960
    1ECLIP C11132474   6.645   6.999   9.830
    1ECLIPH111R32475   6.602   6.904   9.804
    1ECLIPH111S32476   6.552   7.050   9.860
    1ECLIP C11232477   6.727   7.050   9.707
    1ECLIPH112R32478   6.713   7.158   9.734
    1ECLIPH112S32479   6.823   7.005   9.727
    1ECLIP C11332480   6.714   7.018   9.547
    1ECLIPH113R32481   6.737   6.926   9.506
    1ECLIPH113S32482   6.626   6.983   9.498
    1ECLIP C11432483   6.739   7.112   9.438
    1ECLIPH114R32484   6.729   7.214   9.468
    1ECLIPH114S32485   6.839   7.114   9.409
    1ECLIPH114T32486   6.670   7.146   9.373
    2AKDO    C132487   7.316   7.137  11.979
    2AKDO   O1132488   7.405   7.225  11.980
    2AKDO   O1232489   7.328   7.016  11.944
    2AKDO    C232490   7.174   7.184  12.023
    2AKDO    C632491   7.052   7.367  12.122
    2AKDO    H632492   6.987   7.361  12.031
    2AKDO    O632493   7.181   7.317  12.083
    2AKDO    C332494   7.112   7.092  12.128
    2AKDO   H3132495   7.181   7.080  12.215
    2AKDO   H3232496   7.097   6.992  12.082
    2AKDO    C432497   6.978   7.141  12.173
    2AKDO    H432498   6.911   7.152  12.085
    2AKDO    O432499   6.923   7.055  12.271
    2AKDO    C532500   6.989   7.279  12.232
    2AKDO    H532501   6.884   7.317  12.245
    2AKDO    O532502   7.057   7.268  12.361
    2AKDO    C732503   7.061   7.516  12.153
    2AKDO    H732504   7.122   7.530  12.244
    2AKDO    O732505   6.930   7.570  12.176
    2AKDO   HO732506   6.893   7.586  12.089
    2AKDO    C832507   7.126   7.592  12.039
    2AKDO   H8132508   7.226   7.545  12.022
    2AKDO   H8232509   7.067   7.575  11.946
    2AKDO    O832510   7.143   7.735  12.065
    2AKDO   HO832511   7.229   7.753  12.025
    3AKDO    C132512   6.758   6.961  12.114
    3AKDO   O1132513   6.806   6.932  12.000
    3AKDO   O1232514   6.656   7.032  12.139
    3AKDO    C232515   6.858   6.935  12.234
    3AKDO    C632516   7.045   6.805  12.313
    3AKDO    H632517   7.104   6.898  12.332
    3AKDO    O632518   6.949   6.826  12.207
    3AKDO    C332519   6.793   6.900  12.367
    3AKDO   H3132520   6.725   6.812  12.351
    3AKDO   H3232521   6.738   6.991  12.394
    3AKDO    C432522   6.894   6.880  12.476
    3AKDO    H432523   6.954   6.972  12.479
    3AKDO    O432524   6.855   6.864  12.610
    3AKDO   HO432525   6.867   6.938  12.669
    3AKDO    C532526   6.978   6.766  12.440
    3AKDO    H532527   7.048   6.747  12.524
    3AKDO    O532528   6.906   6.646  12.420
    3AKDO   HO532529   6.837   6.675  12.358
    3AKDO    C732530   7.139   6.697  12.270
    3AKDO    H732531   7.080   6.604  12.248
    3AKDO    O732532   7.231   6.671  12.376
    3AKDO   HO732533   7.279   6.592  12.347
    3AKDO    C832534   7.210   6.745  12.146
    3AKDO   H8132535   7.135   6.772  12.068
    3AKDO   H8232536   7.272   6.834  12.168
    3AKDO    O832537   7.293   6.643  12.092
    3AKDO   HO832538   7.228   6.577  12.061
    4AHEP    C132539   7.020   7.361  12.461
    4AHEP    H132540   7.068   7.455  12.428
    4AHEP    C532541   6.801   7.291  12.536
    4AHEP    H532542   6.825   7.193  12.487
    4AHEP    O532543   6.880   7.391  12.468
    4AHEP    C232544   7.070   7.346  12.607
    4AHEP    H232545   7.177   7.317  12.604
    4AHEP    O232546   7.065   7.471  12.674
    4AHEP   HO232547   7.145   7.486  12.724
    4AHEP    C332548   6.994   7.240  12.686
    4AHEP    H332549   7.011   7.138  12.646
    4AHEP    O332550   7.034   7.244  12.824
    4AHEP    C432551   6.847   7.278  12.682
    4AHEP    H432552   6.827   7.375  12.733
    4AHEP    O432553   6.775   7.170  12.742
    4AHEP    P432554   6.693   7.190  12.885
    4AHEP  OP4232555   6.701   7.053  12.951
    4AHEP  OP4332556   6.548   7.227  12.849
    4AHEP  OP4432557   6.760   7.298  12.968
    4AHEP    C632558   6.650   7.322  12.515
    4AHEP    H632559   6.596   7.229  12.545
    4AHEP    O632560   6.598   7.428  12.599
    4AHEP   HO632561   6.538   7.392  12.666
    4AHEP    C732562   6.611   7.358  12.370
    4AHEP   H7132563   6.501   7.352  12.357
    4AHEP   H7232564   6.660   7.284  12.302
    4AHEP    O732565   6.649   7.489  12.325
    4AHEP   HO732566   6.593   7.549  12.377
    5AHEP    C132567   7.088   7.128  12.882
    5AHEP    H132568   7.046   7.037  12.835
    5AHEP    C532569   7.295   7.239  12.932
    5AHEP    H532570   7.245   7.332  12.896
    5AHEP    O532571   7.231   7.129  12.864
    5AHEP    C232572   7.058   7.121  13.033
    5AHEP    H232573   6.947   7.129  13.045
    5AHEP    O232574   7.099   6.994  13.084
    5AHEP   HO232575   7.023   6.937  13.099
    5AHEP    C332576   7.122   7.236  13.110
    5AHEP    H332577   7.078   7.329  13.068
    5AHEP    O332578   7.101   7.235  13.253
    5AHEP    C432579   7.271   7.232  13.083
    5AHEP    H432580   7.314   7.136  13.120
    5AHEP    O432581   7.333   7.347  13.141
    5AHEP    P432582   7.444   7.330  13.264
    5AHEP  OP4232583   7.473   7.469  13.322
    5AHEP  OP4332584   7.573   7.275  13.204
    5AHEP  OP4432585   7.382   7.240  13.368
    5AHEP    C632586   7.443   7.248  12.892
    5AHEP    H632587   7.485   7.340  12.941
    5AHEP    O632588   7.518   7.132  12.936
    5AHEP   HO632589   7.499   7.055  12.885
    5AHEP    C732590   7.457   7.268  12.743
    5AHEP   H7132591   7.541   7.338  12.726
    5AHEP   H7232592   7.370   7.320  12.698
    5AHEP    O732593   7.494   7.147  12.677
    6AHEP    C132594   7.384   7.087  12.614
    6AHEP    H132595   7.288   7.136  12.639
    6AHEP    C532596   7.524   7.030  12.431
    6AHEP    H532597   7.609   7.076  12.487
    6AHEP    O532598   7.402   7.094  12.473
    6AHEP    C232599   7.375   6.945  12.660
    6AHEP    H232600   7.363   6.942  12.771
    6AHEP    O232601   7.255   6.885  12.610
    6AHEP   HO232602   7.198   6.861  12.685
    6AHEP    C332603   7.502   6.873  12.621
    6AHEP    H332604   7.588   6.916  12.675
    6AHEP    O332605   7.489   6.740  12.663
    6AHEP   HO332606   7.544   6.711  12.737
    6AHEP    C432607   7.522   6.883  12.469
    6AHEP    H432608   7.439   6.830  12.417
    6AHEP    O432609   7.644   6.824  12.423
    6AHEP   HO432610   7.718   6.878  12.453
    6AHEP    C632611   7.557   7.055  12.285
    6AHEP    H632612   7.661   7.017  12.268
    6AHEP    O632613   7.473   6.982  12.197
    6AHEP   HO632614   7.432   7.046  12.135
    6AHEP    C732615   7.564   7.201  12.251
    6AHEP   H7132616   7.611   7.216  12.150
    6AHEP   H7232617   7.626   7.246  12.327
    6AHEP    O732618   7.444   7.274  12.261
    6AHEP   HO732619   7.426   7.292  12.355
    7AGLC    C132620   6.991   7.307  13.302
    7AGLC    H132621   6.983   7.407  13.252
    7AGLC    C532622   6.869   7.106  13.346
    7AGLC    H532623   6.959   7.047  13.318
    7AGLC    O532624   6.871   7.233  13.279
    7AGLC    C232625   6.992   7.331  13.453
    7AGLC    H232626   6.894   7.376  13.479
    7AGLC    O232627   7.086   7.429  13.496
    7AGLC   HO232628   7.176   7.389  13.493
    7AGLC    C332629   7.000   7.204  13.534
    7AGLC    H332630   7.089   7.147  13.498
    7AGLC    O332631   7.014   7.231  13.677
    7AGLC    C432632   6.874   7.126  13.497
    7AGLC    H432633   6.784   7.186  13.529
    7AGLC    O432634   6.873   6.997  13.558
    7AGLC   HO432635   6.792   6.987  13.608
    7AGLC    C632636   6.751   7.029  13.287
    7AGLC   H6132637   6.768   7.021  13.177
    7AGLC   H6232638   6.746   6.925  13.324
    7AGLC    O632639   6.623   7.091  13.309
    7AGLC   HO632640   6.588   7.061  13.392
    8AGLC    C132641   7.133   7.178  13.731
    8AGLC    H132642   7.141   7.077  13.692
    8AGLC    C532643   7.261   7.383  13.758
    8AGLC    H532644   7.172   7.439  13.725
    8AGLC    O532645   7.252   7.252  13.696
    8AGLC    C232646   7.133   7.158  13.881
    8AGLC    H232647   7.228   7.106  13.906
    8AGLC    O232648   7.026   7.076  13.930
    8AGLC    C332649   7.131   7.291  13.949
    8AGLC    H332650   7.042   7.345  13.909
    8AGLC    O332651   7.110   7.266  14.090
    8AGLC    C432652   7.257   7.365  13.910
    8AGLC    H432653   7.345   7.304  13.940
    8AGLC    O432654   7.264   7.491  13.976
    8AGLC   HO432655   7.177   7.532  13.972
    8AGLC    C632656   7.379   7.468  13.710
    8AGLC   H6132657   7.391   7.467  13.599
    8AGLC   H6232658   7.364   7.575  13.739
    8AGLC    O632659   7.497   7.424  13.772
    8AGLC   HO632660   7.505   7.473  13.855
    9AGAL    C132661   7.011   6.947  13.880
    9AGAL    H132662   7.013   6.947  13.769
    9AGAL    C532663   7.111   6.839  14.066
    9AGAL    H532664   7.109   6.940  14.112
    9AGAL    O532665   7.115   6.858  13.922
    9AGAL    C232666   6.874   6.895  13.921
    9AGAL    H232667   6.864   6.795  13.874
    9AGAL    O232668   6.775   6.980  13.855
    9AGAL    C332669   6.867   6.874  14.071
    9AGAL    H332670   6.884   6.969  14.125
    9AGAL    O332671   6.738   6.832  14.112
    9AGAL   HO332672   6.676   6.882  14.058
    9AGAL    C432673   6.980   6.775  14.107
    9AGAL    H432674   6.980   6.756  14.216
    9AGAL    O432675   6.969   6.651  14.040
    9AGAL   HO432676   6.997   6.581  14.102
    9AGAL    C632677   7.236   6.777  14.125
    9AGAL   H6132678   7.328   6.834  14.099
    9AGAL   H6232679   7.229   6.767  14.235
    9AGAL    O632680   7.256   6.648  14.081
    9AGAL   HO632681   7.311   6.650  14.003
   10AGAL    C132682   6.652   7.025  13.911
   10AGAL    H132683   6.583   6.938  13.920
   10AGAL    C532684   6.737   7.212  14.041
   10AGAL    H532685   6.836   7.183  14.001
   10AGAL    O532686   6.660   7.089  14.041
   10AGAL    C232687   6.592   7.122  13.811
   10AGAL    H232688   6.491   7.149  13.848
   10AGAL    O232689   6.566   7.061  13.684
   10AGAL   HO232690   6.474   7.087  13.669
   10AGAL    C332691   6.677   7.250  13.806
   10AGAL    H332692   6.781   7.219  13.781
   10AGAL    O332693   6.635   7.344  13.706
   10AGAL   HO332694   6.700   7.349  13.636
   10AGAL    C432695   6.679   7.313  13.943
   10AGAL    H432696   6.744   7.403  13.944
   10AGAL    O432697   6.549   7.354  13.983
   10AGAL   HO432698   6.497   7.275  14.000
   10AGAL    C632699   6.770   7.271  14.179
   10AGAL   H6132700   6.807   7.192  14.246
   10AGAL   H6232701   6.852   7.345  14.164
   10AGAL    O632702   6.664   7.340  14.247
   10AGAL   HO632703   6.638   7.294  14.327
   11BGLC    C132704   7.217   7.260  14.184
   11BGLC    H132705   7.253   7.363  14.198
   11BGLC    C532706   7.424   7.145  14.247
   11BGLC    H532707   7.480   7.230  14.286
   11BGLC    O532708   7.319   7.164  14.148
   11BGLC    C232709   7.154   7.215  14.315
   11BGLC    H232710   7.105   7.116  14.301
   11BGLC    O232711   7.052   7.306  14.354
   11BGLC   HO232712   6.971   7.257  14.366
   11BGLC    C332713   7.255   7.198  14.427
   11BGLC    H332714   7.301   7.296  14.452
   11BGLC    O332715   7.188   7.139  14.541
   11BGLC    C432716   7.358   7.097  14.378
   11BGLC    H432717   7.306   7.002  14.355
   11BGLC    O432718   7.452   7.072  14.483
   11BGLC   HO432719   7.406   7.020  14.551
   11BGLC    C632720   7.534   7.062  14.179
   11BGLC   H6132721   7.600   7.024  14.254
   11BGLC   H6232722   7.490   6.978  14.123
   11BGLC    O632723   7.625   7.134  14.094
   11BGLC   HO632724   7.711   7.133  14.138
   12BGLCN   C132725   7.199   7.202  14.668
   12BGLCN   H132726   7.123   7.283  14.674
   12BGLCN   C532727   7.334   7.317  14.824
   12BGLCN   H532728   7.256   7.395  14.829
   12BGLCN   O532729   7.327   7.255  14.695
   12BGLCN   C232730   7.170   7.094  14.772
   12BGLCN   H232731   7.256   7.023  14.767
   12BGLCN    N32732   7.044   7.031  14.741
   12BGLCN   HN32733   6.967   7.092  14.731
   12BGLCN    C32734   7.033   6.898  14.728
   12BGLCN    O32735   7.128   6.822  14.745
   12BGLCN   CT32736   6.897   6.845  14.691
   12BGLCN  HT132737   6.854   6.789  14.777
   12BGLCN  HT232738   6.904   6.773  14.608
   12BGLCN  HT332739   6.830   6.928  14.661
   12BGLCN   C332740   7.168   7.151  14.913
   12BGLCN   H332741   7.089   7.229  14.917
   12BGLCN   O332742   7.136   7.050  15.013
   12BGLCN   C432743   7.305   7.214  14.932
   12BGLCN   H432744   7.383   7.135  14.924
   12BGLCN   O432745   7.316   7.272  15.061
   12BGLCN  HO432746   7.263   7.352  15.065
   12BGLCN   C632747   7.470   7.384  14.831
   12BGLCN  H6132748   7.486   7.436  14.928
   12BGLCN  H6232749   7.548   7.305  14.821
   12BGLCN   O632750   7.487   7.475  14.722
   12BGLCN  HO632751   7.460   7.562  14.750
   13AGAL    C132752   7.052   7.094  15.120
   13AGAL    H132753   7.084   7.196  15.152
   13AGAL    C532754   6.864   6.955  15.063
   13AGAL    H532755   6.936   6.910  14.991
   13AGAL    O532756   6.912   7.091  15.083
   13AGAL    C232757   7.062   7.009  15.247
   13AGAL    H232758   6.985   7.050  15.316
   13AGAL    O232759   7.190   7.024  15.312
   13AGAL    C332760   7.018   6.865  15.226
   13AGAL    H332761   7.074   6.823  15.139
   13AGAL    O332762   7.045   6.780  15.337
   13AGAL   HO332763   7.076   6.696  15.305
   13AGAL    C432764   6.872   6.868  15.188
   13AGAL    H432765   6.841   6.764  15.161
   13AGAL    O432766   6.783   6.911  15.292
   13AGAL   HO432767   6.819   6.988  15.338
   13AGAL    C632768   6.731   6.943  14.991
   13AGAL   H6132769   6.736   7.001  14.897
   13AGAL   H6232770   6.716   6.836  14.966
   13AGAL    O632771   6.616   6.983  15.064
   13AGAL   HO632772   6.600   6.919  15.136
   14ARHM    C132773   7.190   7.094  15.435
   14ARHM    H132774   7.105   7.165  15.439
   14ARHM    C532775   7.427   7.085  15.454
   14ARHM    H532776   7.428   7.030  15.356
   14ARHM    O532777   7.310   7.169  15.455
   14ARHM    C232778   7.175   6.993  15.545
   14ARHM    H232779   7.083   6.932  15.527
   14ARHM    O232780   7.175   7.041  15.680
   14ARHM    C332781   7.295   6.905  15.540
   14ARHM    H332782   7.308   6.859  15.439
   14ARHM    O332783   7.265   6.802  15.629
   14ARHM   HO332784   7.292   6.821  15.719
   14ARHM    C432785   7.421   6.984  15.568
   14ARHM    H432786   7.412   7.041  15.664
   14ARHM    O432787   7.540   6.904  15.577
   14ARHM   HO432788   7.572   6.895  15.667
   14ARHM    C632789   7.549   7.177  15.463
   14ARHM   H6132790   7.539   7.264  15.395
   14ARHM   H6232791   7.559   7.210  15.568
   14ARHM   H6332792   7.641   7.124  15.434
   15ARHM    C132793   7.080   7.139  15.710
   15ARHM    H132794   6.995   7.132  15.640
   15ARHM    C532795   7.239   7.299  15.799
   15ARHM    H532796   7.331   7.238  15.781
   15ARHM    O532797   7.135   7.272  15.703
   15ARHM    C232798   7.027   7.114  15.850
   15ARHM    H232799   6.992   7.008  15.857
   15ARHM    O232800   6.915   7.203  15.866
   15ARHM    C332801   7.139   7.134  15.949
   15ARHM    H332802   7.225   7.068  15.921
   15ARHM    O332803   7.088   7.093  16.076
   15ARHM    C432804   7.186   7.277  15.939
   15ARHM    H432805   7.098   7.343  15.952
   15ARHM    O432806   7.283   7.315  16.036
   15ARHM   HO432807   7.297   7.411  16.034
   15ARHM    C632808   7.280   7.444  15.781
   15ARHM   H6132809   7.369   7.461  15.843
   15ARHM   H6232810   7.301   7.467  15.674
   15ARHM   H6332811   7.206   7.517  15.819
   16BMANN   C132812   6.842   7.205  15.987
   16BMANN   H132813   6.906   7.246  16.068
   16BMANN   C532814   6.726   7.083  16.155
   16BMANN   H532815   6.796   7.127  16.231
   16BMANN   O532816   6.794   7.076  16.027
   16BMANN   C232817   6.721   7.296  15.967
   16BMANN   H232818   6.762   7.396  15.939
   16BMANN    N32819   6.629   7.255  15.862
   16BMANN   HN32820   6.555   7.197  15.892
   16BMANN    C32821   6.633   7.294  15.735
   16BMANN    O32822   6.716   7.371  15.690
   16BMANN   CT32823   6.527   7.235  15.644
   16BMANN  HT132824   6.447   7.309  15.622
   16BMANN  HT232825   6.480   7.146  15.690
   16BMANN  HT332826   6.574   7.205  15.549
   16BMANN   C332827   6.649   7.305  16.100
   16BMANN   H332828   6.721   7.344  16.175
   16BMANN   O332829   6.540   7.396  16.095
   16BMANN  HO332830   6.547   7.463  16.163
   16BMANN   C432831   6.604   7.169  16.147
   16BMANN   H432832   6.533   7.123  16.074
   16BMANN   O432833   6.537   7.171  16.273
   16BMANN  HO432834   6.479   7.094  16.283
   16BMANN   C632835   6.693   6.949  16.208
   16BMANN  H6132836   6.688   6.952  16.316
   16BMANN  H6232837   6.593   6.912  16.175
   16BMANN   O632838   6.794   6.860  16.172
   16BMANN  HO632839   6.748   6.789  16.126
   17BGLCN   C132840   7.182   7.027  16.154
   17BGLCN   H132841   7.284   7.066  16.135
   17BGLCN   C532842   7.280   6.826  16.194
   17BGLCN   H532843   7.388   6.856  16.174
   17BGLCN   O532844   7.187   6.896  16.117
   17BGLCN   C232845   7.138   7.035  16.296
   17BGLCN   H232846   7.040   6.982  16.312
   17BGLCN    N32847   7.119   7.174  16.324
   17BGLCN   HN32848   7.178   7.235  16.274
   17BGLCN    C32849   7.039   7.225  16.416
   17BGLCN    O32850   6.958   7.162  16.483
   17BGLCN   CT32851   7.059   7.372  16.433
   17BGLCN  HT132852   6.979   7.433  16.388
   17BGLCN  HT232853   7.160   7.401  16.398
   17BGLCN  HT332854   7.065   7.393  16.540
   17BGLCN   C332855   7.242   6.967  16.382
   17BGLCN   H332856   7.340   7.010  16.348
   17BGLCN   O332857   7.223   6.998  16.522
   17BGLCN   C432858   7.246   6.822  16.343
   17BGLCN   H432859   7.143   6.778  16.351
   17BGLCN   O432860   7.333   6.743  16.427
   17BGLCN  HO432861   7.332   6.648  16.409
   17BGLCN   C632862   7.254   6.703  16.128
   17BGLCN  H6132863   7.358   6.668  16.140
   17BGLCN  H6232864   7.178   6.645  16.185
   17BGLCN   O632865   7.218   6.688  15.990
   17BGLCN  HO632866   7.296   6.694  15.937
   18AGAL    C132867   7.341   7.012  16.600
   18AGAL    H132868   7.384   6.911  16.618
   18AGAL    C532869   7.399   7.228  16.522
   18AGAL    H532870   7.299   7.229  16.478
   18AGAL    O532871   7.440   7.091  16.536
   18AGAL    C232872   7.316   7.078  16.734
   18AGAL    H232873   7.419   7.084  16.776
   18AGAL    O232874   7.242   6.995  16.824
   18AGAL    C332875   7.267   7.222  16.721
   18AGAL    H332876   7.179   7.223  16.653
   18AGAL    O332877   7.226   7.279  16.845
   18AGAL   HO332878   7.143   7.328  16.835
   18AGAL    C432879   7.378   7.301  16.654
   18AGAL    H432880   7.344   7.404  16.632
   18AGAL    O432881   7.496   7.312  16.735
   18AGAL   HO432882   7.471   7.372  16.807
   18AGAL    C632883   7.476   7.291  16.414
   18AGAL   H6132884   7.453   7.238  16.319
   18AGAL   H6232885   7.448   7.399  16.401
   18AGAL    O632886   7.612   7.267  16.430
   18AGAL   HO632887   7.636   7.217  16.508
   19ARHM    C132888   7.298   7.002  16.953
   19ARHM    H132889   7.346   7.101  16.971
   19ARHM    C532890   7.353   6.771  16.961
   19ARHM    H532891   7.311   6.765  16.858
   19ARHM    O532892   7.400   6.905  16.979
   19ARHM    C232893   7.183   6.980  17.048
   19ARHM    H232894   7.099   7.048  17.023
   19ARHM    O232895   7.224   7.006  17.182
   19ARHM    C332896   7.132   6.839  17.032
   19ARHM    H332897   7.100   6.824  16.926
   19ARHM    O332898   7.018   6.817  17.113
   19ARHM   HO332899   7.040   6.848  17.201
   19ARHM    C432900   7.243   6.741  17.060
   19ARHM    H432901   7.278   6.757  17.165
   19ARHM    O432902   7.202   6.606  17.051
   19ARHM   HO432903   7.174   6.589  16.961
   19ARHM    C632904   7.472   6.675  16.964
   19ARHM   H6132905   7.541   6.708  16.884
   19ARHM   H6232906   7.527   6.674  17.061
   19ARHM   H6332907   7.438   6.571  16.944
   20ARHM    C132908   7.240   7.144  17.206
   20ARHM    H132909   7.199   7.206  17.123
   20ARHM    C532910   7.440   7.123  17.335
   20ARHM    H532911   7.435   7.014  17.319
   20ARHM    O532912   7.374   7.182  17.224
   20ARHM    C232913   7.167   7.176  17.330
   20ARHM    H232914   7.068   7.130  17.313
   20ARHM    O232915   7.155   7.317  17.353
   20ARHM    C332916   7.227   7.112  17.449
   20ARHM    H332917   7.231   7.002  17.432
   20ARHM    O332918   7.146   7.140  17.563
   20ARHM    C432919   7.367   7.164  17.461
   20ARHM    H432920   7.372   7.275  17.468
   20ARHM    O432921   7.430   7.108  17.574
   20ARHM   HO432922   7.522   7.106  17.550
   20ARHM    C632923   7.589   7.160  17.338
   20ARHM   H6132924   7.598   7.270  17.351
   20ARHM   H6232925   7.644   7.109  17.417
   20ARHM   H6332926   7.638   7.135  17.241
   21BMANN   C132927   7.051   7.371  17.277
   21BMANN   H132928   7.011   7.293  17.209
   21BMANN   C532929   6.985   7.512  17.102
   21BMANN   H532930   6.945   7.423  17.045
   21BMANN   O532931   7.094   7.472  17.188
   21BMANN   C232932   6.941   7.421  17.370
   21BMANN   H232933   6.911   7.333  17.431
   21BMANN    N32934   6.983   7.525  17.465
   21BMANN   HN32935   7.043   7.595  17.427
   21BMANN    C32936   6.942   7.532  17.595
   21BMANN    O32937   6.851   7.464  17.640
   21BMANN   CT32938   7.011   7.632  17.685
   21BMANN  HT132939   6.976   7.735  17.665
   21BMANN  HT232940   7.119   7.626  17.667
   21BMANN  HT332941   6.995   7.609  17.792
   21BMANN   C332942   6.825   7.460  17.283
   21BMANN   H332943   6.795   7.367  17.229
   21BMANN   O332944   6.713   7.503  17.359
   21BMANN  HO332945   6.742   7.574  17.416
   21BMANN   C432946   6.871   7.565  17.184
   21BMANN   H432947   6.905   7.656  17.238
   21BMANN   O432948   6.771   7.604  17.093
   21BMANN  HO432949   6.740   7.694  17.112
   21BMANN   C632950   7.030   7.611  16.998
   21BMANN  H6132951   6.954   7.617  16.917
   21BMANN  H6232952   7.036   7.711  17.044
   21BMANN   O632953   7.158   7.576  16.942
   21BMANN  HO632954   7.223   7.580  17.014
   22BGLCN   C132955   7.137   7.039  17.660
   22BGLCN   H132956   7.227   6.974  17.661
   22BGLCN   C532957   7.008   6.860  17.746
   22BGLCN   H532958   7.101   6.799  17.747
   22BGLCN   O532959   7.020   6.959  17.642
   22BGLCN   C232960   7.127   7.113  17.791
   22BGLCN   H232961   7.035   7.177  17.786
   22BGLCN    N32962   7.243   7.196  17.809
   22BGLCN   HN32963   7.329   7.160  17.777
   22BGLCN    C32964   7.242   7.312  17.874
   22BGLCN    O32965   7.144   7.366  17.921
   22BGLCN   CT32966   7.377   7.373  17.882
   22BGLCN  HT132967   7.388   7.431  17.792
   22BGLCN  HT232968   7.459   7.301  17.868
   22BGLCN  HT332969   7.391   7.435  17.973
   22BGLCN   C332970   7.115   7.015  17.905
   22BGLCN   H332971   7.203   6.946  17.902
   22BGLCN   O332972   7.119   7.091  18.027
   22BGLCN   C432973   6.992   6.930  17.881
   22BGLCN   H432974   6.903   6.997  17.877
   22BGLCN   O432975   6.971   6.838  17.987
   22BGLCN  HO432976   6.877   6.828  18.007
   22BGLCN   C632977   6.889   6.773  17.714
   22BGLCN  H6132978   6.859   6.718  17.805
   22BGLCN  H6232979   6.803   6.836  17.682
   22BGLCN   O632980   6.918   6.675  17.614
   22BGLCN  HO632981   6.951   6.716  17.534
   23AGAL    C132982   7.152   7.027  18.146
   23AGAL    H132983   7.065   6.966  18.181
   23AGAL    C532984   7.389   7.010  18.109
   23AGAL    H532985   7.374   7.072  18.018
   23AGAL    O532986   7.266   6.939  18.135
   23AGAL    C232987   7.178   7.129  18.255
   23AGAL    H232988   7.200   7.070  18.347
   23AGAL    O232989   7.062   7.213  18.279
   23AGAL    C332990   7.306   7.205  18.224
   23AGAL    H332991   7.299   7.250  18.123
   23AGAL    O332992   7.327   7.315  18.311
   23AGAL   HO332993   7.312   7.293  18.403
   23AGAL    C432994   7.423   7.107  18.222
   23AGAL    H432995   7.518   7.160  18.199
   23AGAL    O432996   7.442   7.041  18.346
   23AGAL   HO432997   7.479   6.954  18.324
   23AGAL    C632998   7.494   6.908  18.069
   23AGAL   H6132999   7.450   6.838  17.994
   23AGAL   H6233000   7.579   6.957  18.018
   23AGAL    O633001   7.541   6.832  18.181
   23AGAL   HO633002   7.601   6.762  18.152
   24ARHM    C133003   6.961   7.163  18.364
   24ARHM    H133004   6.971   7.053  18.374
   24ARHM    C533005   6.798   7.327  18.298
   24ARHM    H533006   6.874   7.368  18.229
   24ARHM    O533007   6.826   7.187  18.317
   24ARHM    C233008   6.982   7.234  18.496
   24ARHM    H233009   7.088   7.222  18.529
   24ARHM    O233010   6.894   7.185  18.596
   24ARHM    C333011   6.955   7.381  18.478
   24ARHM    H333012   7.025   7.417  18.399
   24ARHM    O333013   6.988   7.457  18.593
   24ARHM   HO333014   6.918   7.449  18.659
   24ARHM    C433015   6.812   7.399  18.430
   24ARHM    H433016   6.743   7.347  18.499
   24ARHM    O433017   6.775   7.537  18.418
   24ARHM   HO433018   6.682   7.553  18.437
   24ARHM    C633019   6.660   7.346  18.231
   24ARHM   H6133020   6.658   7.443  18.177
   24ARHM   H6233021   6.643   7.265  18.157
   24ARHM   H6333022   6.577   7.341  18.304
   25ARHM    C133023   6.929   7.062  18.651
   25ARHM    H133024   7.000   7.010  18.583
   25ARHM    C533025   6.724   7.032  18.759
   25ARHM    H533026   6.687   7.128  18.721
   25ARHM    O533027   6.817   6.977  18.664
   25ARHM    C233028   6.995   7.082  18.783
   25ARHM    H233029   7.070   7.165  18.773
   25ARHM    O233030   7.060   6.962  18.826
   25ARHM    C333031   6.895   7.133  18.883
   25ARHM    H333032   6.847   7.227  18.845
   25ARHM    O333033   6.960   7.151  19.007
   25ARHM    C433034   6.784   7.038  18.897
   25ARHM    H433035   6.821   6.935  18.926
   25ARHM    O433036   6.689   7.079  18.994
   25ARHM   HO433037   6.656   7.001  19.038
   25ARHM    C633038   6.596   6.965  18.771
   25ARHM   H6133039   6.539   6.949  18.677
   25ARHM   H6233040   6.650   6.874  18.809
   25ARHM   H6333041   6.519   6.987  18.845
   26BMANN   C133042   7.183   6.936  18.763
   26BMANN   H133043   7.223   7.027  18.714
   26BMANN   C533044   7.305   6.822  18.595
   26BMANN   H533045   7.338   6.920  18.553
   26BMANN   O533046   7.176   6.840  18.658
   26BMANN   C233047   7.275   6.887  18.871
   26BMANN   H233048   7.278   6.965  18.951
   26BMANN    N33049   7.224   6.764  18.929
   26BMANN   HN33050   7.206   6.691  18.865
   26BMANN    C33051   7.204   6.747  19.062
   26BMANN    O33052   7.218   6.838  19.142
   26BMANN   CT33053   7.167   6.609  19.107
   26BMANN  HT133054   7.116   6.558  19.024
   26BMANN  HT233055   7.112   6.597  19.201
   26BMANN  HT333056   7.260   6.556  19.129
   26BMANN   C333057   7.413   6.875  18.811
   26BMANN   H333058   7.444   6.974  18.769
   26BMANN   O333059   7.511   6.846  18.909
   26BMANN  HO333060   7.522   6.922  18.967
   26BMANN   C433061   7.408   6.775  18.697
   26BMANN   H433062   7.376   6.675  18.735
   26BMANN   O433063   7.535   6.759  18.636
   26BMANN  HO433064   7.585   6.699  18.693
   26BMANN   C633065   7.284   6.729  18.476
   26BMANN  H6133066   7.186   6.753  18.427
   26BMANN  H6233067   7.363   6.745  18.400
   26BMANN   O633068   7.284   6.591  18.514
   26BMANN  HO633069   7.369   6.572  18.553
   27BGLCN   C133070   6.921   7.261  19.084
   27BGLCN   H133071   6.811   7.281  19.079
   27BGLCN   C533072   6.961   7.489  19.128
   27BGLCN   H533073   6.850   7.501  19.131
   27BGLCN   O533074   6.992   7.378  19.043
   27BGLCN   C233075   6.964   7.221  19.223
   27BGLCN   H233076   7.075   7.208  19.220
   27BGLCN    N33077   6.904   7.095  19.267
   27BGLCN   HN33078   6.808   7.081  19.243
   27BGLCN    C33079   6.977   7.002  19.332
   27BGLCN    O33080   7.083   7.031  19.387
   27BGLCN   CT33081   6.923   6.861  19.338
   27BGLCN  HT133082   6.835   6.850  19.272
   27BGLCN  HT233083   6.898   6.832  19.441
   27BGLCN  HT333084   7.004   6.792  19.304
   27BGLCN   C333085   6.935   7.333  19.318
   27BGLCN   H333086   6.825   7.353  19.314
   27BGLCN   O333087   6.972   7.283  19.449
   27BGLCN   C433088   7.006   7.458  19.271
   27BGLCN   H433089   7.116   7.442  19.269
   27BGLCN   O433090   6.977   7.569  19.355
   27BGLCN  HO433091   6.884   7.588  19.346
   27BGLCN   C633092   7.016   7.616  19.067
   27BGLCN  H6133093   6.972   7.704  19.121
   27BGLCN  H6233094   7.126   7.620  19.082
   27BGLCN   O633095   6.986   7.625  18.927
   27BGLCN  HO633096   7.019   7.708  18.890
   28AGAL    C133097   6.920   7.349  19.561
   28AGAL    H133098   6.972   7.447  19.569
   28AGAL    C533099   6.701   7.251  19.549
   28AGAL    H533100   6.745   7.175  19.479
   28AGAL    O533101   6.779   7.374  19.542
   28AGAL    C233102   6.938   7.280  19.697
   28AGAL    H233103   6.891   7.355  19.766
   28AGAL    O233104   7.072   7.259  19.747
   28AGAL    C333105   6.858   7.152  19.705
   28AGAL    H333106   6.890   7.086  19.621
   28AGAL    O333107   6.876   7.075  19.823
   28AGAL   HO333108   6.913   6.989  19.799
   28AGAL    C433109   6.713   7.187  19.685
   28AGAL    H433110   6.655   7.092  19.685
   28AGAL    O433111   6.662   7.272  19.787
   28AGAL   HO433112   6.610   7.219  19.847
   28AGAL    C633113   6.558   7.274  19.501
   28AGAL   H6133114   6.561   7.296  19.392
   28AGAL   H6233115   6.499   7.182  19.515
   28AGAL    O633116   6.485   7.378  19.567
   28AGAL   HO633117   6.517   7.462  19.535
   29ARHM    C133118   7.077   7.292  19.885
   29ARHM    H133119   6.978   7.277  19.933
   29ARHM    C533120   7.246   7.454  19.850
   29ARHM    H533121   7.244   7.427  19.742
   29ARHM    O533122   7.117   7.428  19.906
   29ARHM    C233123   7.174   7.200  19.953
   29ARHM    H233124   7.144   7.095  19.928
   29ARHM    O233125   7.172   7.220  20.096
   29ARHM    C333126   7.312   7.224  19.898
   29ARHM    H333127   7.311   7.203  19.788
   29ARHM    O333128   7.403   7.135  19.959
   29ARHM   HO333129   7.488   7.178  19.957
   29ARHM    C433130   7.353   7.369  19.918
   29ARHM    H433131   7.355   7.392  20.027
   29ARHM    O433132   7.484   7.397  19.871
   29ARHM   HO433133   7.505   7.365  19.782
   29ARHM    C633134   7.259   7.607  19.858
   29ARHM   H6133135   7.167   7.651  19.814
   29ARHM   H6233136   7.268   7.643  19.962
   29ARHM   H6333137   7.345   7.641  19.798
   30ARHM    C133138   7.091   7.133  20.173
   30ARHM    H133139   7.121   7.028  20.153
   30ARHM    C533140   6.904   7.281  20.186
   30ARHM    H533141   6.967   7.353  20.128
   30ARHM    O533142   6.950   7.149  20.152
   30ARHM    C233143   7.119   7.163  20.319
   30ARHM    H233144   7.228   7.154  20.339
   30ARHM    O233145   7.043   7.071  20.397
   30ARHM    C333146   7.072   7.301  20.359
   30ARHM    H333147   7.122   7.370  20.289
   30ARHM    O333148   7.118   7.338  20.491
   30ARHM    C433149   6.924   7.311  20.333
   30ARHM    H433150   6.867   7.236  20.392
   30ARHM    O433151   6.868   7.436  20.369
   30ARHM   HO433152   6.890   7.504  20.305
   30ARHM    C633153   6.758   7.298  20.142
   30ARHM   H6133154   6.727   7.404  20.159
   30ARHM   H6233155   6.749   7.278  20.034
   30ARHM   H6333156   6.690   7.231  20.199
   31BMANN   C133157   7.110   6.954  20.426
   31BMANN   H133158   7.216   6.974  20.452
   31BMANN   C533159   7.161   6.738  20.353
   31BMANN   H533160   7.266   6.763  20.382
   31BMANN   O533161   7.098   6.860  20.319
   31BMANN   C233162   7.037   6.903  20.546
   31BMANN   H233163   7.054   6.976  20.629
   31BMANN    N33164   6.894   6.892  20.520
   31BMANN   HN33165   6.869   6.891  20.424
   31BMANN    C33166   6.802   6.903  20.616
   31BMANN    O33167   6.833   6.923  20.732
   31BMANN   CT33168   6.659   6.891  20.570
   31BMANN  HT133169   6.652   6.812  20.493
   31BMANN  HT233170   6.627   6.989  20.528
   31BMANN  HT333171   6.593   6.868  20.656
   31BMANN   C333172   7.103   6.777  20.587
   31BMANN   H333173   7.212   6.794  20.605
   31BMANN   O333174   7.053   6.729  20.710
   31BMANN  HO333175   7.003   6.802  20.750
   31BMANN   C433176   7.094   6.683  20.473
   31BMANN   H433177   6.989   6.649  20.450
   31BMANN   O433178   7.181   6.579  20.493
   31BMANN  HO433179   7.239   6.581  20.569
   31BMANN   C633180   7.170   6.634  20.241
   31BMANN  H6133181   7.239   6.549  20.267
   31BMANN  H6233182   7.071   6.586  20.223
   31BMANN   O633183   7.215   6.692  20.119
   31BMANN  HO633184   7.309   6.713  20.120
   32BGLCN   C133185   7.040   7.291  20.598
   32BGLCN   H133186   7.002   7.189  20.577
   32BGLCN   C533187   6.843   7.317  20.729
   32BGLCN   H533188   6.812   7.215  20.695
   32BGLCN   O533189   6.927   7.373  20.628
   32BGLCN   C233190   7.125   7.282  20.722
   32BGLCN   H233191   7.149   7.387  20.751
   32BGLCN    N33192   7.248   7.211  20.696
   32BGLCN   HN33193   7.241   7.144  20.623
   32BGLCN    C33194   7.368   7.235  20.751
   32BGLCN    O33195   7.390   7.323  20.833
   32BGLCN   CT33196   7.477   7.145  20.697
   32BGLCN  HT133197   7.443   7.106  20.599
   32BGLCN  HT233198   7.500   7.063  20.762
   32BGLCN  HT333199   7.572   7.202  20.680
   32BGLCN   C333200   7.042   7.215  20.829
   32BGLCN   H333201   7.004   7.120  20.784
   32BGLCN   O333202   7.117   7.180  20.947
   32BGLCN   C433203   6.923   7.304  20.856
   32BGLCN   H433204   6.962   7.404  20.887
   32BGLCN   O433205   6.840   7.255  20.959
   32BGLCN  HO433206   6.873   7.286  21.044
   32BGLCN   C633207   6.714   7.398  20.741
   32BGLCN  H6133208   6.641   7.347  20.807
   32BGLCN  H6233209   6.737   7.497  20.787
   32BGLCN   O633210   6.652   7.416  20.614
   32BGLCN  HO633211   6.659   7.335  20.562
   33AGAL    C133212   7.078   7.056  21.005
   33AGAL    H133213   6.967   7.044  20.997
   33AGAL    C533214   7.283   6.942  20.957
   33AGAL    H533215   7.315   7.043  20.920
   33AGAL    O533216   7.140   6.942  20.942
   33AGAL    C233217   7.118   7.056  21.151
   33AGAL    H233218   7.091   6.955  21.190
   33AGAL    O233219   7.035   7.149  21.224
   33AGAL    C333220   7.270   7.065  21.167
   33AGAL    H333221   7.309   7.152  21.108
   33AGAL    O333222   7.312   7.093  21.300
   33AGAL   HO333223   7.281   7.025  21.361
   33AGAL    C433224   7.331   6.940  21.102
   33AGAL    H433225   7.442   6.948  21.102
   33AGAL    O433226   7.302   6.816  21.166
   33AGAL   HO433227   7.227   6.817  21.225
   33AGAL    C633228   7.351   6.843  20.863
   33AGAL   H6133229   7.326   6.877  20.760
   33AGAL   H6233230   7.461   6.847  20.874
   33AGAL    O633231   7.313   6.706  20.877
   33AGAL   HO633232   7.235   6.684  20.824
   34ARHM    C133233   6.977   7.095  21.342
   34ARHM    H133234   7.057   7.047  21.402
   34ARHM    C533235   6.762   7.041  21.242
   34ARHM    H533236   6.799   7.071  21.142
   34ARHM    O533237   6.875   6.994  21.318
   34ARHM    C233238   6.918   7.212  21.417
   34ARHM    H233239   6.993   7.292  21.422
   34ARHM    O233240   6.879   7.182  21.554
   34ARHM    C333241   6.801   7.268  21.337
   34ARHM    H333242   6.837   7.299  21.236
   34ARHM    O333243   6.745   7.384  21.400
   34ARHM   HO333244   6.711   7.447  21.334
   34ARHM    C433245   6.698   7.159  21.315
   34ARHM    H433246   6.664   7.119  21.414
   34ARHM    O433247   6.586   7.209  21.244
   34ARHM   HO433248   6.530   7.261  21.303
   34ARHM    C633249   6.659   6.929  21.217
   34ARHM   H6133250   6.626   6.886  21.313
   34ARHM   H6233251   6.568   6.972  21.170
   34ARHM   H6333252   6.694   6.846  21.153
   35ARHM    C133253   6.976   7.129  21.642
   35ARHM    H133254   7.075   7.178  21.623
   35ARHM    C533255   6.861   6.918  21.657
   35ARHM    H533256   6.782   6.954  21.587
   35ARHM    O533257   6.986   6.985  21.630
   35ARHM    C233258   6.937   7.159  21.786
   35ARHM    H233259   6.928   7.269  21.800
   35ARHM    O233260   7.034   7.108  21.879
   35ARHM    C333261   6.803   7.096  21.818
   35ARHM    H333262   6.727   7.136  21.748
   35ARHM    O333263   6.758   7.133  21.948
   35ARHM   HO333264   6.832   7.140  22.010
   35ARHM    C433265   6.815   6.946  21.800
   35ARHM    H433266   6.891   6.904  21.870
   35ARHM    O433267   6.690   6.881  21.828
   35ARHM   HO433268   6.616   6.933  21.796
   35ARHM    C633269   6.879   6.768  21.622
   35ARHM   H6133270   6.896   6.752  21.514
   35ARHM   H6233271   6.965   6.726  21.679
   35ARHM   H6333272   6.785   6.713  21.647
   36BMANN   C133273   7.154   7.181  21.884
   36BMANN   H133274   7.138   7.285  21.849
   36BMANN   C533275   7.377   7.205  21.809
   36BMANN   H533276   7.351   7.310  21.780
   36BMANN   O533277   7.257   7.125  21.802
   36BMANN   C233278   7.201   7.180  22.029
   36BMANN   H233279   7.119   7.231  22.085
   36BMANN    N33280   7.220   7.047  22.088
   36BMANN   HN33281   7.256   6.977  22.027
   36BMANN    C33282   7.204   7.024  22.220
   36BMANN    O33283   7.162   7.106  22.300
   36BMANN   CT33284   7.246   6.887  22.269
   36BMANN  HT133285   7.342   6.858  22.222
   36BMANN  HT233286   7.170   6.810  22.248
   36BMANN  HT333287   7.258   6.892  22.379
   36BMANN   C333288   7.326   7.265  22.040
   36BMANN   H333289   7.304   7.367  22.001
   36BMANN   O333290   7.376   7.278  22.173
   36BMANN  HO333291   7.361   7.367  22.207
   36BMANN   C433292   7.432   7.208  21.950
   36BMANN   H433293   7.460   7.106  21.982
   36BMANN   O433294   7.550   7.285  21.958
   36BMANN  HO433295   7.573   7.284  22.052
   36BMANN   C633296   7.480   7.158  21.710
   36BMANN  H6133297   7.439   7.159  21.606
   36BMANN  H6233298   7.561   7.231  21.718
   36BMANN   O633299   7.538   7.032  21.741
   36BMANN  HO633300   7.613   7.044  21.800
    1ECLIP HB6S33301   5.992   8.203  11.776
    1ECLIP  OB633302   6.129   8.107  11.912
    1ECLIP  CB633303   6.103   8.187  11.794
    1ECLIP HB6R33304   6.157   8.275  11.818
    1ECLIP  CB533305   6.180   8.211  11.669
    1ECLIP  OB533306   6.165   8.080  11.627
    1ECLIP  HB533307   6.286   8.235  11.696
    1ECLIP  CB133308   6.239   8.059  11.510
    1ECLIP  HB133309   6.346   8.082  11.530
    1ECLIP  OA633310   6.230   7.926  11.468
    1ECLIP  CA633311   6.103   7.863  11.492
    1ECLIP HA6R33312   6.020   7.935  11.512
    1ECLIP HA6S33313   6.115   7.796  11.581
    1ECLIP  CB433314   6.130   8.317  11.567
    1ECLIP  HB433315   6.023   8.303  11.539
    1ECLIP  OB433316   6.153   8.449  11.615
    1ECLIP   PB33317   6.036   8.561  11.643
    1ECLIP OPB433318   6.089   8.619  11.774
    1ECLIP OPB333319   5.919   8.468  11.668
    1ECLIP OPB233320   6.024   8.656  11.528
    1ECLIP  CB333321   6.213   8.294  11.443
    1ECLIP  OB333322   6.176   8.372  11.329
    1ECLIP  HB333323   6.321   8.304  11.468
    1ECLIP  C7133324   6.233   8.492  11.313
    1ECLIP  O7133325   6.341   8.521  11.361
    1ECLIP  C7233326   6.189   8.545  11.174
    1ECLIP H72R33327   6.210   8.469  11.096
    1ECLIP H72S33328   6.245   8.638  11.153
    1ECLIP  CB233329   6.192   8.150  11.401
    1ECLIP  HB233330   6.081   8.135  11.387
    1ECLIP  NB233331   6.267   8.121  11.281
    1ECLIP HNB233332   6.360   8.088  11.293
    1ECLIP  CA433333   6.185   7.703  11.317
    1ECLIP  HA433334   6.263   7.778  11.290
    1ECLIP  OA433335   6.229   7.618  11.423
    1ECLIP HOA433336   6.248   7.679  11.495
    1ECLIP  CA533337   6.067   7.781  11.370
    1ECLIP  HA533338   5.980   7.716  11.393
    1ECLIP  OA533339   6.030   7.873  11.270
    1ECLIP  CA133340   5.989   7.812  11.146
    1ECLIP  HA133341   5.980   7.899  11.078
    1ECLIP  OA133342   5.865   7.744  11.151
    1ECLIP OPA233343   5.711   7.746  11.337
    1ECLIP OPA333344   5.766   7.971  11.223
    1ECLIP OPA433345   5.625   7.801  11.099
    1ECLIP   PA33346   5.732   7.823  11.206
    1ECLIP  CA333347   6.151   7.630  11.189
    1ECLIP  HA333348   6.073   7.553  11.209
    1ECLIP  OA333349   6.272   7.559  11.157
    1ECLIP  C3133350   6.370   7.620  11.087
    1ECLIP  O3133351   6.366   7.637  10.967
    1ECLIP  C3233352   6.501   7.624  11.166
    1ECLIP H32R33353   6.569   7.556  11.111
    1ECLIP H32S33354   6.484   7.578  11.265
    1ECLIP  CA233355   6.104   7.732  11.087
    1ECLIP  HA233356   6.185   7.806  11.070
    1ECLIP  NA233357   6.067   7.670  10.959
    1ECLIP HNA233358   6.094   7.575  10.949
    1ECLIP  C7333359   6.037   8.572  11.172
    1ECLIP H73R33360   6.010   8.629  11.264
    1ECLIP  O7333361   5.973   8.445  11.163
    1ECLIP  C8133362   5.859   8.426  11.229
    1ECLIP  O8133363   5.800   8.512  11.292
    1ECLIP  C8233364   5.791   8.300  11.170
    1ECLIP H82R33365   5.695   8.282  11.223
    1ECLIP H82S33366   5.855   8.212  11.192
    1ECLIP  C8333367   5.768   8.308  11.017
    1ECLIP H83R33368   5.863   8.282  10.965
    1ECLIP H83S33369   5.741   8.412  10.990
    1ECLIP  C8433370   5.662   8.209  10.966
    1ECLIP H84R33371   5.560   8.239  10.996
    1ECLIP H84S33372   5.686   8.110  11.013
    1ECLIP  C8533373   5.670   8.188  10.813
    1ECLIP H85R33374   5.779   8.181  10.791
    1ECLIP H85S33375   5.632   8.277  10.760
    1ECLIP  C8633376   5.607   8.055  10.765
    1ECLIP H86R33377   5.501   8.069  10.736
    1ECLIP H86S33378   5.607   7.982  10.849
    1ECLIP  C8733379   5.689   7.989  10.652
    1ECLIP H87R33380   5.635   7.898  10.616
    1ECLIP H87S33381   5.786   7.953  10.694
    1ECLIP  C8833382   5.722   8.085  10.538
    1ECLIP H88R33383   5.803   8.153  10.571
    1ECLIP H88S33384   5.634   8.152  10.524
    1ECLIP  C8933385   5.764   8.015  10.408
    1ECLIP H89R33386   5.799   7.911  10.426
    1ECLIP H89S33387   5.850   8.068  10.362
    1ECLIP C81033388   5.649   8.019  10.306
    1ECLIPH810R33389   5.590   8.110  10.329
    1ECLIPH810S33390   5.585   7.930  10.323
    1ECLIP C81133391   5.696   8.024  10.160
    1ECLIPH811R33392   5.616   7.991  10.090
    1ECLIPH811S33393   5.783   7.954  10.152
    1ECLIP C81233394   5.747   8.161  10.114
    1ECLIPH812R33395   5.796   8.146  10.016
    1ECLIPH812S33396   5.826   8.198  10.181
    1ECLIP C81333397   5.641   8.270  10.101
    1ECLIPH813R33398   5.563   8.237  10.029
    1ECLIPH813S33399   5.592   8.291  10.199
    1ECLIP C81433400   5.701   8.400  10.049
    1ECLIPH814R33401   5.764   8.386   9.958
    1ECLIPH814S33402   5.763   8.448  10.128
    1ECLIPH814T33403   5.618   8.468  10.022
    1ECLIP  C7433404   5.987   8.654  11.049
    1ECLIP H74R33405   6.030   8.755  11.041
    1ECLIP H74S33406   5.878   8.668  11.068
    1ECLIP  C7533407   5.998   8.579  10.914
    1ECLIP H75R33408   5.907   8.604  10.855
    1ECLIP H75S33409   5.994   8.469  10.933
    1ECLIP  C7633410   6.123   8.607  10.831
    1ECLIP H76R33411   6.209   8.552  10.874
    1ECLIP H76S33412   6.149   8.716  10.835
    1ECLIP  C7733413   6.107   8.566  10.682
    1ECLIP H77R33414   6.033   8.634  10.635
    1ECLIP H77S33415   6.074   8.464  10.668
    1ECLIP  C7833416   6.244   8.574  10.616
    1ECLIP H78R33417   6.261   8.679  10.644
    1ECLIP H78S33418   6.315   8.507  10.670
    1ECLIP  C7933419   6.262   8.548  10.466
    1ECLIP H79R33420   6.292   8.442  10.452
    1ECLIP H79S33421   6.344   8.607  10.421
    1ECLIP C71033422   6.140   8.580  10.382
    1ECLIPH710R33423   6.051   8.528  10.423
    1ECLIPH710S33424   6.122   8.690  10.386
    1ECLIP C71133425   6.157   8.539  10.238
    1ECLIPH711R33426   6.242   8.592  10.191
    1ECLIPH711S33427   6.173   8.429  10.230
    1ECLIP C71233428   6.029   8.571  10.165
    1ECLIPH712R33429   6.012   8.681  10.162
    1ECLIPH712S33430   5.943   8.527  10.221
    1ECLIP C71333431   6.037   8.509  10.028
    1ECLIPH713R33432   6.039   8.399  10.027
    1ECLIPH713S33433   5.933   8.526   9.998
    1ECLIP C71433434   6.147   8.569   9.936
    1ECLIPH714R33435   6.131   8.679   9.924
    1ECLIPH714S33436   6.250   8.547   9.966
    1ECLIPH714T33437   6.133   8.527   9.834
    1ECLIP  C5133438   6.217   8.143  11.159
    1ECLIP  O5133439   6.098   8.164  11.143
    1ECLIP  C5233440   6.312   8.148  11.042
    1ECLIP H52R33441   6.351   8.251  11.029
    1ECLIP H52S33442   6.397   8.081  11.061
    1ECLIP  C5333443   6.239   8.105  10.912
    1ECLIP H53R33444   6.164   8.026  10.935
    1ECLIP  O5333445   6.342   8.061  10.822
    1ECLIP  C6133446   6.347   7.932  10.789
    1ECLIP  O6133447   6.268   7.847  10.822
    1ECLIP  C6233448   6.466   7.907  10.695
    1ECLIP H62R33449   6.556   7.895  10.758
    1ECLIP H62S33450   6.479   8.000  10.637
    1ECLIP  C6333451   6.444   7.780  10.607
    1ECLIP H63R33452   6.341   7.785  10.564
    1ECLIP H63S33453   6.450   7.688  10.669
    1ECLIP  C6433454   6.540   7.765  10.487
    1ECLIP H64R33455   6.520   7.668  10.435
    1ECLIP H64S33456   6.643   7.763  10.528
    1ECLIP  C6533457   6.523   7.882  10.390
    1ECLIP H65R33458   6.550   7.971  10.450
    1ECLIP H65S33459   6.417   7.891  10.358
    1ECLIP  C6633460   6.611   7.886  10.263
    1ECLIP H66R33461   6.718   7.881  10.291
    1ECLIP H66S33462   6.591   7.985  10.216
    1ECLIP  C6733463   6.583   7.782  10.155
    1ECLIP H67R33464   6.584   7.678  10.195
    1ECLIP H67S33465   6.660   7.791  10.075
    1ECLIP  C6833466   6.448   7.790  10.088
    1ECLIP H68R33467   6.425   7.891  10.046
    1ECLIP H68S33468   6.373   7.763  10.165
    1ECLIP  C6933469   6.458   7.694   9.970
    1ECLIP H69R33470   6.521   7.605   9.982
    1ECLIP H69S33471   6.501   7.755   9.887
    1ECLIP C61033472   6.333   7.631   9.921
    1ECLIPH610R33473   6.258   7.713   9.938
    1ECLIPH610S33474   6.283   7.565   9.991
    1ECLIP C61133475   6.371   7.562   9.782
    1ECLIPH611R33476   6.404   7.464   9.789
    1ECLIPH611S33477   6.271   7.529   9.736
    1ECLIP C61233478   6.461   7.609   9.663
    1ECLIPH612R33479   6.357   7.626   9.629
    1ECLIPH612S33480   6.526   7.705   9.670
    1ECLIPH612T33481   6.378   7.617   9.594
    1ECLIP  C5433482   6.168   8.229  10.853
    1ECLIP H54R33483   6.247   8.302  10.824
    1ECLIP H54S33484   6.108   8.276  10.934
    1ECLIP  C5533485   6.075   8.205  10.733
    1ECLIP H55R33486   6.008   8.293  10.719
    1ECLIP H55S33487   6.008   8.120  10.756
    1ECLIP  C5633488   6.158   8.187  10.605
    1ECLIP H56R33489   6.229   8.103  10.622
    1ECLIP H56S33490   6.219   8.278  10.587
    1ECLIP  C5733491   6.085   8.150  10.477
    1ECLIP H57R33492   6.003   8.221  10.454
    1ECLIP H57S33493   6.038   8.050  10.491
    1ECLIP  C5833494   6.186   8.141  10.360
    1ECLIP H58R33495   6.253   8.229  10.358
    1ECLIP H58S33496   6.253   8.054  10.382
    1ECLIP  C5933497   6.117   8.127  10.223
    1ECLIP H59R33498   6.047   8.213  10.208
    1ECLIP H59S33499   6.055   8.035  10.232
    1ECLIP C51033500   6.212   8.130  10.101
    1ECLIPH510R33501   6.300   8.064  10.119
    1ECLIPH510S33502   6.251   8.234  10.088
    1ECLIP C51133503   6.149   8.091   9.966
    1ECLIPH511R33504   6.143   7.980   9.962
    1ECLIPH511S33505   6.045   8.129   9.959
    1ECLIP C51233506   6.226   8.147   9.843
    1ECLIPH512R33507   6.164   8.128   9.750
    1ECLIPH512S33508   6.254   8.252   9.850
    1ECLIP C51333509   6.359   8.081   9.817
    1ECLIPH513R33510   6.309   7.991   9.816
    1ECLIPH513S33511   6.432   8.054   9.893
    1ECLIP C51433512   6.420   8.112   9.682
    1ECLIPH514R33513   6.448   8.218   9.675
    1ECLIPH514S33514   6.513   8.051   9.676
    1ECLIPH514T33515   6.350   8.088   9.598
    1ECLIP  C3333516   6.572   7.762  11.182
    1ECLIP H33R33517   6.674   7.742  11.223
    1ECLIP  O3333518   6.502   7.837  11.280
    1ECLIP HO3333519   6.519   7.804  11.369
    1ECLIP  C3433520   6.588   7.850  11.056
    1ECLIP H34R33521   6.486   7.874  11.018
    1ECLIP H34S33522   6.639   7.793  10.977
    1ECLIP  C3533523   6.665   7.983  11.080
    1ECLIP H35R33524   6.770   7.962  11.111
    1ECLIP H35S33525   6.615   8.038  11.162
    1ECLIP  C3633526   6.670   8.074  10.956
    1ECLIP H36R33527   6.576   8.053  10.903
    1ECLIP H36S33528   6.755   8.049  10.889
    1ECLIP  C3733529   6.670   8.225  10.988
    1ECLIP H37R33530   6.776   8.257  11.003
    1ECLIP H37S33531   6.617   8.242  11.085
    1ECLIP  C3833532   6.606   8.315  10.880
    1ECLIP H38R33533   6.495   8.307  10.879
    1ECLIP H38S33534   6.629   8.421  10.905
    1ECLIP  C3933535   6.655   8.279  10.739
    1ECLIP H39R33536   6.637   8.171  10.718
    1ECLIP H39S33537   6.764   8.300  10.734
    1ECLIP C31033538   6.591   8.357  10.623
    1ECLIPH310R33539   6.629   8.461  10.633
    1ECLIPH310S33540   6.480   8.359  10.632
    1ECLIP C31133541   6.619   8.290  10.488
    1ECLIPH311R33542   6.720   8.244  10.489
    1ECLIPH311S33543   6.546   8.207  10.473
    1ECLIP C31233544   6.603   8.382  10.366
    1ECLIPH312R33545   6.521   8.455  10.385
    1ECLIPH312S33546   6.698   8.439  10.354
    1ECLIP C31333547   6.575   8.304  10.237
    1ECLIPH313R33548   6.670   8.252  10.211
    1ECLIPH313S33549   6.497   8.226  10.254
    1ECLIP C31433550   6.532   8.391  10.118
    1ECLIPH314R33551   6.612   8.466  10.096
    1ECLIPH314S33552   6.515   8.330  10.027
    1ECLIPH314T33553   6.438   8.446  10.141
    1ECLIP  C1133554   5.988   7.723  10.862
    1ECLIP  O1133555   5.965   7.842  10.846
    1ECLIP  C1233556   5.927   7.621  10.769
    1ECLIP H12R33557   5.820   7.612  10.792
    1ECLIP H12S33558   5.977   7.524  10.788
    1ECLIP  C1333559   5.945   7.657  10.622
    1ECLIP H13R33560   5.926   7.765  10.601
    1ECLIP  O1333561   5.851   7.580  10.548
    1ECLIP HO1333562   5.822   7.620  10.465
    1ECLIP  C1433563   6.090   7.622  10.580
    1ECLIP H14R33564   6.123   7.529  10.632
    1ECLIP H14S33565   6.153   7.707  10.614
    1ECLIP  C1533566   6.114   7.604  10.431
    1ECLIP H15R33567   6.045   7.526  10.393
    1ECLIP H15S33568   6.218   7.564  10.419
    1ECLIP  C1633569   6.097   7.735  10.354
    1ECLIP H16R33570   6.188   7.798  10.364
    1ECLIP H16S33571   6.016   7.794  10.401
    1ECLIP  C1733572   6.069   7.709  10.207
    1ECLIP H17R33573   6.140   7.629  10.175
    1ECLIP H17S33574   6.088   7.798  10.144
    1ECLIP  C1833575   5.925   7.661  10.187
    1ECLIP H18R33576   5.910   7.570  10.248
    1ECLIP H18S33577   5.853   7.741  10.217
    1ECLIP  C1933578   5.899   7.625  10.044
    1ECLIP H19R33579   5.798   7.577  10.032
    1ECLIP H19S33580   5.975   7.553  10.005
    1ECLIP C11033581   5.908   7.752   9.963
    1ECLIPH110R33582   5.831   7.830   9.987
    1ECLIPH110S33583   6.010   7.793   9.958
    1ECLIP C11133584   5.889   7.700   9.827
    1ECLIPH111R33585   5.942   7.606   9.815
    1ECLIPH111S33586   5.787   7.666   9.844
    1ECLIP C11233587   5.905   7.805   9.718
    1ECLIPH112R33588   5.822   7.848   9.775
    1ECLIPH112S33589   5.994   7.868   9.724
    1ECLIP C11333590   5.871   7.779   9.568
    1ECLIPH113R33591   5.958   7.719   9.531
    1ECLIPH113S33592   5.766   7.742   9.578
    1ECLIP C11433593   5.830   7.839   9.440
    1ECLIPH114R33594   5.747   7.913   9.454
    1ECLIPH114S33595   5.932   7.874   9.413
    1ECLIPH114T33596   5.797   7.787   9.350
    2AKDO    C133597   6.369   8.169  11.990
    2AKDO   O1133598   6.431   8.280  11.990
    2AKDO   O1233599   6.403   8.084  11.911
    2AKDO    C233600   6.201   8.153  12.029
    2AKDO    C633601   5.992   8.250  12.129
    2AKDO    H633602   5.959   8.203  12.034
    2AKDO    O633603   6.128   8.268  12.100
    2AKDO    C333604   6.188   8.054  12.125
    2AKDO   H3133605   6.247   8.080  12.204
    2AKDO   H3233606   6.238   7.968  12.081
    2AKDO    C433607   6.053   8.023  12.169
    2AKDO    H433608   5.995   7.994  12.082
    2AKDO    O433609   6.057   7.928  12.273
    2AKDO    C533610   5.988   8.137  12.231
    2AKDO    H533611   5.882   8.104  12.243
    2AKDO    O533612   6.061   8.162  12.354
    2AKDO    C733613   5.897   8.368  12.145
    2AKDO    H733614   5.923   8.422  12.239
    2AKDO    O733615   5.768   8.303  12.128
    2AKDO   HO733616   5.699   8.356  12.085
    2AKDO    C833617   5.894   8.495  12.071
    2AKDO   H8133618   5.999   8.520  12.055
    2AKDO   H8233619   5.831   8.468  11.980
    2AKDO    O833620   5.871   8.620  12.130
    2AKDO   HO833621   5.873   8.680  12.053
    3AKDO    C133622   5.989   7.757  12.116
    3AKDO   O1133623   6.045   7.753  12.002
    3AKDO   O1233624   5.868   7.738  12.145
    3AKDO    C233625   6.080   7.795  12.237
    3AKDO    C633626   6.309   7.806  12.315
    3AKDO    H633627   6.299   7.916  12.335
    3AKDO    O633628   6.219   7.767  12.209
    3AKDO    C333629   6.044   7.723  12.369
    3AKDO   H3133630   6.053   7.614  12.350
    3AKDO   H3233631   5.938   7.740  12.396
    3AKDO    C433632   6.135   7.767  12.480
    3AKDO    H433633   6.132   7.879  12.484
    3AKDO    O433634   6.102   7.717  12.609
    3AKDO   HO433635   6.086   7.789  12.671
    3AKDO    C533636   6.275   7.730  12.441
    3AKDO    H533637   6.342   7.760  12.524
    3AKDO    O533638   6.292   7.589  12.421
    3AKDO   HO533639   6.221   7.564  12.361
    3AKDO    C733640   6.451   7.781  12.270
    3AKDO    H733641   6.462   7.672  12.249
    3AKDO    O733642   6.540   7.818  12.375
    3AKDO   HO733643   6.629   7.788  12.349
    3AKDO    C833644   6.481   7.863  12.146
    3AKDO   H8133645   6.404   7.840  12.069
    3AKDO   H8233646   6.474   7.970  12.169
    3AKDO    O833647   6.611   7.836  12.089
    3AKDO   HO833648   6.596   7.747  12.058
    4AHEP    C133649   5.988   8.190  12.465
    4AHEP    H133650   6.000   8.289  12.414
    4AHEP    C533651   5.834   8.018  12.551
    4AHEP    H533652   5.905   7.959  12.495
    4AHEP    O533653   5.859   8.127  12.476
    4AHEP    C233654   6.022   8.238  12.583
    4AHEP    H233655   6.119   8.288  12.552
    4AHEP    O233656   5.954   8.369  12.603
    4AHEP   HO233657   5.963   8.407  12.693
    4AHEP    C333658   6.017   8.105  12.685
    4AHEP    H333659   6.087   8.031  12.641
    4AHEP    O333660   6.047   8.110  12.830
    4AHEP    C433661   5.871   8.054  12.686
    4AHEP    H433662   5.788   8.115  12.730
    4AHEP    O433663   5.875   7.926  12.745
    4AHEP    P433664   5.800   7.895  12.888
    4AHEP  OP4233665   5.894   7.792  12.950
    4AHEP  OP4333666   5.670   7.840  12.832
    4AHEP  OP4433667   5.784   8.026  12.965
    4AHEP    C633668   5.685   7.973  12.520
    4AHEP    H633669   5.691   7.866  12.545
    4AHEP    O633670   5.580   8.029  12.602
    4AHEP   HO633671   5.549   7.963  12.666
    4AHEP    C733672   5.633   7.981  12.373
    4AHEP   H7133673   5.547   7.911  12.357
    4AHEP   H7233674   5.713   7.951  12.302
    4AHEP    O733675   5.586   8.110  12.330
    4AHEP   HO733676   5.498   8.120  12.370
    5AHEP    C133677   6.164   8.071  12.899
    5AHEP    H133678   6.191   7.976  12.848
    5AHEP    C533679   6.257   8.296  12.967
    5AHEP    H533680   6.153   8.318  12.944
    5AHEP    O533681   6.281   8.162  12.911
    5AHEP    C233682   6.124   8.062  13.045
    5AHEP    H233683   6.032   8.000  13.048
    5AHEP    O233684   6.229   7.992  13.112
    5AHEP   HO233685   6.211   7.898  13.096
    5AHEP    C333686   6.089   8.201  13.114
    5AHEP    H333687   6.001   8.249  13.065
    5AHEP    O333688   6.080   8.184  13.260
    5AHEP    C433689   6.213   8.291  13.114
    5AHEP    H433690   6.262   8.213  13.164
    5AHEP    O433691   6.222   8.410  13.198
    5AHEP    P433692   6.340   8.511  13.282
    5AHEP  OP4233693   6.229   8.583  13.358
    5AHEP  OP4333694   6.458   8.534  13.196
    5AHEP  OP4433695   6.424   8.433  13.380
    5AHEP    C633696   6.356   8.398  12.885
    5AHEP    H633697   6.294   8.482  12.868
    5AHEP    O633698   6.480   8.421  12.945
    5AHEP   HO633699   6.527   8.335  12.922
    5AHEP    C733700   6.374   8.445  12.738
    5AHEP   H7133701   6.401   8.554  12.729
    5AHEP   H7233702   6.282   8.457  12.683
    5AHEP    O733703   6.460   8.361  12.666
    6AHEP    C133704   6.419   8.234  12.616
    6AHEP    H133705   6.314   8.212  12.600
    6AHEP    C533706   6.572   8.276  12.442
    6AHEP    H533707   6.588   8.366  12.497
    6AHEP    O533708   6.449   8.270  12.492
    6AHEP    C233709   6.485   8.091  12.633
    6AHEP    H233710   6.466   8.042  12.730
    6AHEP    O233711   6.408   7.984  12.588
    6AHEP   HO233712   6.386   7.940  12.672
    6AHEP    C333713   6.639   8.106  12.604
    6AHEP    H333714   6.678   8.190  12.662
    6AHEP    O333715   6.735   8.012  12.648
    6AHEP   HO333716   6.764   8.031  12.739
    6AHEP    C433717   6.639   8.147  12.459
    6AHEP    H433718   6.594   8.063  12.405
    6AHEP    O433719   6.758   8.168  12.394
    6AHEP   HO433720   6.781   8.259  12.423
    6AHEP    C633721   6.560   8.311  12.292
    6AHEP    H633722   6.653   8.337  12.239
    6AHEP    O633723   6.539   8.204  12.205
    6AHEP   HO633724   6.472   8.226  12.139
    6AHEP    C733725   6.474   8.431  12.280
    6AHEP   H7133726   6.491   8.511  12.220
    6AHEP   H7233727   6.508   8.504  12.346
    6AHEP    O733728   6.342   8.430  12.254
    6AHEP   HO733729   6.310   8.442  12.346
    7AGLC    C133730   5.954   8.150  13.309
    7AGLC    H133731   5.883   8.194  13.236
    7AGLC    C533732   5.988   7.926  13.349
    7AGLC    H533733   6.094   7.941  13.321
    7AGLC    O533734   5.916   8.023  13.278
    7AGLC    C233735   5.932   8.167  13.471
    7AGLC    H233736   5.828   8.142  13.484
    7AGLC    O233737   5.927   8.292  13.551
    7AGLC   HO233738   6.016   8.335  13.537
    7AGLC    C333739   6.019   8.066  13.544
    7AGLC    H333740   6.120   8.056  13.494
    7AGLC    O333741   6.044   8.108  13.687
    7AGLC    C433742   5.968   7.939  13.500
    7AGLC    H433743   5.861   7.936  13.531
    7AGLC    O433744   6.056   7.852  13.564
    7AGLC   HO433745   6.004   7.783  13.605
    7AGLC    C633746   5.942   7.800  13.286
    7AGLC   H6133747   5.959   7.807  13.176
    7AGLC   H6233748   6.001   7.715  13.325
    7AGLC    O633749   5.804   7.778  13.310
    7AGLC   HO633750   5.791   7.724  13.387
    8AGLC    C133751   6.179   8.137  13.747
    8AGLC    H133752   6.248   8.069  13.695
    8AGLC    C533753   6.164   8.388  13.776
    8AGLC    H533754   6.082   8.339  13.727
    8AGLC    O533755   6.243   8.275  13.736
    8AGLC    C233756   6.168   8.130  13.892
    8AGLC    H233757   6.274   8.146  13.921
    8AGLC    O233758   6.128   8.003  13.937
    8AGLC    C333759   6.081   8.234  13.950
    8AGLC    H333760   5.987   8.219  13.903
    8AGLC    O333761   6.078   8.199  14.090
    8AGLC    C433762   6.143   8.364  13.916
    8AGLC    H433763   6.239   8.347  13.965
    8AGLC    O433764   6.078   8.485  13.949
    8AGLC   HO433765   5.986   8.477  13.982
    8AGLC    C633766   6.153   8.543  13.716
    8AGLC   H6133767   6.160   8.545  13.606
    8AGLC   H6233768   6.068   8.609  13.739
    8AGLC    O633769   6.220   8.654  13.766
    8AGLC   HO633770   6.273   8.645  13.847
    9AGAL    C133771   6.199   7.896  13.881
    9AGAL    H133772   6.199   7.897  13.771
    9AGAL    C533773   6.345   7.874  14.065
    9AGAL    H533774   6.282   7.953  14.112
    9AGAL    O533775   6.336   7.892  13.923
    9AGAL    C233776   6.121   7.774  13.921
    9AGAL    H233777   6.174   7.689  13.873
    9AGAL    O233778   5.990   7.786  13.857
    9AGAL    C333779   6.128   7.755  14.071
    9AGAL    H333780   6.083   7.842  14.125
    9AGAL    O333781   6.052   7.642  14.112
    9AGAL   HO333782   5.974   7.643  14.056
    9AGAL    C433783   6.276   7.744  14.107
    9AGAL    H433784   6.288   7.731  14.216
    9AGAL    O433785   6.337   7.630  14.046
    9AGAL   HO433786   6.415   7.603  14.097
    9AGAL    C633787   6.485   7.897  14.122
    9AGAL   H6133788   6.517   8.000  14.098
    9AGAL   H6233789   6.482   7.890  14.232
    9AGAL    O633790   6.585   7.807  14.077
    9AGAL   HO633791   6.632   7.841  14.002
   10AGAL    C133792   5.867   7.742  13.910
   10AGAL    H133793   5.867   7.631  13.918
   10AGAL    C533794   5.817   7.934  14.039
   10AGAL    H533795   5.912   7.978  13.998
   10AGAL    O533796   5.833   7.792  14.040
   10AGAL    C233797   5.759   7.782  13.811
   10AGAL    H233798   5.662   7.742  13.849
   10AGAL    O233799   5.772   7.716  13.685
   10AGAL   HO233800   5.682   7.689  13.661
   10AGAL    C333801   5.747   7.933  13.807
   10AGAL    H333802   5.847   7.977  13.782
   10AGAL    O333803   5.655   7.976  13.707
   10AGAL   HO333804   5.702   8.027  13.642
   10AGAL    C433805   5.706   7.978  13.945
   10AGAL    H433806   5.690   8.084  13.957
   10AGAL    O433807   5.579   7.929  13.982
   10AGAL   HO433808   5.590   7.837  13.998
   10AGAL    C633809   5.808   7.996  14.174
   10AGAL   H6133810   5.887   7.967  14.246
   10AGAL   H6233811   5.831   8.097  14.137
   10AGAL    O633812   5.681   7.993  14.241
   10AGAL   HO633813   5.688   7.954  14.328
   11BGLC    C133814   6.172   8.248  14.183
   11BGLC    H133815   6.147   8.348  14.190
   11BGLC    C533816   6.400   8.291  14.237
   11BGLC    H533817   6.387   8.399  14.251
   11BGLC    O533818   6.308   8.234  14.142
   11BGLC    C233819   6.154   8.186  14.318
   11BGLC    H233820   6.171   8.077  14.306
   11BGLC    O233821   6.028   8.204  14.373
   11BGLC   HO233822   5.973   8.127  14.356
   11BGLC    C333823   6.242   8.241  14.423
   11BGLC    H333824   6.222   8.348  14.443
   11BGLC    O333825   6.224   8.158  14.542
   11BGLC    C433826   6.378   8.221  14.366
   11BGLC    H433827   6.394   8.113  14.350
   11BGLC    O433828   6.477   8.259  14.451
   11BGLC   HO433829   6.470   8.205  14.533
   11BGLC    C633830   6.537   8.280  14.180
   11BGLC   H6133831   6.623   8.302  14.250
   11BGLC   H6233832   6.558   8.192  14.124
   11BGLC    O633833   6.543   8.373  14.080
   11BGLC   HO633834   6.579   8.444  14.138
   12BGLCN   C133835   6.198   8.211  14.669
   12BGLCN   H133836   6.096   8.235  14.675
   12BGLCN   C533837   6.232   8.396  14.813
   12BGLCN   H533838   6.122   8.403  14.833
   12BGLCN   O533839   6.259   8.337  14.687
   12BGLCN   C233840   6.237   8.108  14.775
   12BGLCN   H233841   6.341   8.084  14.792
   12BGLCN    N33842   6.170   7.985  14.742
   12BGLCN   HN33843   6.071   7.988  14.731
   12BGLCN    C33844   6.242   7.873  14.727
   12BGLCN    O33845   6.362   7.871  14.746
   12BGLCN   CT33846   6.169   7.749  14.689
   12BGLCN  HT133847   6.169   7.680  14.776
   12BGLCN  HT233848   6.222   7.698  14.607
   12BGLCN  HT333849   6.065   7.774  14.659
   12BGLCN   C333850   6.204   8.161  14.912
   12BGLCN   H333851   6.097   8.155  14.905
   12BGLCN   O333852   6.234   8.066  15.019
   12BGLCN   C433853   6.281   8.306  14.914
   12BGLCN   H433854   6.383   8.303  14.884
   12BGLCN   O433855   6.296   8.395  15.022
   12BGLCN  HO433856   6.206   8.419  15.051
   12BGLCN   C633857   6.320   8.525  14.813
   12BGLCN  H6133858   6.300   8.588  14.905
   12BGLCN  H6233859   6.428   8.503  14.817
   12BGLCN   O633860   6.297   8.598  14.693
   12BGLCN  HO633861   6.213   8.651  14.692
   13AGAL    C133862   6.139   8.025  15.124
   13AGAL    H133863   6.081   8.097  15.182
   13AGAL    C533864   6.077   7.813  15.062
   13AGAL    H533865   6.161   7.824  14.990
   13AGAL    O533866   6.030   7.945  15.079
   13AGAL    C233867   6.200   7.971  15.253
   13AGAL    H233868   6.111   7.959  15.321
   13AGAL    O233869   6.292   8.061  15.320
   13AGAL    C333870   6.254   7.835  15.226
   13AGAL    H333871   6.322   7.840  15.139
   13AGAL    O333872   6.327   7.782  15.336
   13AGAL   HO333873   6.405   7.740  15.301
   13AGAL    C433874   6.136   7.750  15.188
   13AGAL    H433875   6.174   7.649  15.160
   13AGAL    O433876   6.045   7.732  15.297
   13AGAL   HO433877   6.016   7.816  15.337
   13AGAL    C633878   5.980   7.725  14.989
   13AGAL   H6133879   5.947   7.776  14.896
   13AGAL   H6233880   6.033   7.630  14.965
   13AGAL    O633881   5.865   7.693  15.065
   13AGAL   HO633882   5.886   7.626  15.132
   14ARHM    C133883   6.254   8.121  15.442
   14ARHM    H133884   6.141   8.130  15.441
   14ARHM    C533885   6.463   8.265  15.460
   14ARHM    H533886   6.502   8.212  15.371
   14ARHM    O533887   6.315   8.253  15.476
   14ARHM    C233888   6.313   8.024  15.533
   14ARHM    H233889   6.275   7.924  15.505
   14ARHM    O233890   6.262   8.006  15.658
   14ARHM    C333891   6.468   8.034  15.521
   14ARHM    H333892   6.496   8.005  15.418
   14ARHM    O333893   6.522   7.936  15.610
   14ARHM   HO333894   6.501   7.955  15.703
   14ARHM    C433895   6.532   8.177  15.551
   14ARHM    H433896   6.515   8.260  15.625
   14ARHM    O433897   6.670   8.178  15.586
   14ARHM   HO433898   6.681   8.211  15.677
   14ARHM    C633899   6.502   8.414  15.480
   14ARHM   H6133900   6.469   8.487  15.412
   14ARHM   H6233901   6.475   8.455  15.579
   14ARHM   H6333902   6.603   8.438  15.447
   15ARHM    C133903   6.160   8.080  15.696
   15ARHM    H133904   6.076   8.035  15.632
   15ARHM    C533905   6.207   8.309  15.781
   15ARHM    H533906   6.306   8.341  15.762
   15ARHM    O533907   6.143   8.231  15.671
   15ARHM    C233908   6.114   8.018  15.840
   15ARHM    H233909   6.153   7.914  15.853
   15ARHM    O233910   5.970   7.996  15.862
   15ARHM    C333911   6.193   8.106  15.947
   15ARHM    H333912   6.298   8.109  15.930
   15ARHM    O333913   6.175   8.053  16.078
   15ARHM    C433914   6.163   8.258  15.932
   15ARHM    H433915   6.065   8.256  15.988
   15ARHM    O433916   6.231   8.340  16.013
   15ARHM   HO433917   6.170   8.417  16.032
   15ARHM    C633918   6.136   8.452  15.768
   15ARHM   H6133919   6.149   8.539  15.836
   15ARHM   H6233920   6.121   8.490  15.665
   15ARHM   H6333921   6.036   8.432  15.803
   16BMANN   C133922   5.909   7.988  15.988
   16BMANN   H133923   5.941   8.066  16.061
   16BMANN   C533924   5.891   7.832  16.159
   16BMANN   H533925   5.917   7.913  16.232
   16BMANN   O533926   5.948   7.862  16.034
   16BMANN   C233927   5.757   7.991  15.970
   16BMANN   H233928   5.737   8.097  15.948
   16BMANN    N33929   5.705   7.909  15.862
   16BMANN   HN33930   5.678   7.819  15.893
   16BMANN    C33931   5.687   7.944  15.733
   16BMANN    O33932   5.711   8.055  15.688
   16BMANN   CT33933   5.639   7.836  15.640
   16BMANN  HT133934   5.530   7.843  15.624
   16BMANN  HT233935   5.661   7.737  15.677
   16BMANN  HT333936   5.693   7.842  15.545
   16BMANN   C333937   5.691   7.958  16.102
   16BMANN   H333938   5.720   8.033  16.179
   16BMANN   O333939   5.549   7.960  16.095
   16BMANN  HO333940   5.515   8.028  16.156
   16BMANN   C433941   5.741   7.825  16.149
   16BMANN   H433942   5.712   7.747  16.074
   16BMANN   O433943   5.688   7.786  16.275
   16BMANN  HO433944   5.689   7.690  16.279
   16BMANN   C633945   5.950   7.705  16.212
   16BMANN  H6133946   5.948   7.711  16.322
   16BMANN  H6233947   5.888   7.619  16.179
   16BMANN   O633948   6.085   7.679  16.174
   16BMANN  HO633949   6.087   7.596  16.125
   17BGLCN   C133950   6.293   8.059  16.152
   17BGLCN   H133951   6.342   8.158  16.136
   17BGLCN   C533952   6.504   7.953  16.193
   17BGLCN   H533953   6.561   8.047  16.172
   17BGLCN   O533954   6.383   7.955  16.115
   17BGLCN   C233955   6.248   8.042  16.292
   17BGLCN   H233956   6.201   7.943  16.310
   17BGLCN    N33957   6.148   8.138  16.323
   17BGLCN   HN33958   6.151   8.224  16.274
   17BGLCN    C33959   6.057   8.122  16.417
   17BGLCN    O33960   6.030   8.023  16.483
   17BGLCN   CT33961   5.997   8.250  16.442
   17BGLCN  HT133962   5.914   8.267  16.367
   17BGLCN  HT233963   6.077   8.322  16.433
   17BGLCN  HT333964   5.970   8.273  16.545
   17BGLCN   C333965   6.371   8.054  16.376
   17BGLCN   H333966   6.419   8.149  16.342
   17BGLCN   O333967   6.331   8.061  16.513
   17BGLCN   C433968   6.464   7.940  16.340
   17BGLCN   H433969   6.407   7.845  16.350
   17BGLCN   O433970   6.578   7.934  16.426
   17BGLCN  HO433971   6.630   7.855  16.407
   17BGLCN   C633972   6.592   7.836  16.149
   17BGLCN  H6133973   6.698   7.865  16.153
   17BGLCN  H6233974   6.577   7.750  16.217
   17BGLCN   O633975   6.565   7.789  16.018
   17BGLCN  HO633976   6.572   7.861  15.954
   18AGAL    C133977   6.417   8.142  16.588
   18AGAL    H133978   6.514   8.091  16.609
   18AGAL    C533979   6.340   8.352  16.514
   18AGAL    H533980   6.259   8.293  16.471
   18AGAL    O533981   6.450   8.264  16.523
   18AGAL    C233982   6.363   8.173  16.722
   18AGAL    H233983   6.446   8.241  16.751
   18AGAL    O233984   6.348   8.060  16.809
   18AGAL    C333985   6.242   8.254  16.719
   18AGAL    H333986   6.163   8.216  16.650
   18AGAL    O333987   6.179   8.256  16.844
   18AGAL   HO333988   6.082   8.258  16.834
   18AGAL    C433989   6.284   8.386  16.657
   18AGAL    H433990   6.183   8.423  16.661
   18AGAL    O433991   6.351   8.488  16.732
   18AGAL   HO433992   6.308   8.522  16.813
   18AGAL    C633993   6.380   8.449  16.400
   18AGAL   H6133994   6.401   8.396  16.306
   18AGAL   H6233995   6.312   8.522  16.365
   18AGAL    O633996   6.448   8.566  16.432
   18AGAL   HO633997   6.514   8.534  16.495
   19ARHM    C133998   6.377   8.089  16.942
   19ARHM    H133999   6.324   8.174  16.980
   19ARHM    C534000   6.572   7.966  16.954
   19ARHM    H534001   6.546   7.932  16.852
   19ARHM    O534002   6.518   8.095  16.956
   19ARHM    C234003   6.306   8.013  17.048
   19ARHM    H234004   6.197   8.020  17.026
   19ARHM    O234005   6.330   8.058  17.185
   19ARHM    C334006   6.358   7.880  17.034
   19ARHM    H334007   6.344   7.851  16.927
   19ARHM    O334008   6.281   7.797  17.116
   19ARHM   HO334009   6.280   7.834  17.204
   19ARHM    C434010   6.506   7.881  17.060
   19ARHM    H434011   6.526   7.916  17.164
   19ARHM    O434012   6.558   7.752  17.052
   19ARHM   HO434013   6.544   7.717  16.963
   19ARHM    C634014   6.726   7.968  16.963
   19ARHM   H6134015   6.761   8.037  16.884
   19ARHM   H6234016   6.768   8.001  17.060
   19ARHM   H6334017   6.767   7.866  16.942
   20ARHM    C134018   6.270   8.180  17.217
   20ARHM    H134019   6.216   8.218  17.133
   20ARHM    C534020   6.428   8.312  17.329
   20ARHM    H534021   6.490   8.223  17.363
   20ARHM    O534022   6.349   8.298  17.215
   20ARHM    C234023   6.179   8.158  17.337
   20ARHM    H234024   6.137   8.054  17.327
   20ARHM    O234025   6.074   8.244  17.386
   20ARHM    C334026   6.272   8.164  17.453
   20ARHM    H334027   6.342   8.079  17.436
   20ARHM    O334028   6.192   8.138  17.568
   20ARHM    C434029   6.347   8.307  17.442
   20ARHM    H434030   6.268   8.375  17.455
   20ARHM    O434031   6.441   8.379  17.521
   20ARHM   HO434032   6.519   8.323  17.540
   20ARHM    C634033   6.522   8.434  17.315
   20ARHM   H6134034   6.458   8.521  17.329
   20ARHM   H6234035   6.609   8.432  17.387
   20ARHM   H6334036   6.553   8.458  17.218
   21BMANN   C134037   5.958   8.238  17.312
   21BMANN   H134038   5.964   8.135  17.273
   21BMANN   C534039   5.820   8.323  17.124
   21BMANN   H534040   5.818   8.230  17.062
   21BMANN   O534041   5.930   8.347  17.217
   21BMANN   C234042   5.846   8.222  17.392
   21BMANN   H234043   5.870   8.127  17.447
   21BMANN    N34044   5.831   8.336  17.478
   21BMANN   HN34045   5.826   8.427  17.435
   21BMANN    C34046   5.799   8.307  17.607
   21BMANN    O34047   5.789   8.193  17.644
   21BMANN   CT34048   5.743   8.421  17.688
   21BMANN  HT134049   5.669   8.496  17.657
   21BMANN  HT234050   5.818   8.468  17.637
   21BMANN  HT334051   5.768   8.433  17.794
   21BMANN   C334052   5.734   8.194  17.297
   21BMANN   H334053   5.769   8.111  17.231
   21BMANN   O334054   5.624   8.136  17.356
   21BMANN  HO334055   5.587   8.210  17.407
   21BMANN   C434056   5.702   8.304  17.205
   21BMANN   H434057   5.654   8.393  17.248
   21BMANN   O434058   5.608   8.256  17.121
   21BMANN  HO434059   5.533   8.317  17.119
   21BMANN   C634060   5.808   8.413  17.007
   21BMANN  H6134061   5.742   8.378  16.925
   21BMANN  H6234062   5.783   8.504  17.055
   21BMANN   O634063   5.902   8.494  16.955
   21BMANN  HO634064   5.970   8.525  17.016
   22BGLCN   C134065   6.229   8.041  17.662
   22BGLCN   H134066   6.335   8.016  17.660
   22BGLCN   C534067   6.245   7.826  17.744
   22BGLCN   H534068   6.357   7.836  17.747
   22BGLCN   O534069   6.189   7.910  17.640
   22BGLCN   C234070   6.182   8.098  17.793
   22BGLCN   H234071   6.070   8.097  17.790
   22BGLCN    N34072   6.224   8.237  17.809
   22BGLCN   HN34073   6.317   8.257  17.782
   22BGLCN    C34074   6.172   8.350  17.850
   22BGLCN    O34075   6.067   8.389  17.880
   22BGLCN   CT34076   6.239   8.464  17.870
   22BGLCN  HT134077   6.185   8.524  17.791
   22BGLCN  HT234078   6.346   8.459  17.857
   22BGLCN  HT334079   6.207   8.514  17.966
   22BGLCN   C334080   6.239   8.007  17.901
   22BGLCN   H334081   6.348   7.998  17.898
   22BGLCN   O334082   6.203   8.049  18.029
   22BGLCN   C434083   6.191   7.871  17.879
   22BGLCN   H434084   6.081   7.876  17.875
   22BGLCN   O434085   6.231   7.790  17.989
   22BGLCN  HO434086   6.165   7.725  18.010
   22BGLCN   C634087   6.208   7.687  17.713
   22BGLCN  H6134088   6.215   7.627  17.806
   22BGLCN  H6234089   6.102   7.686  17.681
   22BGLCN   O634090   6.296   7.628  17.618
   22BGLCN  HO634091   6.294   7.678  17.535
   23AGAL    C134092   6.268   8.034  18.153
   23AGAL    H134093   6.232   7.938  18.191
   23AGAL    C534094   6.463   8.166  18.135
   23AGAL    H534095   6.390   8.200  18.060
   23AGAL    O534096   6.411   8.034  18.153
   23AGAL    C234097   6.223   8.132  18.259
   23AGAL    H234098   6.274   8.105  18.354
   23AGAL    O234099   6.080   8.133  18.286
   23AGAL    C334100   6.283   8.269  18.232
   23AGAL    H334101   6.266   8.321  18.135
   23AGAL    O334102   6.218   8.362  18.302
   23AGAL   HO334103   6.222   8.349  18.396
   23AGAL    C434104   6.430   8.267  18.242
   23AGAL    H434105   6.464   8.372  18.234
   23AGAL    O434106   6.485   8.227  18.362
   23AGAL   HO434107   6.568   8.188  18.329
   23AGAL    C634108   6.610   8.157  18.090
   23AGAL   H6134109   6.621   8.075  18.015
   23AGAL   H6234110   6.648   8.244  18.030
   23AGAL    O634111   6.697   8.126  18.195
   23AGAL   HO634112   6.782   8.118  18.149
   24ARHM    C134113   6.026   8.035  18.369
   24ARHM    H134114   6.102   7.956  18.377
   24ARHM    C534115   5.794   8.056  18.305
   24ARHM    H534116   5.827   8.130  18.229
   24ARHM    O534117   5.908   7.969  18.318
   24ARHM    C234118   6.003   8.099  18.504
   24ARHM    H234119   6.093   8.160  18.535
   24ARHM    O234120   5.958   8.010  18.603
   24ARHM    C334121   5.891   8.190  18.483
   24ARHM    H334122   5.949   8.261  18.420
   24ARHM    O334123   5.857   8.290  18.569
   24ARHM   HO334124   5.795   8.241  18.628
   24ARHM    C434125   5.762   8.117  18.442
   24ARHM    H434126   5.741   8.036  18.514
   24ARHM    O434127   5.643   8.195  18.464
   24ARHM   HO434128   5.554   8.164  18.434
   24ARHM    C634129   5.674   7.985  18.239
   24ARHM   H6134130   5.604   8.055  18.192
   24ARHM   H6234131   5.710   7.920  18.157
   24ARHM   H6334132   5.609   7.935  18.311
   25ARHM    C134133   6.063   7.936  18.654
   25ARHM    H134134   6.150   7.943  18.584
   25ARHM    C534135   5.928   7.772  18.756
   25ARHM    H534136   5.836   7.824  18.722
   25ARHM    O534137   6.035   7.797  18.663
   25ARHM    C234138   6.101   7.998  18.784
   25ARHM    H234139   6.110   8.109  18.774
   25ARHM    O234140   6.226   7.942  18.826
   25ARHM    C334141   5.989   7.970  18.881
   25ARHM    H334142   5.896   8.014  18.842
   25ARHM    O334143   6.016   8.022  19.010
   25ARHM    C434144   5.964   7.824  18.893
   25ARHM    H434145   6.057   7.772  18.927
   25ARHM    O434146   5.860   7.799  18.987
   25ARHM   HO434147   5.886   7.723  19.039
   25ARHM    C634148   5.894   7.622  18.759
   25ARHM   H6134149   5.875   7.589  18.656
   25ARHM   H6234150   5.977   7.563  18.803
   25ARHM   H6334151   5.802   7.604  18.818
   26BMANN   C134152   6.338   8.000  18.764
   26BMANN   H134153   6.314   8.101  18.722
   26BMANN   C534154   6.505   7.982  18.595
   26BMANN   H534155   6.471   8.081  18.556
   26BMANN   O534156   6.392   7.918  18.658
   26BMANN   C234157   6.440   8.017  18.871
   26BMANN   H234158   6.393   8.083  18.949
   26BMANN    N34159   6.476   7.888  18.929
   26BMANN   HN34160   6.507   7.818  18.866
   26BMANN    C34161   6.475   7.862  19.061
   26BMANN    O34162   6.425   7.938  19.141
   26BMANN   CT34163   6.540   7.734  19.104
   26BMANN  HT134164   6.524   7.662  19.022
   26BMANN  HT234165   6.500   7.689  19.197
   26BMANN  HT334166   6.648   7.752  19.120
   26BMANN   C334167   6.558   8.091  18.811
   26BMANN   H334168   6.522   8.189  18.770
   26BMANN   O334169   6.653   8.123  18.910
   26BMANN  HO334170   6.618   8.195  18.965
   26BMANN   C434171   6.614   8.008  18.697
   26BMANN   H434172   6.651   7.910  18.735
   26BMANN   O434173   6.724   8.070  18.633
   26BMANN  HO434174   6.798   8.064  18.693
   26BMANN   C634175   6.545   7.896  18.476
   26BMANN  H6134176   6.453   7.857  18.427
   26BMANN  H6234177   6.599   7.958  18.400
   26BMANN   O634178   6.628   7.785  18.513
   26BMANN  HO634179   6.708   7.823  18.551
   27BGLCN   C134180   5.906   8.069  19.082
   27BGLCN   H134181   5.812   8.015  19.076
   27BGLCN   C534182   5.796   8.278  19.121
   27BGLCN   H534183   5.695   8.237  19.120
   27BGLCN   O534184   5.878   8.202  19.033
   27BGLCN   C234185   5.976   8.063  19.226
   27BGLCN   H234186   6.082   8.100  19.232
   27BGLCN    N34187   6.017   7.935  19.273
   27BGLCN   HN34188   5.953   7.867  19.244
   27BGLCN    C34189   6.136   7.911  19.339
   27BGLCN    O34190   6.203   7.998  19.394
   27BGLCN   CT34191   6.184   7.771  19.340
   27BGLCN  HT134192   6.118   7.713  19.273
   27BGLCN  HT234193   6.182   7.735  19.444
   27BGLCN  HT334194   6.289   7.772  19.303
   27BGLCN   C334195   5.881   8.140  19.316
   27BGLCN   H334196   5.783   8.092  19.308
   27BGLCN   O334197   5.934   8.107  19.450
   27BGLCN   C434198   5.852   8.288  19.264
   27BGLCN   H434199   5.921   8.378  19.269
   27BGLCN   O434200   5.755   8.329  19.355
   27BGLCN  HO434201   5.662   8.321  19.330
   27BGLCN   C634202   5.818   8.422  19.060
   27BGLCN  H6134203   5.724   8.467  19.079
   27BGLCN  H6234204   5.886   8.498  19.103
   27BGLCN   O634205   5.843   8.433  18.922
   27BGLCN  HO634206   5.794   8.505  18.875
   28AGAL    C134207   5.863   8.144  19.568
   28AGAL    H134208   5.839   8.252  19.580
   28AGAL    C534209   5.759   7.943  19.553
   28AGAL    H534210   5.840   7.911  19.482
   28AGAL    O534211   5.740   8.083  19.550
   28AGAL    C234212   5.930   8.110  19.701
   28AGAL    H234213   5.851   8.143  19.772
   28AGAL    O234214   6.050   8.177  19.743
   28AGAL    C334215   5.948   7.965  19.706
   28AGAL    H334216   6.015   7.936  19.622
   28AGAL    O334217   6.012   7.920  19.824
   28AGAL   HO334218   6.088   7.867  19.801
   28AGAL    C434219   5.812   7.903  19.688
   28AGAL    H434220   5.826   7.793  19.687
   28AGAL    O434221   5.720   7.938  19.790
   28AGAL   HO434222   5.716   7.864  19.851
   28AGAL    C634223   5.636   7.876  19.501
   28AGAL   H6134224   5.627   7.901  19.393
   28AGAL   H6234225   5.645   7.766  19.512
   28AGAL    O634226   5.516   7.916  19.567
   28AGAL   HO634227   5.486   8.002  19.534
   29ARHM    C134228   6.036   8.204  19.882
   29ARHM    H134229   5.967   8.132  19.928
   29ARHM    C534230   6.060   8.439  19.877
   29ARHM    H534231   6.079   8.384  19.788
   29ARHM    O534232   5.976   8.332  19.912
   29ARHM    C234233   6.164   8.195  19.957
   29ARHM    H234234   6.215   8.101  19.922
   29ARHM    O234235   6.138   8.186  20.095
   29ARHM    C334236   6.244   8.318  19.917
   29ARHM    H334237   6.257   8.294  19.806
   29ARHM    O334238   6.353   8.339  20.008
   29ARHM   HO334239   6.431   8.375  19.965
   29ARHM    C434240   6.184   8.451  19.944
   29ARHM    H434241   6.174   8.472  20.052
   29ARHM    O434242   6.245   8.570  19.888
   29ARHM   HO434243   6.291   8.572  19.803
   29ARHM    C634244   6.000   8.579  19.861
   29ARHM   H6134245   5.908   8.566  19.802
   29ARHM   H6234246   5.993   8.626  19.963
   29ARHM   H6334247   6.055   8.649  19.797
   30ARHM    C134248   6.145   8.072  20.177
   30ARHM    H134249   6.237   8.015  20.151
   30ARHM    C534250   5.909   8.073  20.191
   30ARHM    H534251   5.918   8.144  20.112
   30ARHM    O534252   6.025   7.997  20.159
   30ARHM    C234253   6.146   8.108  20.328
   30ARHM    H234254   6.239   8.161  20.359
   30ARHM    O234255   6.145   7.992  20.402
   30ARHM    C334256   6.026   8.187  20.372
   30ARHM    H334257   6.000   8.287  20.336
   30ARHM    O334258   6.063   8.232  20.499
   30ARHM    C434259   5.908   8.111  20.339
   30ARHM    H434260   5.898   8.021  20.401
   30ARHM    O434261   5.802   8.195  20.376
   30ARHM   HO434262   5.767   8.257  20.311
   30ARHM    C634263   5.778   8.018  20.143
   30ARHM   H6134264   5.693   8.088  20.159
   30ARHM   H6234265   5.785   7.999  20.034
   30ARHM   H6334266   5.767   7.924  20.200
   31BMANN   C134267   6.275   7.956  20.429
   31BMANN   H134268   6.346   8.038  20.459
   31BMANN   C534269   6.452   7.820  20.357
   31BMANN   H534270   6.516   7.906  20.387
   31BMANN   O534271   6.326   7.877  20.323
   31BMANN   C234272   6.248   7.875  20.548
   31BMANN   H234273   6.218   7.946  20.630
   31BMANN    N34274   6.139   7.784  20.522
   31BMANN   HN34275   6.119   7.768  20.424
   31BMANN    C34276   6.058   7.737  20.615
   31BMANN    O34277   6.071   7.771  20.732
   31BMANN   CT34278   5.951   7.643  20.569
   31BMANN  HT134279   5.995   7.574  20.493
   31BMANN  HT234280   5.867   7.700  20.525
   31BMANN  HT334281   5.912   7.585  20.654
   31BMANN   C334282   6.379   7.816  20.589
   31BMANN   H334283   6.453   7.899  20.603
   31BMANN   O334284   6.368   7.757  20.716
   31BMANN  HO334285   6.280   7.784  20.747
   31BMANN   C434286   6.432   7.730  20.477
   31BMANN   H434287   6.360   7.649  20.449
   31BMANN   O434288   6.555   7.670  20.511
   31BMANN  HO434289   6.612   7.729  20.560
   31BMANN   C634290   6.518   7.749  20.242
   31BMANN  H6134291   6.623   7.726  20.268
   31BMANN  H6234292   6.466   7.652  20.224
   31BMANN   O634293   6.514   7.825  20.121
   31BMANN  HO634294   6.575   7.898  20.119
   32BGLCN   C134295   6.028   8.154  20.602
   32BGLCN   H134296   6.058   8.054  20.585
   32BGLCN   C534297   5.848   8.065  20.725
   32BGLCN   H534298   5.881   7.964  20.696
   32BGLCN   O534299   5.890   8.147  20.620
   32BGLCN   C234300   6.093   8.217  20.718
   32BGLCN   H234301   6.037   8.313  20.711
   32BGLCN    N34302   6.233   8.238  20.698
   32BGLCN   HN34303   6.264   8.191  20.618
   32BGLCN    C34304   6.315   8.326  20.756
   32BGLCN    O34305   6.282   8.411  20.833
   32BGLCN   CT34306   6.449   8.341  20.693
   32BGLCN  HT134307   6.443   8.289  20.596
   32BGLCN  HT234308   6.527   8.300  20.760
   32BGLCN  HT334309   6.471   8.449  20.674
   32BGLCN   C334310   6.063   8.123  20.828
   32BGLCN   H334311   6.092   8.024  20.788
   32BGLCN   O334312   6.140   8.146  20.945
   32BGLCN   C434313   5.916   8.118  20.845
   32BGLCN   H434314   5.886   8.226  20.853
   32BGLCN   O434315   5.882   8.029  20.952
   32BGLCN  HO434316   5.874   8.085  21.032
   32BGLCN   C634317   5.695   8.070  20.738
   32BGLCN  H6134318   5.662   7.996  20.808
   32BGLCN  H6234319   5.651   8.163  20.783
   32BGLCN   O634320   5.630   8.037  20.616
   32BGLCN  HO634321   5.687   7.992  20.554
   33AGAL    C134322   6.184   8.023  21.000
   33AGAL    H134323   6.103   7.947  20.995
   33AGAL    C534324   6.417   8.062  20.954
   33AGAL    H534325   6.379   8.160  20.921
   33AGAL    O534326   6.305   7.972  20.939
   33AGAL    C234327   6.209   8.048  21.142
   33AGAL    H234328   6.253   7.955  21.186
   33AGAL    O234329   6.087   8.069  21.221
   33AGAL    C334330   6.323   8.142  21.148
   33AGAL    H334331   6.305   8.240  21.099
   33AGAL    O334332   6.315   8.183  21.273
   33AGAL   HO334333   6.366   8.131  21.336
   33AGAL    C434334   6.455   8.089  21.096
   33AGAL    H434335   6.534   8.168  21.102
   33AGAL    O434336   6.512   7.975  21.162
   33AGAL   HO434337   6.454   7.933  21.226
   33AGAL    C634338   6.531   8.028  20.861
   33AGAL   H6134339   6.489   8.039  20.759
   33AGAL   H6234340   6.613   8.101  20.873
   33AGAL    O634341   6.589   7.898  20.874
   33AGAL   HO634342   6.536   7.833  20.826
   34ARHM    C134343   6.080   7.987  21.339
   34ARHM    H134344   6.171   8.006  21.401
   34ARHM    C534345   5.941   7.819  21.240
   34ARHM    H534346   5.952   7.868  21.141
   34ARHM    O534347   6.060   7.847  21.314
   34ARHM    C234348   5.953   8.025  21.413
   34ARHM    H234349   5.935   8.119  21.386
   34ARHM    O234350   5.945   8.008  21.558
   34ARHM    C334351   5.823   8.010  21.334
   34ARHM    H334352   5.836   8.061  21.232
   34ARHM    O334353   5.708   8.073  21.396
   34ARHM   HO334354   5.652   8.113  21.327
   34ARHM    C434355   5.816   7.869  21.312
   34ARHM    H434356   5.814   7.820  21.413
   34ARHM    O434357   5.698   7.843  21.239
   34ARHM   HO434358   5.623   7.854  21.300
   34ARHM    C634359   5.927   7.667  21.219
   34ARHM   H6134360   5.921   7.612  21.314
   34ARHM   H6234361   5.830   7.649  21.169
   34ARHM   H6334362   6.008   7.626  21.155
   35ARHM    C134363   6.058   8.022  21.643
   35ARHM    H134364   6.110   8.118  21.622
   35ARHM    C534365   6.094   7.786  21.658
   35ARHM    H534366   6.010   7.767  21.588
   35ARHM    O534367   6.152   7.915  21.630
   35ARHM    C234368   6.011   8.017  21.790
   35ARHM    H234369   5.932   8.089  21.818
   35ARHM    O234370   6.121   8.033  21.881
   35ARHM    C334371   5.941   7.889  21.819
   35ARHM    H334372   5.856   7.875  21.748
   35ARHM    O334373   5.880   7.894  21.947
   35ARHM   HO334374   5.933   7.943  22.011
   35ARHM    C434375   6.041   7.778  21.801
   35ARHM    H434376   6.128   7.794  21.870
   35ARHM    O434377   5.984   7.651  21.829
   35ARHM   HO434378   5.891   7.649  21.802
   35ARHM    C634379   6.197   7.679  21.625
   35ARHM   H6134380   6.213   7.680  21.516
   35ARHM   H6234381   6.291   7.704  21.678
   35ARHM   H6334382   6.160   7.577  21.649
   36BMANN   C134383   6.164   8.167  21.897
   36BMANN   H134384   6.074   8.228  21.884
   36BMANN   C534385   6.345   8.342  21.828
   36BMANN   H534386   6.290   8.441  21.806
   36BMANN   O534387   6.286   8.202  21.821
   36BMANN   C234388   6.201   8.182  22.035
   36BMANN   H234389   6.102   8.183  22.090
   36BMANN    N34390   6.285   8.076  22.083
   36BMANN   HN34391   6.366   8.058  22.025
   36BMANN    C34392   6.287   8.046  22.214
   36BMANN    O34393   6.208   8.097  22.293
   36BMANN   CT34394   6.405   7.968  22.263
   36BMANN  HT134395   6.494   8.008  22.213
   36BMANN  HT234396   6.401   7.863  22.245
   36BMANN  HT334397   6.418   7.980  22.373
   36BMANN   C334398   6.253   8.323  22.049
   36BMANN   H334399   6.194   8.390  21.999
   36BMANN   O334400   6.239   8.359  22.187
   36BMANN  HO334401   6.218   8.450  22.207
   36BMANN   C434402   6.383   8.353  21.958
   36BMANN   H434403   6.465   8.287  21.963
   36BMANN   O434404   6.459   8.469  21.959
   36BMANN  HO434405   6.474   8.498  22.047
   36BMANN   C634406   6.453   8.381  21.733
   36BMANN  H6134407   6.403   8.354  21.646
   36BMANN  H6234408   6.468   8.489  21.717
   36BMANN   O634409   6.571   8.312  21.770
   36BMANN  HO634410   6.631   8.371  21.818
    1ECLIP HB6S34411   0.690   6.812  11.778
    1ECLIP  OB634412   0.642   6.662  11.908
    1ECLIP  CB634413   0.730   6.713  11.806
    1ECLIP HB6R34414   0.833   6.726  11.846
    1ECLIP  CB534415   0.742   6.628  11.680
    1ECLIP  OB534416   0.607   6.609  11.632
    1ECLIP  HB534417   0.788   6.532  11.710
    1ECLIP  CB134418   0.603   6.526  11.515
    1ECLIP  HB134419   0.651   6.427  11.533
    1ECLIP  OA634420   0.472   6.502  11.469
    1ECLIP  CA634421   0.377   6.607  11.492
    1ECLIP HA6R34422   0.427   6.705  11.511
    1ECLIP HA6S34423   0.315   6.580  11.581
    1ECLIP  CB434424   0.828   6.693  11.569
    1ECLIP  HB434425   0.789   6.794  11.541
    1ECLIP  OB434426   0.962   6.696  11.621
    1ECLIP   PB34427   1.031   6.839  11.670
    1ECLIP OPB434428   1.123   6.812  11.790
    1ECLIP OPB334429   0.913   6.931  11.708
    1ECLIP OPB234430   1.106   6.883  11.546
    1ECLIP  CB334431   0.823   6.607  11.445
    1ECLIP  OB334432   0.890   6.661  11.331
    1ECLIP  HB334433   0.859   6.504  11.470
    1ECLIP  C7134434   1.018   6.636  11.313
    1ECLIP  O7134435   1.075   6.538  11.361
    1ECLIP  C7234436   1.059   6.693  11.175
    1ECLIP H72R34437   0.991   6.654  11.096
    1ECLIP H72S34438   1.163   6.662  11.153
    1ECLIP  CB234439   0.678   6.592  11.403
    1ECLIP  HB234440   0.636   6.695  11.387
    1ECLIP  NB234441   0.668   6.511  11.282
    1ECLIP HNB234442   0.659   6.413  11.294
    1ECLIP  CA434443   0.244   6.487  11.316
    1ECLIP  HA434444   0.336   6.432  11.288
    1ECLIP  OA434445   0.175   6.417  11.419
    1ECLIP HOA434446   0.229   6.423  11.498
    1ECLIP  CA534447   0.289   6.621  11.370
    1ECLIP  HA534448   0.204   6.690  11.393
    1ECLIP  OA534449   0.369   6.682  11.270
    1ECLIP  CA134450   0.299   6.706  11.147
    1ECLIP  HA134451   0.382   6.735  11.079
    1ECLIP  OA134452   0.206   6.811  11.150
    1ECLIP OPA234453   0.176   6.969  11.338
    1ECLIP OPA334454   0.402   6.969  11.222
    1ECLIP OPA434455   0.200   7.058  11.099
    1ECLIP   PA34456   0.251   6.961  11.205
    1ECLIP  CA334457   0.162   6.502  11.189
    1ECLIP  HA334458   0.069   6.559  11.210
    1ECLIP  OA334459   0.124   6.366  11.156
    1ECLIP  C3134460   0.213   6.291  11.088
    1ECLIP  O3134461   0.220   6.293  10.966
    1ECLIP  C3234462   0.245   6.162  11.165
    1ECLIP H32R34463   0.200   6.079  11.108
    1ECLIP H32S34464   0.196   6.167  11.265
    1ECLIP  CA234465   0.250   6.575  11.087
    1ECLIP  HA234466   0.342   6.514  11.070
    1ECLIP  NA234467   0.182   6.595  10.959
    1ECLIP HNA234468   0.097   6.546  10.948
    1ECLIP  C7334469   1.049   6.847  11.172
    1ECLIP H73R34470   1.097   6.887  11.265
    1ECLIP  O7334471   0.910   6.879  11.164
    1ECLIP  C8134472   0.860   6.983  11.229
    1ECLIP  O8134473   0.923   7.064  11.295
    1ECLIP  C8234474   0.723   7.018  11.170
    1ECLIP H82R34475   0.682   7.106  11.223
    1ECLIP H82S34476   0.654   6.933  11.192
    1ECLIP  C8334477   0.726   7.043  11.017
    1ECLIP H83R34478   0.724   6.944  10.965
    1ECLIP H83S34479   0.821   7.093  10.990
    1ECLIP  C8434480   0.603   7.120  10.966
    1ECLIP H84R34481   0.607   7.226  10.996
    1ECLIP H84S34482   0.514   7.071  11.012
    1ECLIP  C8534483   0.586   7.107  10.813
    1ECLIP H85R34484   0.606   7.000  10.791
    1ECLIP H85S34485   0.663   7.166  10.760
    1ECLIP  C8634486   0.442   7.135  10.765
    1ECLIP H86R34487   0.429   7.242  10.736
    1ECLIP H86S34488   0.370   7.117  10.849
    1ECLIP  C8734489   0.397   7.040  10.652
    1ECLIP H87R34490   0.296   7.069  10.616
    1ECLIP H87S34491   0.386   6.937  10.694
    1ECLIP  C8834492   0.499   7.032  10.538
    1ECLIP H88R34493   0.585   6.969  10.571
    1ECLIP H88S34494   0.542   7.133  10.524
    1ECLIP  C8934495   0.441   6.974  10.408
    1ECLIP H89R34496   0.349   6.914  10.426
    1ECLIP H89S34497   0.514   6.903  10.362
    1ECLIP C81034498   0.416   7.085  10.306
    1ECLIPH810R34499   0.490   7.165  10.329
    1ECLIPH810S34500   0.314   7.126  10.323
    1ECLIP C81134501   0.433   7.041  10.160
    1ECLIPH811R34502   0.380   7.111  10.090
    1ECLIPH811S34503   0.387   6.940  10.152
    1ECLIP C81234504   0.577   7.027  10.111
    1ECLIPH812R34505   0.572   6.983  10.008
    1ECLIPH812S34506   0.633   6.958  10.177
    1ECLIP C81334507   0.657   7.158  10.107
    1ECLIPH813R34508   0.609   7.224  10.030
    1ECLIPH813S34509   0.658   7.211  10.204
    1ECLIP C81434510   0.803   7.135  10.075
    1ECLIPH814R34511   0.811   7.047  10.012
    1ECLIPH814S34512   0.865   7.091  10.154
    1ECLIPH814T34513   0.850   7.226  10.030
    1ECLIP  C7434514   1.115   6.915  11.049
    1ECLIP H74R34515   1.225   6.898  11.041
    1ECLIP H74S34516   1.102   7.024  11.068
    1ECLIP  C7534517   1.045   6.886  10.914
    1ECLIP H75R34518   1.047   6.980  10.855
    1ECLIP H75S34519   0.938   6.863  10.933
    1ECLIP  C7634520   1.105   6.771  10.831
    1ECLIP H76R34521   1.072   6.674  10.874
    1ECLIP H76S34522   1.216   6.773  10.835
    1ECLIP  C7734523   1.066   6.773  10.682
    1ECLIP H77R34524   1.109   6.864  10.635
    1ECLIP H77S34525   0.957   6.781  10.668
    1ECLIP  C7834526   1.111   6.641  10.616
    1ECLIP H78R34527   1.218   6.625  10.643
    1ECLIP H78S34528   1.054   6.561  10.668
    1ECLIP  C7934529   1.084   6.621  10.465
    1ECLIP H79R34530   0.987   6.567  10.453
    1ECLIP H79S34531   1.163   6.558  10.419
    1ECLIP C71034532   1.082   6.749  10.381
    1ECLIPH710R34533   1.009   6.822  10.423
    1ECLIPH710S34534   1.183   6.794  10.385
    1ECLIP C71134535   1.045   6.724  10.235
    1ECLIPH711R34536   1.118   6.654  10.190
    1ECLIPH711S34537   0.943   6.680  10.228
    1ECLIP C71234538   1.045   6.858  10.161
    1ECLIPH712R34539   1.148   6.899  10.162
    1ECLIPH712S34540   0.981   6.927  10.219
    1ECLIP C71334541   0.992   6.849  10.018
    1ECLIPH713R34542   0.886   6.813  10.021
    1ECLIPH713S34543   0.994   6.949   9.970
    1ECLIP C71434544   1.073   6.759   9.929
    1ECLIPH714R34545   1.177   6.795   9.920
    1ECLIPH714S34546   1.074   6.653   9.963
    1ECLIPH714T34547   1.031   6.760   9.827
    1ECLIP  C5134548   0.677   6.566  11.160
    1ECLIP  O5134549   0.668   6.687  11.144
    1ECLIP  C5234550   0.705   6.476  11.042
    1ECLIP H52R34551   0.815   6.463  11.029
    1ECLIP H52S34552   0.661   6.377  11.061
    1ECLIP  C5334553   0.646   6.535  10.913
    1ECLIP H53R34554   0.550   6.589  10.935
    1ECLIP  O5334555   0.629   6.425  10.821
    1ECLIP  C6134556   0.505   6.388  10.790
    1ECLIP  O6134557   0.403   6.444  10.823
    1ECLIP  C6234558   0.509   6.268  10.696
    1ECLIP H62R34559   0.520   6.177  10.758
    1ECLIP H62S34560   0.603   6.277  10.637
    1ECLIP  C6334561   0.380   6.262  10.608
    1ECLIP H63R34562   0.360   6.363  10.567
    1ECLIP H63S34563   0.293   6.228  10.670
    1ECLIP  C6434564   0.388   6.176  10.482
    1ECLIP H64R34565   0.290   6.161  10.433
    1ECLIP H64S34566   0.415   6.081  10.524
    1ECLIP  C6534567   0.504   6.217  10.389
    1ECLIP H65R34568   0.594   6.204  10.452
    1ECLIP H65S34569   0.485   6.321  10.360
    1ECLIP  C6634570   0.538   6.145  10.258
    1ECLIP H66R34571   0.582   6.048  10.278
    1ECLIP H66S34572   0.625   6.189  10.207
    1ECLIP  C6734573   0.425   6.136  10.159
    1ECLIP H67R34574   0.326   6.094  10.195
    1ECLIP H67S34575   0.464   6.077  10.071
    1ECLIP  C6834576   0.389   6.270  10.105
    1ECLIP H68R34577   0.482   6.314  10.055
    1ECLIP H68S34578   0.351   6.333  10.184
    1ECLIP  C6934579   0.271   6.243  10.014
    1ECLIP H69R34580   0.222   6.148   9.984
    1ECLIP H69S34581   0.361   6.202   9.971
    1ECLIP C61034582   0.206   6.372   9.954
    1ECLIPH610R34583   0.285   6.452   9.948
    1ECLIPH610S34584   0.128   6.391  10.027
    1ECLIP C61134585   0.121   6.372   9.826
    1ECLIPH611R34586   0.083   6.269   9.801
    1ECLIPH611S34587   0.043   6.447   9.809
    1ECLIP C61234588   0.170   6.436   9.705
    1ECLIPH612R34589   0.270   6.491   9.705
    1ECLIPH612S34590   0.237   6.373   9.681
    1ECLIPH612T34591   0.152   6.344   9.639
    1ECLIP  C5434592   0.749   6.635  10.853
    1ECLIP H54R34593   0.838   6.576  10.824
    1ECLIP H54S34594   0.779   6.705  10.934
    1ECLIP  C5534595   0.703   6.719  10.733
    1ECLIP H55R34596   0.771   6.805  10.719
    1ECLIP H55S34597   0.603   6.763  10.756
    1ECLIP  C5634598   0.705   6.634  10.605
    1ECLIP H56R34599   0.642   6.544  10.622
    1ECLIP H56S34600   0.809   6.597  10.587
    1ECLIP  C5734601   0.651   6.696  10.477
    1ECLIP H57R34602   0.700   6.793  10.454
    1ECLIP H57S34603   0.542   6.717  10.491
    1ECLIP  C5834604   0.667   6.595  10.360
    1ECLIP H58R34605   0.770   6.552  10.358
    1ECLIP H58S34606   0.600   6.509  10.382
    1ECLIP  C5934607   0.637   6.659  10.223
    1ECLIP H59R34608   0.703   6.748  10.208
    1ECLIP H59S34609   0.533   6.696  10.232
    1ECLIP C51034610   0.664   6.567  10.101
    1ECLIPH510R34611   0.621   6.466  10.119
    1ECLIPH510S34612   0.774   6.556  10.088
    1ECLIP C51134613   0.609   6.620   9.966
    1ECLIPH511R34614   0.500   6.598   9.963
    1ECLIPH511S34615   0.621   6.730   9.959
    1ECLIP C51234616   0.679   6.559   9.843
    1ECLIPH512R34617   0.649   6.615   9.751
    1ECLIPH512S34618   0.789   6.555   9.850
    1ECLIP C51334619   0.638   6.419   9.814
    1ECLIPH513R34620   0.529   6.437   9.830
    1ECLIPH513S34621   0.646   6.338   9.888
    1ECLIP C51434622   0.694   6.376   9.673
    1ECLIPH514R34623   0.797   6.384   9.655
    1ECLIPH514S34624   0.684   6.267   9.655
    1ECLIPH514T34625   0.646   6.429   9.588
    1ECLIP  C3334626   0.396   6.131  11.184
    1ECLIP H33R34627   0.403   6.026  11.222
    1ECLIP  O3334628   0.451   6.215  11.282
    1ECLIP HO3334629   0.423   6.192  11.371
    1ECLIP  C3434630   0.487   6.146  11.062
    1ECLIP H34R34631   0.481   6.247  11.020
    1ECLIP H34S34632   0.443   6.086  10.982
    1ECLIP  C3534633   0.637   6.116  11.089
    1ECLIP H35R34634   0.643   6.017  11.141
    1ECLIP H35S34635   0.679   6.176  11.170
    1ECLIP  C3634636   0.726   6.129  10.961
    1ECLIP H36R34637   0.679   6.209  10.903
    1ECLIP H36S34638   0.732   6.048  10.884
    1ECLIP  C3734639   0.873   6.153  10.990
    1ECLIP H37R34640   0.925   6.054  11.003
    1ECLIP H37S34641   0.877   6.205  11.088
    1ECLIP  C3834642   0.942   6.234  10.879
    1ECLIP H38R34643   0.906   6.339  10.879
    1ECLIP H38S34644   1.050   6.236  10.904
    1ECLIP  C3934645   0.917   6.176  10.739
    1ECLIP H39R34646   0.808   6.167  10.718
    1ECLIP H39S34647   0.964   6.075  10.735
    1ECLIP C31034648   0.977   6.257  10.623
    1ECLIPH310R34649   1.087   6.245  10.632
    1ECLIPH310S34650   0.951   6.365  10.632
    1ECLIP C31134651   0.918   6.213  10.488
    1ECLIPH311R34652   0.899   6.103  10.489
    1ECLIPH311S34653   0.820   6.263  10.473
    1ECLIP C31234654   1.004   6.250  10.366
    1ECLIPH312R34655   1.054   6.348  10.385
    1ECLIPH312S34656   1.083   6.172  10.355
    1ECLIP C31334657   0.922   6.259  10.237
    1ECLIPH313R34658   0.895   6.154  10.211
    1ECLIPH313S34659   0.827   6.315  10.254
    1ECLIP C31434660   0.996   6.322  10.118
    1ECLIPH314R34661   1.087   6.263  10.096
    1ECLIPH314S34662   0.932   6.323  10.027
    1ECLIPH314T34663   1.025   6.426  10.141
    1ECLIP  C1134664   0.214   6.684  10.862
    1ECLIP  O1134665   0.323   6.736  10.846
    1ECLIP  C1234666   0.100   6.719  10.769
    1ECLIP H12R34667   0.064   6.821  10.792
    1ECLIP H12S34668   0.018   6.646  10.788
    1ECLIP  C1334669   0.139   6.709  10.622
    1ECLIP H13R34670   0.239   6.754  10.601
    1ECLIP  O1334671   0.041   6.783  10.548
    1ECLIP HO1334672   0.073   6.818  10.465
    1ECLIP  C1434673   0.140   6.561  10.580
    1ECLIP H14R34674   0.059   6.505  10.632
    1ECLIP H14S34675   0.238   6.520  10.614
    1ECLIP  C1534676   0.129   6.532  10.431
    1ECLIP H15R34677   0.036   6.580  10.393
    1ECLIP H15S34678   0.116   6.422  10.419
    1ECLIP  C1634679   0.253   6.581  10.355
    1ECLIP H16R34680   0.336   6.508  10.364
    1ECLIP H16S34681   0.290   6.675  10.401
    1ECLIP  C1734682   0.221   6.602  10.208
    1ECLIP H17R34683   0.160   6.515  10.176
    1ECLIP H17S34684   0.311   6.606  10.144
    1ECLIP  C1834685   0.142   6.729  10.188
    1ECLIP H18R34686   0.048   6.722  10.247
    1ECLIP H18S34687   0.199   6.820  10.218
    1ECLIP  C1934688   0.105   6.746  10.044
    1ECLIP H19R34689   0.033   6.831  10.044
    1ECLIP H19S34690   0.051   6.654  10.010
    1ECLIP C11034691   0.228   6.771   9.953
    1ECLIPH110R34692   0.283   6.862   9.988
    1ECLIPH110S34693   0.289   6.680   9.955
    1ECLIP C11134694   0.198   6.794   9.807
    1ECLIPH111R34695   0.146   6.713   9.751
    1ECLIPH111S34696   0.157   6.899   9.809
    1ECLIP C11234697   0.291   6.801   9.704
    1ECLIPH112R34698   0.314   6.908   9.734
    1ECLIPH112S34699   0.357   6.718   9.730
    1ECLIP C11334700   0.274   6.770   9.556
    1ECLIPH113R34701   0.224   6.678   9.527
    1ECLIPH113S34702   0.233   6.866   9.537
    1ECLIP C11434703   0.311   6.826   9.431
    1ECLIPH114R34704   0.342   6.933   9.427
    1ECLIPH114S34705   0.389   6.753   9.424
    1ECLIPH114T34706   0.271   6.862   9.335
    2AKDO    C134707   0.795   6.490  11.978
    2AKDO   O1134708   0.920   6.502  11.982
    2AKDO   O1234709   0.727   6.388  11.946
    2AKDO    C234710   0.712   6.614  12.023
    2AKDO    C634711   0.728   6.832  12.123
    2AKDO    H634712   0.673   6.866  12.032
    2AKDO    O634713   0.799   6.715  12.083
    2AKDO    C334714   0.607   6.579  12.129
    2AKDO   H3134715   0.655   6.527  12.215
    2AKDO   H3234716   0.534   6.509  12.082
    2AKDO    C434717   0.531   6.700  12.174
    2AKDO    H434718   0.485   6.749  12.085
    2AKDO    O434719   0.434   6.667  12.273
    2AKDO    C534720   0.625   6.802  12.233
    2AKDO    H534721   0.565   6.896  12.245
    2AKDO    O534722   0.671   6.752  12.362
    2AKDO    C734723   0.826   6.944  12.154
    2AKDO    H734724   0.883   6.917  12.245
    2AKDO    O734725   0.754   7.066  12.174
    2AKDO   HO734726   0.746   7.105  12.089
    2AKDO    C834727   0.925   6.961  12.039
    2AKDO   H8134728   0.976   6.863  12.022
    2AKDO   H8234729   0.869   6.986  11.946
    2AKDO    O834730   1.024   7.062  12.066
    2AKDO   HO834731   1.108   7.033  12.026
    3AKDO    C134732   0.248   6.691  12.115
    3AKDO   O1134733   0.263   6.641  12.000
    3AKDO   O1234734   0.208   6.808  12.145
    3AKDO    C234735   0.309   6.613  12.236
    3AKDO    C634736   0.378   6.396  12.315
    3AKDO    H634737   0.482   6.431  12.331
    3AKDO    O634738   0.315   6.471  12.208
    3AKDO    C334739   0.230   6.629  12.367
    3AKDO   H3134740   0.128   6.589  12.347
    3AKDO   H3234741   0.218   6.737  12.394
    3AKDO    C434742   0.297   6.555  12.480
    3AKDO    H434743   0.403   6.588  12.485
    3AKDO    O434744   0.238   6.578  12.607
    3AKDO   HO434745   0.305   6.606  12.671
    3AKDO    C534746   0.304   6.411  12.443
    3AKDO    H534747   0.347   6.353  12.527
    3AKDO    O534748   0.179   6.355  12.427
    3AKDO   HO534749   0.127   6.409  12.365
    3AKDO    C734750   0.385   6.252  12.272
    3AKDO    H734751   0.282   6.214  12.250
    3AKDO    O734752   0.442   6.172  12.377
    3AKDO   HO734753   0.433   6.082  12.345
    3AKDO    C834754   0.469   6.244  12.147
    3AKDO   H8134755   0.429   6.312  12.069
    3AKDO   H8234756   0.575   6.275  12.167
    3AKDO    O834757   0.463   6.113  12.095
    3AKDO   HO834758   0.376   6.109  12.055
    4AHEP    C134759   0.700   6.849  12.462
    4AHEP    H134760   0.796   6.893  12.427
    4AHEP    C534761   0.484   6.927  12.536
    4AHEP    H534762   0.442   6.835  12.487
    4AHEP    O534763   0.607   6.958  12.467
    4AHEP    C234764   0.730   6.806  12.607
    4AHEP    H234765   0.796   6.716  12.604
    4AHEP    O234766   0.805   6.907  12.674
    4AHEP   HO234767   0.873   6.867  12.727
    4AHEP    C334768   0.605   6.768  12.686
    4AHEP    H334769   0.556   6.677  12.645
    4AHEP    O334770   0.639   6.746  12.824
    4AHEP    C434771   0.512   6.888  12.681
    4AHEP    H434772   0.555   6.977  12.733
    4AHEP    O434773   0.390   6.844  12.741
    4AHEP    P434774   0.340   6.910  12.885
    4AHEP  OP4234775   0.269   6.795  12.953
    4AHEP  OP4334776   0.250   7.028  12.847
    4AHEP  OP4434777   0.463   6.953  12.961
    4AHEP    C634778   0.385   7.045  12.515
    4AHEP    H634779   0.284   7.004  12.544
    4AHEP    O634780   0.409   7.161  12.599
    4AHEP   HO634781   0.336   7.167  12.664
    4AHEP    C734782   0.375   7.096  12.368
    4AHEP   H7134783   0.283   7.158  12.356
    4AHEP   H7234784   0.366   7.007  12.301
    4AHEP    O734785   0.481   7.178  12.314
    4AHEP   HO734786   0.479   7.251  12.377
    5AHEP    C134787   0.610   6.621  12.882
    5AHEP    H134788   0.520   6.576  12.834
    5AHEP    C534789   0.841   6.583  12.931
    5AHEP    H534790   0.859   6.687  12.895
    5AHEP    O534791   0.723   6.533  12.864
    5AHEP    C234792   0.582   6.634  13.032
    5AHEP    H234793   0.500   6.708  13.045
    5AHEP    O234794   0.534   6.507  13.083
    5AHEP   HO234795   0.440   6.514  13.101
    5AHEP    C334796   0.703   6.687  13.109
    5AHEP    H334797   0.729   6.788  13.067
    5AHEP    O334798   0.685   6.699  13.252
    5AHEP    C434799   0.818   6.592  13.082
    5AHEP    H434800   0.794   6.490  13.120
    5AHEP    O434801   0.937   6.648  13.138
    5AHEP    P434802   1.014   6.566  13.261
    5AHEP  OP4234803   1.115   6.669  13.314
    5AHEP  OP4334804   1.088   6.448  13.197
    5AHEP  OP4434805   0.904   6.531  13.360
    5AHEP    C634806   0.964   6.500  12.892
    5AHEP    H634807   1.054   6.545  12.941
    5AHEP    O634808   0.952   6.363  12.936
    5AHEP   HO634809   0.891   6.313  12.884
    5AHEP    C734810   0.990   6.505  12.743
    5AHEP   H7134811   1.100   6.506  12.728
    5AHEP   H7234812   0.952   6.600  12.698
    5AHEP    O734813   0.941   6.388  12.678
    6AHEP    C134814   0.819   6.409  12.614
    6AHEP    H134815   0.773   6.506  12.640
    6AHEP    C534816   0.896   6.283  12.432
    6AHEP    H534817   0.990   6.266  12.488
    6AHEP    O534818   0.840   6.408  12.474
    6AHEP    C234819   0.723   6.301  12.658
    6AHEP    H234820   0.714   6.307  12.770
    6AHEP    O234821   0.592   6.325  12.609
    6AHEP   HO234822   0.535   6.355  12.680
    6AHEP    C334823   0.781   6.167  12.621
    6AHEP    H334824   0.876   6.148  12.677
    6AHEP    O334825   0.685   6.072  12.663
    6AHEP   HO334826   0.718   6.007  12.727
    6AHEP    C434827   0.807   6.169  12.470
    6AHEP    H434828   0.709   6.173  12.415
    6AHEP    O434829   0.888   6.062  12.421
    6AHEP   HO434830   0.968   6.040  12.465
    6AHEP    C634831   0.938   6.280  12.284
    6AHEP    H634832   0.997   6.187  12.264
    6AHEP    O634833   0.825   6.271  12.196
    6AHEP   HO634834   0.829   6.346  12.135
    6AHEP    C734835   1.039   6.388  12.252
    6AHEP   H7134836   1.078   6.374  12.149
    6AHEP   H7234837   1.124   6.378  12.322
    6AHEP    O734838   0.992   6.522  12.267
    6AHEP   HO734839   0.979   6.538  12.360
    7AGLC    C134840   0.642   6.824  13.302
    7AGLC    H134841   0.698   6.907  13.252
    7AGLC    C534842   0.423   6.739  13.346
    7AGLC    H534843   0.459   6.637  13.318
    7AGLC    O534844   0.503   6.839  13.280
    7AGLC    C234845   0.662   6.840  13.453
    7AGLC    H234846   0.611   6.936  13.480
    7AGLC    O234847   0.799   6.856  13.491
    7AGLC   HO234848   0.841   6.768  13.491
    7AGLC    C334849   0.589   6.736  13.534
    7AGLC    H334850   0.623   6.636  13.498
    7AGLC    O334851   0.615   6.745  13.677
    7AGLC    C434852   0.441   6.753  13.497
    7AGLC    H434853   0.407   6.854  13.529
    7AGLC    O434854   0.364   6.652  13.561
    7AGLC   HO434855   0.286   6.687  13.604
    7AGLC    C634856   0.284   6.752  13.288
    7AGLC   H6134857   0.290   6.736  13.178
    7AGLC   H6234858   0.214   6.672  13.325
    7AGLC    O634859   0.231   6.883  13.315
    7AGLC   HO634860   0.165   6.873  13.382
    8AGLC    C134861   0.677   6.628  13.728
    8AGLC    H134862   0.627   6.537  13.687
    8AGLC    C534863   0.904   6.717  13.758
    8AGLC    H534864   0.867   6.816  13.725
    8AGLC    O534865   0.818   6.619  13.696
    8AGLC    C234866   0.664   6.615  13.880
    8AGLC    H234867   0.706   6.516  13.906
    8AGLC    O234868   0.530   6.619  13.931
    8AGLC    C334869   0.744   6.721  13.949
    8AGLC    H334870   0.705   6.816  13.908
    8AGLC    O334871   0.714   6.716  14.091
    8AGLC    C434872   0.889   6.704  13.910
    8AGLC    H434873   0.921   6.601  13.939
    8AGLC    O434874   0.972   6.795  13.979
    8AGLC   HO434875   0.932   6.882  13.977
    8AGLC    C634876   1.051   6.713  13.710
    8AGLC   H6134877   1.058   6.703  13.599
    8AGLC   H6234878   1.103   6.807  13.737
    8AGLC    O634879   1.130   6.611  13.770
    8AGLC   HO634880   1.156   6.635  13.859
    9AGAL    C134881   0.439   6.526  13.880
    9AGAL    H134882   0.442   6.523  13.769
    9AGAL    C534883   0.449   6.379  14.066
    9AGAL    H534884   0.510   6.459  14.112
    9AGAL    O534885   0.466   6.391  13.923
    9AGAL    C234886   0.299   6.569  13.921
    9AGAL    H234887   0.229   6.497  13.874
    9AGAL    O234888   0.274   6.698  13.857
    9AGAL    C334889   0.279   6.557  14.071
    9AGAL    H334890   0.351   6.622  14.126
    9AGAL    O334891   0.149   6.599  14.110
    9AGAL   HO334892   0.131   6.677  14.057
    9AGAL    C434893   0.305   6.411  14.107
    9AGAL    H434894   0.296   6.397  14.217
    9AGAL    O434895   0.208   6.326  14.045
    9AGAL   HO434896   0.207   6.243  14.091
    9AGAL    C634897   0.508   6.251  14.122
    9AGAL   H6134898   0.615   6.241  14.097
    9AGAL   H6234899   0.498   6.248  14.232
    9AGAL    O634900   0.440   6.139  14.070
    9AGAL   HO634901   0.495   6.095  14.003
   10AGAL    C134902   0.204   6.808  13.912
   10AGAL    H134903   0.096   6.781  13.920
   10AGAL    C534904   0.384   6.904  14.041
   10AGAL    H534905   0.446   6.821  14.001
   10AGAL    O534906   0.248   6.854  14.042
   10AGAL    C234907   0.220   6.924  13.814
   10AGAL    H234908   0.154   7.006  13.849
   10AGAL    O234909   0.172   6.897  13.684
   10AGAL   HO234910   0.107   6.965  13.667
   10AGAL    C334911   0.363   6.973  13.808
   10AGAL    H334912   0.426   6.884  13.782
   10AGAL    O334913   0.388   7.072  13.707
   10AGAL   HO334914   0.437   7.029  13.637
   10AGAL    C434915   0.399   7.021  13.946
   10AGAL    H434916   0.504   7.053  13.949
   10AGAL    O434917   0.318   7.133  13.984
   10AGAL   HO434918   0.234   7.091  13.998
   10AGAL    C634919   0.445   6.933  14.179
   10AGAL   H6134920   0.426   6.847  14.246
   10AGAL   H6234921   0.556   6.941  14.165
   10AGAL    O634922   0.396   7.052  14.244
   10AGAL   HO634923   0.359   7.023  14.329
   11BGLC    C134924   0.796   6.646  14.184
   11BGLC    H134925   0.891   6.702  14.198
   11BGLC    C534926   0.892   6.431  14.247
   11BGLC    H534927   0.992   6.476  14.272
   11BGLC    O534928   0.818   6.508  14.148
   11BGLC    C234929   0.717   6.649  14.315
   11BGLC    H234930   0.617   6.601  14.301
   11BGLC    O234931   0.693   6.783  14.356
   11BGLC   HO234932   0.599   6.798  14.365
   11BGLC    C334933   0.786   6.574  14.426
   11BGLC    H334934   0.882   6.625  14.453
   11BGLC    O334935   0.698   6.567  14.541
   11BGLC    C434936   0.809   6.432  14.377
   11BGLC    H434937   0.709   6.388  14.354
   11BGLC    O434938   0.866   6.352  14.479
   11BGLC   HO434939   0.802   6.339  14.550
   11BGLC    C634940   0.923   6.292  14.188
   11BGLC   H6134941   0.948   6.216  14.265
   11BGLC   H6234942   0.836   6.257  14.129
   11BGLC    O634943   1.033   6.290  14.097
   11BGLC   HO634944   1.112   6.248  14.135
   12BGLCN   C134945   0.744   6.612  14.668
   12BGLCN   H134946   0.733   6.722  14.673
   12BGLCN   C534947   0.922   6.624  14.824
   12BGLCN   H534948   0.912   6.735  14.831
   12BGLCN   O534949   0.879   6.576  14.695
   12BGLCN   C234950   0.655   6.545  14.772
   12BGLCN   H234951   0.679   6.435  14.767
   12BGLCN    N34952   0.518   6.571  14.742
   12BGLCN   HN34953   0.493   6.666  14.731
   12BGLCN    C34954   0.428   6.474  14.730
   12BGLCN    O34955   0.457   6.356  14.745
   12BGLCN   CT34956   0.290   6.518  14.696
   12BGLCN  HT134957   0.217   6.497  14.777
   12BGLCN  HT234958   0.263   6.454  14.611
   12BGLCN  HT334959   0.285   6.624  14.662
   12BGLCN   C334960   0.688   6.590  14.913
   12BGLCN   H334961   0.672   6.700  14.917
   12BGLCN   O334962   0.600   6.529  15.013
   12BGLCN   C434963   0.835   6.556  14.932
   12BGLCN   H434964   0.851   6.446  14.924
   12BGLCN   O434965   0.879   6.593  15.061
   12BGLCN  HO434966   0.886   6.689  15.067
   12BGLCN   C634967   1.069   6.592  14.832
   12BGLCN  H6134968   1.113   6.620  14.930
   12BGLCN  H6234969   1.077   6.483  14.820
   12BGLCN   O634970   1.146   6.653  14.729
   12BGLCN  HO634971   1.167   6.746  14.749
   13AGAL    C134972   0.561   6.617  15.120
   13AGAL    H134973   0.648   6.679  15.151
   13AGAL    C534974   0.327   6.622  15.063
   13AGAL    H534975   0.356   6.543  14.991
   13AGAL    O534976   0.447   6.699  15.083
   13AGAL    C234977   0.516   6.544  15.248
   13AGAL    H234978   0.481   6.624  15.317
   13AGAL    O234979   0.626   6.477  15.312
   13AGAL    C334980   0.393   6.458  15.226
   13AGAL    H334981   0.411   6.392  15.139
   13AGAL    O334982   0.362   6.373  15.336
   13AGAL   HO334983   0.331   6.287  15.306
   13AGAL    C434984   0.279   6.550  15.189
   13AGAL    H434985   0.191   6.487  15.160
   13AGAL    O434986   0.237   6.637  15.294
   13AGAL   HO434987   0.312   6.680  15.338
   13AGAL    C634988   0.215   6.694  14.990
   13AGAL   H6134989   0.254   6.737  14.896
   13AGAL   H6234990   0.136   6.618  14.967
   13AGAL    O634991   0.153   6.797  15.065
   13AGAL   HO634992   0.097   6.759  15.135
   14ARHM    C134993   0.668   6.530  15.437
   14ARHM    H134994   0.645   6.639  15.441
   14ARHM    C534995   0.851   6.381  15.456
   14ARHM    H534996   0.818   6.339  15.360
   14ARHM    O534997   0.809   6.518  15.457
   14ARHM    C234998   0.594   6.456  15.547
   14ARHM    H234999   0.485   6.466  15.530
   14ARHM    O235000   0.624   6.497  15.682
   14ARHM    C335001   0.634   6.310  15.542
   14ARHM    H335002   0.618   6.273  15.439
   14ARHM    O335003   0.552   6.229  15.626
   14ARHM   HO335004   0.577   6.248  15.716
   14ARHM    C435005   0.784   6.302  15.569
   14ARHM    H435006   0.811   6.352  15.665
   14ARHM    O435007   0.831   6.167  15.576
   14ARHM   HO435008   0.851   6.142  15.667
   14ARHM    C635009   1.005   6.377  15.462
   14ARHM   H6135010   1.050   6.452  15.394
   14ARHM   H6235011   1.034   6.395  15.568
   14ARHM   H6335012   1.046   6.278  15.432
   15ARHM    C135013   0.612   6.634  15.711
   15ARHM    H135014   0.539   6.681  15.641
   15ARHM    C535015   0.836   6.664  15.801
   15ARHM    H535016   0.871   6.559  15.782
   15ARHM    O535017   0.738   6.706  15.704
   15ARHM    C235018   0.554   6.647  15.850
   15ARHM    H235019   0.461   6.586  15.857
   15ARHM    O235020   0.522   6.787  15.867
   15ARHM    C335021   0.653   6.594  15.950
   15ARHM    H335022   0.681   6.490  15.920
   15ARHM    O335023   0.588   6.588  16.077
   15ARHM    C435024   0.778   6.679  15.940
   15ARHM    H435025   0.749   6.786  15.953
   15ARHM    O435026   0.876   6.651  16.038
   15ARHM   HO435027   0.944   6.719  16.031
   15ARHM    C635028   0.960   6.754  15.786
   15ARHM   H6135029   1.048   6.717  15.843
   15ARHM   H6235030   0.987   6.755  15.680
   15ARHM   H6335031   0.942   6.858  15.820
   16BMANN   C135032   0.462   6.832  15.987
   16BMANN   H135033   0.539   6.827  16.068
   16BMANN   C535034   0.296   6.803  16.157
   16BMANN   H535035   0.379   6.799  16.232
   16BMANN   O535036   0.346   6.758  16.028
   16BMANN   C235037   0.423   6.979  15.967
   16BMANN   H235038   0.517   7.034  15.940
   16BMANN    N35039   0.327   7.005  15.862
   16BMANN   HN35040   0.232   7.004  15.890
   16BMANN    C35041   0.356   7.034  15.734
   16BMANN    O35042   0.472   7.043  15.693
   16BMANN   CT35043   0.237   7.054  15.643
   16BMANN  HT135044   0.219   7.160  15.621
   16BMANN  HT235045   0.143   7.016  15.688
   16BMANN  HT335046   0.253   6.999  15.548
   16BMANN   C335047   0.372   7.030  16.101
   16BMANN   H335048   0.453   7.018  16.176
   16BMANN   O335049   0.340   7.167  16.094
   16BMANN  HO335050   0.388   7.214  16.164
   16BMANN   C435051   0.252   6.948  16.147
   16BMANN   H435052   0.170   6.957  16.073
   16BMANN   O435053   0.199   6.992  16.273
   16BMANN  HO435054   0.108   6.963  16.280
   16BMANN   C635055   0.185   6.716  16.213
   16BMANN  H6135056   0.190   6.721  16.325
   16BMANN  H6235057   0.087   6.755  16.180
   16BMANN   O635058   0.190   6.580  16.173
   16BMANN  HO635059   0.108   6.559  16.127
   17BGLCN   C135060   0.617   6.473  16.151
   17BGLCN   H135061   0.724   6.448  16.135
   17BGLCN   C535062   0.563   6.243  16.193
   17BGLCN   H535063   0.668   6.210  16.172
   17BGLCN   O535064   0.535   6.361  16.115
   17BGLCN   C235065   0.591   6.515  16.294
   17BGLCN   H235066   0.483   6.536  16.312
   17BGLCN    N35067   0.663   6.638  16.323
   17BGLCN   HN35068   0.747   6.650  16.272
   17BGLCN    C35069   0.632   6.728  16.418
   17BGLCN    O35070   0.529   6.728  16.482
   17BGLCN   CT35071   0.736   6.834  16.440
   17BGLCN  HT135072   0.711   6.929  16.390
   17BGLCN  HT235073   0.834   6.795  16.404
   17BGLCN  HT335074   0.745   6.855  16.548
   17BGLCN   C335075   0.632   6.397  16.379
   17BGLCN   H335076   0.736   6.372  16.345
   17BGLCN   O335077   0.639   6.437  16.518
   17BGLCN   C435078   0.542   6.278  16.341
   17BGLCN   H435079   0.436   6.310  16.351
   17BGLCN   O435080   0.564   6.167  16.428
   17BGLCN  HO435081   0.506   6.092  16.409
   17BGLCN   C635082   0.472   6.128  16.148
   17BGLCN  H6135083   0.526   6.031  16.154
   17BGLCN  H6235084   0.386   6.120  16.218
   17BGLCN   O635085   0.419   6.141  16.016
   17BGLCN  HO635086   0.491   6.158  15.955
   18AGAL    C135087   0.738   6.375  16.598
   18AGAL    H135088   0.709   6.269  16.617
   18AGAL    C535089   0.919   6.510  16.521
   18AGAL    H535090   0.840   6.572  16.476
   18AGAL    O535091   0.866   6.377  16.535
   18AGAL    C235092   0.759   6.443  16.733
   18AGAL    H235093   0.845   6.387  16.776
   18AGAL    O235094   0.653   6.423  16.824
   18AGAL    C335095   0.809   6.587  16.720
   18AGAL    H335096   0.740   6.641  16.653
   18AGAL    O335097   0.812   6.659  16.844
   18AGAL   HO335098   0.771   6.746  16.834
   18AGAL    C435099   0.945   6.581  16.652
   18AGAL    H435100   0.983   6.684  16.629
   18AGAL    O435101   1.044   6.514  16.730
   18AGAL   HO435102   1.062   6.567  16.808
   18AGAL    C635103   1.024   6.513  16.413
   18AGAL   H6135104   0.973   6.480  16.319
   18AGAL   H6235105   1.060   6.617  16.399
   18AGAL    O635106   1.134   6.426  16.437
   18AGAL   HO635107   1.108   6.363  16.505
   19ARHM    C135108   0.698   6.395  16.954
   19ARHM    H135109   0.797   6.442  16.972
   19ARHM    C535110   0.600   6.178  16.961
   19ARHM    H535111   0.562   6.199  16.858
   19ARHM    O535112   0.719   6.255  16.979
   19ARHM    C235113   0.594   6.447  17.048
   19ARHM    H235114   0.569   6.552  17.022
   19ARHM    O235115   0.643   6.443  17.183
   19ARHM    C335116   0.467   6.368  17.032
   19ARHM    H335117   0.431   6.375  16.926
   19ARHM    O335118   0.364   6.420  17.115
   19ARHM   HO335119   0.400   6.428  17.203
   19ARHM    C435120   0.496   6.223  17.061
   19ARHM    H435121   0.534   6.213  17.165
   19ARHM    O435122   0.381   6.141  17.053
   19ARHM   HO435123   0.347   6.144  16.963
   19ARHM    C635124   0.633   6.029  16.964
   19ARHM   H6135125   0.708   6.013  16.884
   19ARHM   H6235126   0.676   5.995  17.061
   19ARHM   H6335127   0.543   5.967  16.943
   20ARHM    C135128   0.741   6.542  17.207
   20ARHM    H135129   0.745   6.616  17.124
   20ARHM    C535130   0.888   6.404  17.332
   20ARHM    H535131   0.816   6.320  17.318
   20ARHM    O535132   0.875   6.491  17.220
   20ARHM    C235133   0.698   6.613  17.332
   20ARHM    H235134   0.590   6.642  17.322
   20ARHM    O235135   0.778   6.729  17.353
   20ARHM    C335136   0.709   6.523  17.449
   20ARHM    H335137   0.645   6.433  17.433
   20ARHM    O335138   0.664   6.595  17.563
   20ARHM    C435139   0.852   6.478  17.460
   20ARHM    H435140   0.924   6.564  17.469
   20ARHM    O435141   0.869   6.394  17.572
   20ARHM   HO435142   0.941   6.336  17.547
   20ARHM    C635143   1.029   6.344  17.333
   20ARHM   H6135144   1.110   6.420  17.344
   20ARHM   H6235145   1.038   6.268  17.413
   20ARHM   H6335146   1.048   6.292  17.236
   21BMANN   C135147   0.730   6.837  17.278
   21BMANN   H135148   0.650   6.800  17.209
   21BMANN   C535149   0.762   6.988  17.102
   21BMANN   H535150   0.677   6.942  17.046
   21BMANN   O535151   0.826   6.891  17.188
   21BMANN   C235152   0.672   6.941  17.371
   21BMANN   H235153   0.592   6.889  17.429
   21BMANN    N35154   0.769   6.998  17.465
   21BMANN   HN35155   0.858   7.020  17.427
   21BMANN    C35156   0.744   7.030  17.595
   21BMANN    O35157   0.632   7.037  17.641
   21BMANN   CT35158   0.862   7.064  17.684
   21BMANN  HT135159   0.895   7.169  17.666
   21BMANN  HT235160   0.945   6.993  17.667
   21BMANN  HT335161   0.832   7.058  17.791
   21BMANN   C335162   0.607   7.044  17.283
   21BMANN   H335163   0.526   6.991  17.228
   21BMANN   O335164   0.543   7.144  17.360
   21BMANN  HO335165   0.609   7.187  17.415
   21BMANN   C435166   0.707   7.102  17.185
   21BMANN   H435167   0.791   7.154  17.237
   21BMANN   O435168   0.646   7.195  17.098
   21BMANN  HO435169   0.685   7.283  17.106
   21BMANN   C635170   0.857   7.036  16.998
   21BMANN  H6135171   0.804   7.092  16.917
   21BMANN  H6235172   0.921   7.109  17.050
   21BMANN   O635173   0.932   6.927  16.942
   21BMANN  HO635174   0.992   6.900  17.013
   22BGLCN   C135175   0.594   6.522  17.660
   22BGLCN   H135176   0.625   6.415  17.661
   22BGLCN   C535177   0.384   6.456  17.746
   22BGLCN   H535178   0.419   6.350  17.746
   22BGLCN   O535179   0.453   6.530  17.642
   22BGLCN   C235180   0.632   6.586  17.791
   22BGLCN   H235181   0.598   6.693  17.787
   22BGLCN    N35182   0.775   6.579  17.809
   22BGLCN   HN35183   0.819   6.496  17.776
   22BGLCN    C35184   0.848   6.672  17.872
   22BGLCN    O35185   0.801   6.773  17.924
   22BGLCN   CT35186   0.995   6.643  17.876
   22BGLCN  HT135187   1.040   6.698  17.791
   22BGLCN  HT235188   1.014   6.535  17.864
   22BGLCN  HT335189   1.040   6.677  17.973
   22BGLCN   C335190   0.563   6.514  17.905
   22BGLCN   H335191   0.591   6.406  17.903
   22BGLCN   O335192   0.611   6.574  18.026
   22BGLCN   C435193   0.415   6.518  17.881
   22BGLCN   H435194   0.384   6.621  17.871
   22BGLCN   O435195   0.339   6.462  17.988
   22BGLCN  HO435196   0.261   6.516  18.006
   22BGLCN   C635197   0.237   6.464  17.714
   22BGLCN  H6135198   0.178   6.438  17.805
   22BGLCN  H6235199   0.207   6.566  17.682
   22BGLCN   O635200   0.201   6.368  17.617
   22BGLCN  HO635201   0.248   6.377  17.534
   23AGAL    C135202   0.598   6.502  18.146
   23AGAL    H135203   0.493   6.507  18.181
   23AGAL    C535204   0.775   6.345  18.111
   23AGAL    H535205   0.801   6.402  18.018
   23AGAL    O535206   0.635   6.363  18.136
   23AGAL    C235207   0.681   6.567  18.254
   23AGAL    H235208   0.662   6.507  18.347
   23AGAL    O235209   0.642   6.705  18.279
   23AGAL    C335210   0.830   6.550  18.225
   23AGAL    H335211   0.851   6.588  18.123
   23AGAL    O335212   0.912   6.626  18.312
   23AGAL   HO335213   0.887   6.607  18.402
   23AGAL    C435214   0.862   6.401  18.223
   23AGAL    H435215   0.969   6.383  18.198
   23AGAL    O435216   0.835   6.338  18.347
   23AGAL   HO435217   0.813   6.247  18.322
   23AGAL    C635218   0.800   6.200  18.076
   23AGAL   H6135219   0.720   6.168  18.010
   23AGAL   H6235220   0.895   6.187  18.018
   23AGAL    O635221   0.796   6.113  18.187
   23AGAL   HO635222   0.789   6.024  18.153
   24ARHM    C135223   0.532   6.728  18.364
   24ARHM    H135224   0.473   6.634  18.375
   24ARHM    C535225   0.503   6.958  18.301
   24ARHM    H535226   0.588   6.943  18.231
   24ARHM    O535227   0.440   6.830  18.317
   24ARHM    C235228   0.591   6.771  18.497
   24ARHM    H235229   0.667   6.696  18.529
   24ARHM    O235230   0.489   6.787  18.597
   24ARHM    C335231   0.661   6.904  18.479
   24ARHM    H335232   0.738   6.890  18.400
   24ARHM    O335233   0.732   6.945  18.595
   24ARHM   HO335234   0.674   6.996  18.653
   24ARHM    C435235   0.559   7.006  18.433
   24ARHM    H435236   0.475   7.013  18.507
   24ARHM    O435237   0.616   7.136  18.418
   24ARHM   HO435238   0.553   7.206  18.437
   24ARHM    C635239   0.408   7.058  18.233
   24ARHM   H6135240   0.466   7.134  18.178
   24ARHM   H6235241   0.348   7.005  18.156
   24ARHM   H6335242   0.340   7.109  18.305
   25ARHM    C135243   0.441   6.667  18.651
   25ARHM    H135244   0.468   6.583  18.584
   25ARHM    C535245   0.246   6.754  18.757
   25ARHM    H535246   0.276   6.856  18.725
   25ARHM    O535247   0.298   6.660  18.662
   25ARHM    C235248   0.509   6.644  18.783
   25ARHM    H235249   0.619   6.662  18.773
   25ARHM    O235250   0.486   6.510  18.825
   25ARHM    C335251   0.456   6.744  18.882
   25ARHM    H335252   0.478   6.848  18.845
   25ARHM    O335253   0.522   6.720  19.006
   25ARHM    C435254   0.307   6.732  18.895
   25ARHM    H435255   0.278   6.629  18.927
   25ARHM    O435256   0.260   6.826  18.992
   25ARHM   HO435257   0.188   6.785  19.040
   25ARHM    C635258   0.092   6.748  18.758
   25ARHM   H6135259   0.052   6.754  18.655
   25ARHM   H6235260   0.056   6.654  18.804
   25ARHM   H6335261   0.052   6.834  18.817
   26BMANN   C135262   0.568   6.415  18.764
   26BMANN   H135263   0.660   6.461  18.722
   26BMANN   C535264   0.592   6.250  18.596
   26BMANN   H535265   0.679   6.306  18.554
   26BMANN   O535266   0.503   6.343  18.658
   26BMANN   C235267   0.609   6.320  18.872
   26BMANN   H235268   0.662   6.381  18.950
   26BMANN    N35269   0.492   6.252  18.929
   26BMANN   HN35270   0.432   6.205  18.865
   26BMANN    C35271   0.465   6.246  19.059
   26BMANN    O35272   0.530   6.307  19.143
   26BMANN   CT35273   0.355   6.150  19.101
   26BMANN  HT135274   0.281   6.139  19.020
   26BMANN  HT235275   0.304   6.179  19.195
   26BMANN  HT335276   0.401   6.051  19.118
   26BMANN   C335277   0.710   6.226  18.813
   26BMANN   H335278   0.797   6.283  18.771
   26BMANN   O335279   0.764   6.141  18.914
   26BMANN  HO335280   0.828   6.190  18.966
   26BMANN   C435281   0.643   6.153  18.700
   26BMANN   H435282   0.560   6.087  18.734
   26BMANN   O435283   0.739   6.075  18.638
   26BMANN  HO435284   0.736   5.990  18.684
   26BMANN   C635285   0.520   6.188  18.477
   26BMANN  H6135286   0.458   6.266  18.427
   26BMANN  H6235287   0.592   6.150  18.400
   26BMANN   O635288   0.433   6.081  18.515
   26BMANN  HO635289   0.489   6.009  18.547
   27BGLCN   C135290   0.559   6.830  19.083
   27BGLCN   H135291   0.486   6.913  19.079
   27BGLCN   C535292   0.730   6.985  19.128
   27BGLCN   H535293   0.650   7.064  19.129
   27BGLCN   O535294   0.687   6.878  19.043
   27BGLCN   C235295   0.569   6.772  19.223
   27BGLCN   H235296   0.649   6.694  19.220
   27BGLCN    N35297   0.445   6.708  19.266
   27BGLCN   HN35298   0.361   6.755  19.240
   27BGLCN    C35299   0.445   6.591  19.333
   27BGLCN    O35300   0.545   6.546  19.389
   27BGLCN   CT35301   0.317   6.512  19.338
   27BGLCN  HT135302   0.240   6.557  19.273
   27BGLCN  HT235303   0.279   6.502  19.441
   27BGLCN  HT335304   0.338   6.408  19.303
   27BGLCN   C335305   0.614   6.878  19.318
   27BGLCN   H335306   0.540   6.961  19.314
   27BGLCN   O335307   0.611   6.815  19.449
   27BGLCN   C435308   0.747   6.933  19.270
   27BGLCN   H435309   0.824   6.852  19.270
   27BGLCN   O435310   0.789   7.040  19.351
   27BGLCN  HO435311   0.730   7.113  19.337
   27BGLCN   C635312   0.853   7.052  19.069
   27BGLCN  H6135313   0.872   7.149  19.120
   27BGLCN  H6235314   0.940   6.987  19.085
   27BGLCN   O635315   0.839   7.071  18.928
   27BGLCN  HO635316   0.909   7.124  18.890
   28AGAL    C135317   0.611   6.901  19.561
   28AGAL    H135318   0.711   6.948  19.569
   28AGAL    C535319   0.380   6.958  19.549
   28AGAL    H535320   0.368   6.871  19.479
   28AGAL    O535321   0.516   7.007  19.542
   28AGAL    C235322   0.585   6.833  19.698
   28AGAL    H235323   0.594   6.921  19.766
   28AGAL    O235324   0.678   6.735  19.746
   28AGAL    C335325   0.444   6.781  19.705
   28AGAL    H335326   0.428   6.711  19.620
   28AGAL    O335327   0.412   6.705  19.821
   28AGAL   HO335328   0.377   6.618  19.798
   28AGAL    C435329   0.352   6.899  19.684
   28AGAL    H435330   0.250   6.861  19.678
   28AGAL    O435331   0.360   6.996  19.786
   28AGAL   HO435332   0.284   6.986  19.844
   28AGAL    C635333   0.277   7.061  19.500
   28AGAL   H6135334   0.296   7.076  19.392
   28AGAL   H6235335   0.173   7.024  19.513
   28AGAL    O635336   0.281   7.189  19.562
   28AGAL   HO635337   0.363   7.229  19.536
   29ARHM    C135338   0.701   6.757  19.885
   29ARHM    H135339   0.614   6.806  19.932
   29ARHM    C535340   0.934   6.780  19.854
   29ARHM    H535341   0.914   6.754  19.749
   29ARHM    O535342   0.816   6.839  19.907
   29ARHM    C235343   0.722   6.625  19.953
   29ARHM    H235344   0.634   6.561  19.929
   29ARHM    O235345   0.733   6.643  20.096
   29ARHM    C335346   0.845   6.559  19.897
   29ARHM    H335347   0.832   6.545  19.787
   29ARHM    O335348   0.857   6.429  19.950
   29ARHM   HO335349   0.952   6.416  19.969
   29ARHM    C435350   0.968   6.647  19.920
   29ARHM    H435351   0.983   6.664  20.029
   29ARHM    O435352   1.090   6.591  19.870
   29ARHM   HO435353   1.081   6.555  19.782
   29ARHM    C635354   1.039   6.891  19.856
   29ARHM   H6135355   0.994   6.982  19.811
   29ARHM   H6235356   1.066   6.913  19.962
   29ARHM   H6335357   1.130   6.865  19.800
   30ARHM    C135358   0.616   6.624  20.173
   30ARHM    H135359   0.575   6.523  20.153
   30ARHM    C535360   0.559   6.856  20.186
   30ARHM    H535361   0.652   6.874  20.127
   30ARHM    O535362   0.515   6.723  20.153
   30ARHM    C235363   0.655   6.630  20.319
   30ARHM    H235364   0.737   6.556  20.339
   30ARHM    O235365   0.538   6.602  20.396
   30ARHM    C335366   0.704   6.767  20.359
   30ARHM    H335367   0.787   6.793  20.288
   30ARHM    O335368   0.762   6.769  20.491
   30ARHM    C435369   0.594   6.867  20.333
   30ARHM    H435370   0.502   6.842  20.391
   30ARHM    O435371   0.627   7.000  20.370
   30ARHM   HO435372   0.682   7.040  20.303
   30ARHM    C635373   0.455   6.960  20.142
   30ARHM   H6135374   0.496   7.062  20.159
   30ARHM   H6235375   0.435   6.949  20.033
   30ARHM   H6335376   0.360   6.947  20.198
   31BMANN   C135377   0.520   6.469  20.426
   31BMANN   H135378   0.617   6.421  20.452
   31BMANN   C535379   0.421   6.263  20.357
   31BMANN   H535380   0.519   6.226  20.388
   31BMANN   O535381   0.448   6.399  20.322
   31BMANN   C235382   0.430   6.472  20.545
   31BMANN   H235383   0.489   6.519  20.628
   31BMANN    N35384   0.313   6.553  20.519
   31BMANN   HN35385   0.296   6.572  20.423
   31BMANN    C35386   0.247   6.617  20.615
   31BMANN    O35387   0.284   6.615  20.732
   31BMANN   CT35388   0.127   6.695  20.572
   31BMANN  HT135389   0.073   6.636  20.494
   31BMANN  HT235390   0.165   6.788  20.529
   31BMANN  HT335391   0.061   6.718  20.657
   31BMANN   C335392   0.402   6.329  20.587
   31BMANN   H335393   0.499   6.278  20.604
   31BMANN   O335394   0.336   6.327  20.712
   31BMANN  HO335395   0.346   6.415  20.750
   31BMANN   C435396   0.330   6.255  20.478
   31BMANN   H435397   0.234   6.304  20.450
   31BMANN   O435398   0.302   6.119  20.512
   31BMANN  HO435399   0.377   6.078  20.558
   31BMANN   C635400   0.373   6.178  20.242
   31BMANN  H6135401   0.375   6.069  20.267
   31BMANN  H6235402   0.268   6.205  20.225
   31BMANN   O635403   0.444   6.203  20.121
   31BMANN  HO635404   0.529   6.159  20.118
   32BGLCN   C135405   0.671   6.779  20.597
   32BGLCN   H135406   0.579   6.721  20.576
   32BGLCN   C535407   0.532   6.922  20.728
   32BGLCN   H535408   0.445   6.860  20.695
   32BGLCN   O535409   0.632   6.914  20.626
   32BGLCN   C235410   0.735   6.720  20.721
   32BGLCN   H235411   0.817   6.790  20.750
   32BGLCN    N35412   0.790   6.589  20.693
   32BGLCN   HN35413   0.740   6.539  20.623
   32BGLCN    C35414   0.902   6.538  20.745
   32BGLCN    O35415   0.970   6.597  20.828
   32BGLCN   CT35416   0.936   6.400  20.691
   32BGLCN  HT135417   0.879   6.386  20.598
   32BGLCN  HT235418   0.910   6.318  20.761
   32BGLCN  HT335419   1.045   6.392  20.668
   32BGLCN   C335420   0.628   6.718  20.829
   32BGLCN   H335421   0.539   6.667  20.784
   32BGLCN   O335422   0.666   6.645  20.947
   32BGLCN   C435423   0.589   6.862  20.856
   32BGLCN   H435424   0.681   6.918  20.887
   32BGLCN   O435425   0.494   6.870  20.960
   32BGLCN  HO435426   0.540   6.884  21.044
   32BGLCN   C635427   0.480   7.065  20.741
   32BGLCN  H6135428   0.393   7.070  20.810
   32BGLCN  H6235429   0.559   7.129  20.786
   32BGLCN   O635430   0.433   7.118  20.617
   32BGLCN  HO635431   0.409   7.045  20.559
   33AGAL    C135432   0.558   6.571  21.005
   33AGAL    H135433   0.464   6.629  20.998
   33AGAL    C535434   0.649   6.355  20.957
   33AGAL    H535435   0.736   6.415  20.921
   33AGAL    O535436   0.536   6.443  20.941
   33AGAL    C235437   0.589   6.546  21.151
   33AGAL    H235438   0.506   6.483  21.190
   33AGAL    O235439   0.584   6.671  21.224
   33AGAL    C335440   0.714   6.460  21.167
   33AGAL    H335441   0.799   6.504  21.108
   33AGAL    O335442   0.765   6.457  21.299
   33AGAL   HO335443   0.700   6.421  21.360
   33AGAL    C435444   0.684   6.324  21.102
   33AGAL    H435445   0.777   6.263  21.099
   33AGAL    O435446   0.586   6.242  21.167
   33AGAL   HO435447   0.527   6.288  21.227
   33AGAL    C635448   0.642   6.235  20.863
   33AGAL   H6135449   0.644   6.278  20.760
   33AGAL   H6235450   0.733   6.171  20.874
   33AGAL    O635451   0.529   6.147  20.874
   33AGAL   HO635452   0.452   6.183  20.827
   34ARHM    C135453   0.504   6.665  21.341
   34ARHM    H135454   0.536   6.577  21.401
   34ARHM    C535455   0.300   6.754  21.242
   34ARHM    H535456   0.348   6.755  21.142
   34ARHM    O535457   0.361   6.648  21.319
   34ARHM    C235458   0.530   6.793  21.417
   34ARHM    H235459   0.640   6.810  21.421
   34ARHM    O235460   0.481   6.793  21.554
   34ARHM    C335461   0.470   6.909  21.337
   34ARHM    H335462   0.517   6.911  21.235
   34ARHM    O335463   0.498   7.035  21.398
   34ARHM   HO335464   0.515   7.104  21.332
   34ARHM    C435465   0.322   6.886  21.315
   34ARHM    H435466   0.270   6.876  21.414
   34ARHM    O435467   0.263   6.994  21.244
   34ARHM   HO435468   0.253   7.070  21.303
   34ARHM    C635469   0.149   6.731  21.215
   34ARHM   H6135470   0.095   6.724  21.309
   34ARHM   H6235471   0.105   6.820  21.166
   34ARHM   H6335472   0.126   6.642  21.153
   35ARHM    C135473   0.523   6.690  21.642
   35ARHM    H135474   0.630   6.666  21.624
   35ARHM    C535475   0.304   6.596  21.657
   35ARHM    H535476   0.263   6.673  21.587
   35ARHM    O535477   0.442   6.571  21.629
   35ARHM    C235478   0.510   6.738  21.787
   35ARHM    H235479   0.570   6.831  21.803
   35ARHM    O235480   0.556   6.636  21.877
   35ARHM    C335481   0.366   6.772  21.818
   35ARHM    H335482   0.330   6.849  21.747
   35ARHM    O335483   0.355   6.834  21.946
   35ARHM   HO335484   0.411   6.789  22.011
   35ARHM    C435485   0.283   6.645  21.801
   35ARHM    H435486   0.318   6.565  21.871
   35ARHM    O435487   0.144   6.669  21.826
   35ARHM   HO435488   0.122   6.759  21.799
   35ARHM    C635489   0.228   6.468  21.621
   35ARHM   H6135490   0.231   6.443  21.513
   35ARHM   H6235491   0.266   6.382  21.679
   35ARHM   H6335492   0.121   6.490  21.640
   36BMANN   C135493   0.695   6.620  21.883
   36BMANN   H135494   0.743   6.712  21.849
   36BMANN   C535495   0.888   6.505  21.807
   36BMANN   H535496   0.930   6.603  21.778
   36BMANN   O535497   0.744   6.513  21.801
   36BMANN   C235498   0.730   6.592  22.028
   36BMANN   H235499   0.697   6.683  22.084
   36BMANN    N35500   0.663   6.476  22.086
   36BMANN   HN35501   0.649   6.398  22.026
   36BMANN    C35502   0.637   6.466  22.219
   36BMANN    O35503   0.655   6.559  22.298
   36BMANN   CT35504   0.591   6.333  22.272
   36BMANN  HT135505   0.646   6.251  22.224
   36BMANN  HT235506   0.483   6.319  22.255
   36BMANN  HT335507   0.603   6.331  22.382
   36BMANN   C335508   0.881   6.585  22.039
   36BMANN   H335509   0.926   6.681  22.003
   36BMANN   O335510   0.924   6.566  22.174
   36BMANN  HO335511   0.979   6.639  22.204
   36BMANN   C435512   0.933   6.476  21.949
   36BMANN   H435513   0.891   6.378  21.979
   36BMANN   O435514   1.075   6.467  21.960
   36BMANN  HO435515   1.083   6.448  22.054
   36BMANN   C635516   0.940   6.404  21.709
   36BMANN  H6135517   0.906   6.429  21.606
   36BMANN  H6235518   1.051   6.414  21.707
   36BMANN   O635519   0.904   6.270  21.746
   36BMANN  HO635520   0.976   6.233  21.798
    1ECLIP HB6S35521   0.188   1.283  11.775
    1ECLIP  OB635522   0.087   1.186  11.917
    1ECLIP  CB635523   0.177   1.177  11.804
    1ECLIP HB6R35524   0.272   1.138  11.844
    1ECLIP  CB535525   0.145   1.096  11.672
    1ECLIP  OB535526   0.026   1.145  11.610
    1ECLIP  HB535527   0.130   0.991  11.705
    1ECLIP  CB135528  -0.032   1.080  11.499
    1ECLIP  HB135529  -0.044   0.972  11.525
    1ECLIP  OA635530  -0.163   1.126  11.464
    1ECLIP  CA635531  -0.189   1.264  11.492
    1ECLIP HA6R35532  -0.096   1.323  11.512
    1ECLIP HA6S35533  -0.256   1.272  11.581
    1ECLIP  CB435534   0.246   1.111  11.563
    1ECLIP  HB435535   0.261   1.219  11.538
    1ECLIP  OB435536   0.361   1.046  11.619
    1ECLIP   PB35537   0.491   1.135  11.670
    1ECLIP OPB435538   0.557   1.066  11.789
    1ECLIP OPB335539   0.428   1.271  11.705
    1ECLIP OPB235540   0.581   1.137  11.547
    1ECLIP  CB335541   0.197   1.037  11.441
    1ECLIP  OB335542   0.281   1.052  11.328
    1ECLIP  HB335543   0.175   0.931  11.469
    1ECLIP  C7135544   0.378   0.966  11.313
    1ECLIP  O7135545   0.379   0.854  11.363
    1ECLIP  C7235546   0.441   0.995  11.174
    1ECLIP H72R35547   0.362   0.996  11.096
    1ECLIP H72S35548   0.515   0.915  11.152
    1ECLIP  CB235549   0.067   1.097  11.395
    1ECLIP  HB235550   0.079   1.208  11.383
    1ECLIP  NB235551   0.014   1.034  11.276
    1ECLIP HNB235552  -0.043   0.957  11.295
    1ECLIP  CA435553  -0.361   1.227  11.313
    1ECLIP  HA435554  -0.308   1.135  11.283
    1ECLIP  OA435555  -0.454   1.191  11.416
    1ECLIP HOA435556  -0.409   1.167  11.501
    1ECLIP  CA535557  -0.257   1.321  11.370
    1ECLIP  HA535558  -0.291   1.425  11.393
    1ECLIP  OA535559  -0.161   1.336  11.270
    1ECLIP  CA135560  -0.209   1.394  11.147
    1ECLIP  HA135561  -0.122   1.378  11.079
    1ECLIP  OA135562  -0.243   1.533  11.158
    1ECLIP OPA235563  -0.191   1.686  11.355
    1ECLIP OPA335564  -0.001   1.562  11.235
    1ECLIP OPA435565  -0.115   1.750  11.112
    1ECLIP   PA35566  -0.128   1.640  11.216
    1ECLIP  CA335567  -0.425   1.283  11.185
    1ECLIP  HA335568  -0.478   1.380  11.195
    1ECLIP  OA335569  -0.529   1.189  11.158
    1ECLIP  C3135570  -0.497   1.083  11.086
    1ECLIP  O3135571  -0.486   1.076  10.967
    1ECLIP  C3235572  -0.548   0.962  11.160
    1ECLIP H32R35573  -0.626   0.911  11.103
    1ECLIP H32S35574  -0.577   0.986  11.265
    1ECLIP  CA235575  -0.315   1.304  11.085
    1ECLIP  HA235576  -0.266   1.205  11.067
    1ECLIP  NA235577  -0.366   1.358  10.959
    1ECLIP HNA235578  -0.464   1.352  10.945
    1ECLIP  C7335579   0.509   1.133  11.171
    1ECLIP H73R35580   0.571   1.143  11.264
    1ECLIP  O7335581   0.404   1.230  11.162
    1ECLIP  C8135582   0.414   1.344  11.231
    1ECLIP  O8135583   0.515   1.378  11.291
    1ECLIP  C8235584   0.315   1.445  11.170
    1ECLIP H82R35585   0.325   1.542  11.223
    1ECLIP H82S35586   0.212   1.409  11.192
    1ECLIP  C8335587   0.330   1.464  11.017
    1ECLIP H83R35588   0.279   1.380  10.965
    1ECLIP H83S35589   0.437   1.462  10.990
    1ECLIP  C8435590   0.262   1.592  10.965
    1ECLIP H84R35591   0.318   1.681  10.998
    1ECLIP H84S35592   0.161   1.597  11.013
    1ECLIP  C8535593   0.242   1.592  10.813
    1ECLIP H85R35594   0.205   1.489  10.790
    1ECLIP H85S35595   0.338   1.604  10.760
    1ECLIP  C8635596   0.131   1.689  10.764
    1ECLIP H86R35597   0.173   1.786  10.732
    1ECLIP H86S35598   0.061   1.710  10.849
    1ECLIP  C8735599   0.045   1.629  10.652
    1ECLIP H87R35600  -0.026   1.706  10.616
    1ECLIP H87S35601  -0.017   1.546  10.694
    1ECLIP  C8835602   0.129   1.571  10.539
    1ECLIP H88R35603   0.171   1.474  10.571
    1ECLIP H88S35604   0.217   1.637  10.524
    1ECLIP  C8935605   0.050   1.550  10.409
    1ECLIP H89R35606  -0.060   1.546  10.426
    1ECLIP H89S35607   0.077   1.453  10.362
    1ECLIP C81035608   0.086   1.658  10.308
    1ECLIPH810R35609   0.189   1.691  10.330
    1ECLIPH810S35610   0.017   1.745  10.323
    1ECLIP C81135611   0.077   1.611  10.164
    1ECLIPH811R35612   0.068   1.704  10.104
    1ECLIPH811S35613  -0.014   1.549  10.152
    1ECLIP C81235614   0.195   1.527  10.111
    1ECLIPH812R35615   0.166   1.491  10.008
    1ECLIPH812S35616   0.207   1.439  10.177
    1ECLIP C81335617   0.330   1.597  10.100
    1ECLIPH813R35618   0.320   1.682  10.029
    1ECLIPH813S35619   0.362   1.638  10.199
    1ECLIP C81435620   0.440   1.503  10.049
    1ECLIPH814R35621   0.409   1.448   9.958
    1ECLIPH814S35622   0.466   1.430  10.128
    1ECLIPH814T35623   0.531   1.562  10.025
    1ECLIP  C7435624   0.601   1.159  11.049
    1ECLIP H74R35625   0.687   1.089  11.041
    1ECLIP H74S35626   0.646   1.259  11.068
    1ECLIP  C7535627   0.526   1.169  10.914
    1ECLIP H75R35628   0.576   1.249  10.855
    1ECLIP H75S35629   0.422   1.203  10.933
    1ECLIP  C7635630   0.519   1.040  10.831
    1ECLIP H76R35631   0.441   0.973  10.874
    1ECLIP H76S35632   0.616   0.985  10.835
    1ECLIP  C7735633   0.487   1.061  10.682
    1ECLIP H77R35634   0.570   1.118  10.635
    1ECLIP H77S35635   0.397   1.123  10.667
    1ECLIP  C7835636   0.459   0.924  10.616
    1ECLIP H78R35637   0.543   0.857  10.643
    1ECLIP H78S35638   0.369   0.884  10.668
    1ECLIP  C7935639   0.425   0.922  10.465
    1ECLIP H79R35640   0.314   0.923  10.453
    1ECLIP H79S35641   0.461   0.827  10.419
    1ECLIP C71035642   0.488   1.032  10.381
    1ECLIPH710R35643   0.462   1.132  10.423
    1ECLIPH710S35644   0.598   1.019  10.385
    1ECLIP C71135645   0.444   1.030  10.234
    1ECLIPH711R35646   0.471   0.932  10.189
    1ECLIPH711S35647   0.334   1.044  10.228
    1ECLIP C71235648   0.512   1.144  10.159
    1ECLIPH712R35649   0.622   1.128  10.162
    1ECLIPH712S35650   0.491   1.237  10.218
    1ECLIP C71335651   0.462   1.162  10.015
    1ECLIPH713R35652   0.353   1.186  10.020
    1ECLIPH713S35653   0.513   1.249   9.968
    1ECLIP C71435654   0.486   1.043   9.923
    1ECLIPH714R35655   0.595   1.022   9.916
    1ECLIPH714S35656   0.433   0.951   9.959
    1ECLIPH714T35657   0.449   1.067   9.822
    1ECLIP  C5135658   0.048   1.080  11.156
    1ECLIP  O5135659   0.097   1.189  11.143
    1ECLIP  C5235660   0.026   0.987  11.040
    1ECLIP H52R35661   0.115   0.921  11.028
    1ECLIP H52S35662  -0.062   0.925  11.060
    1ECLIP  C5335663   0.003   1.069  10.912
    1ECLIP H53R35664  -0.051   1.164  10.934
    1ECLIP  O5335665  -0.068   0.980  10.824
    1ECLIP  C6135666  -0.188   1.020  10.780
    1ECLIP  O6135667  -0.254   1.108  10.830
    1ECLIP  C6235668  -0.249   0.908  10.694
    1ECLIP H62R35669  -0.285   0.824  10.756
    1ECLIP H62S35670  -0.164   0.868  10.636
    1ECLIP  C6335671  -0.365   0.963  10.606
    1ECLIP H63R35672  -0.332   1.060  10.563
    1ECLIP H63S35673  -0.456   0.982  10.668
    1ECLIP  C6435674  -0.407   0.875  10.487
    1ECLIP H64R35675  -0.494   0.921  10.435
    1ECLIP H64S35676  -0.437   0.776  10.528
    1ECLIP  C6535677  -0.290   0.857  10.390
    1ECLIP H65R35678  -0.211   0.807  10.450
    1ECLIP H65S35679  -0.251   0.957  10.358
    1ECLIP  C6635680  -0.312   0.772  10.264
    1ECLIP H66R35681  -0.345   0.670  10.292
    1ECLIP H66S35682  -0.211   0.765  10.216
    1ECLIP  C6735683  -0.407   0.826  10.157
    1ECLIP H67R35684  -0.508   0.850  10.196
    1ECLIP H67S35685  -0.419   0.752  10.074
    1ECLIP  C6835686  -0.363   0.960  10.103
    1ECLIP H68R35687  -0.257   0.952  10.067
    1ECLIP H68S35688  -0.362   1.037  10.181
    1ECLIP  C6935689  -0.465   1.005  10.000
    1ECLIP H69R35690  -0.563   0.954   9.987
    1ECLIP H69S35691  -0.430   0.949   9.922
    1ECLIP C61035692  -0.445   1.140   9.940
    1ECLIPH610R35693  -0.340   1.176   9.943
    1ECLIPH610S35694  -0.510   1.201  10.006
    1ECLIP C61135695  -0.494   1.147   9.797
    1ECLIPH611R35696  -0.593   1.095   9.793
    1ECLIPH611S35697  -0.494   1.254   9.782
    1ECLIP C61235698  -0.415   1.116   9.673
    1ECLIPH612R35699  -0.319   1.169   9.672
    1ECLIPH612S35700  -0.412   1.012   9.680
    1ECLIPH612T35701  -0.464   1.119   9.575
    1ECLIP  C5435702   0.143   1.102  10.853
    1ECLIP H54R35703   0.190   1.006  10.824
    1ECLIP H54S35704   0.204   1.148  10.934
    1ECLIP  C5535705   0.146   1.199  10.733
    1ECLIP H55R35706   0.249   1.238  10.719
    1ECLIP H55S35707   0.083   1.287  10.756
    1ECLIP  C5635708   0.105   1.124  10.605
    1ECLIP H56R35709   0.005   1.079  10.622
    1ECLIP H56S35710   0.176   1.040  10.587
    1ECLIP  C5735711   0.090   1.205  10.477
    1ECLIP H57R35712   0.181   1.263  10.454
    1ECLIP H57S35713   0.007   1.278  10.491
    1ECLIP  C5835714   0.053   1.110  10.361
    1ECLIP H58R35715   0.119   1.021  10.358
    1ECLIP H58S35716  -0.049   1.070  10.382
    1ECLIP  C5935717   0.060   1.180  10.225
    1ECLIP H59R35718   0.161   1.223  10.209
    1ECLIP H59S35719  -0.012   1.265  10.233
    1ECLIP C51035720   0.037   1.089  10.104
    1ECLIPH510R35721  -0.052   1.023  10.119
    1ECLIPH510S35722   0.125   1.022  10.089
    1ECLIP C51135723   0.020   1.168   9.975
    1ECLIPH511R35724  -0.087   1.201   9.968
    1ECLIPH511S35725   0.084   1.257   9.964
    1ECLIP C51235726   0.052   1.087   9.854
    1ECLIPH512R35727   0.045   1.133   9.759
    1ECLIPH512S35728   0.133   1.010   9.854
    1ECLIP C51335729  -0.077   1.045   9.806
    1ECLIPH513R35730  -0.166   1.107   9.810
    1ECLIPH513S35731  -0.086   0.978   9.896
    1ECLIP C51435732  -0.062   0.992   9.663
    1ECLIPH514R35733   0.026   0.933   9.690
    1ECLIPH514S35734  -0.148   0.936   9.628
    1ECLIPH514T35735  -0.046   1.035   9.566
    1ECLIP  C3335736  -0.447   0.859  11.154
    1ECLIP H33R35737  -0.480   0.765  11.206
    1ECLIP  O3335738  -0.353   0.905  11.261
    1ECLIP HO3335739  -0.368   0.897  11.361
    1ECLIP  C3435740  -0.356   0.811  10.998
    1ECLIP H34R35741  -0.293   0.902  10.986
    1ECLIP H34S35742  -0.431   0.775  10.932
    1ECLIP  C3535743  -0.237   0.670  10.987
    1ECLIP H35R35744  -0.266   0.580  11.049
    1ECLIP H35S35745  -0.144   0.694  11.063
    1ECLIP  C3635746  -0.123   0.657  10.912
    1ECLIP H36R35747  -0.128   0.764  10.882
    1ECLIP H36S35748  -0.178   0.576  10.856
    1ECLIP  C3735749   0.013   0.618  10.978
    1ECLIP H37R35750   0.011   0.511  11.001
    1ECLIP H37S35751   0.045   0.664  11.075
    1ECLIP  C3835752   0.112   0.658  10.875
    1ECLIP H38R35753   0.131   0.768  10.877
    1ECLIP H38S35754   0.206   0.606  10.902
    1ECLIP  C3935755   0.058   0.621  10.736
    1ECLIP H39R35756  -0.038   0.670  10.708
    1ECLIP H39S35757   0.046   0.510  10.733
    1ECLIP C31035758   0.149   0.661  10.622
    1ECLIPH310R35759   0.238   0.595  10.632
    1ECLIPH310S35760   0.181   0.767  10.632
    1ECLIP C31135761   0.076   0.653  10.487
    1ECLIPH311R35762   0.004   0.568  10.489
    1ECLIPH311S35763   0.017   0.746  10.473
    1ECLIP C31235764   0.169   0.642  10.366
    1ECLIPH312R35765   0.261   0.701  10.385
    1ECLIPH312S35766   0.197   0.535  10.354
    1ECLIP C31335767   0.102   0.691  10.237
    1ECLIPH313R35768   0.026   0.614  10.211
    1ECLIPH313S35769   0.049   0.787  10.254
    1ECLIP C31435770   0.198   0.708  10.118
    1ECLIPH314R35771   0.247   0.610  10.096
    1ECLIPH314S35772   0.143   0.741  10.027
    1ECLIPH314T35773   0.276   0.783  10.141
    1ECLIP  C1135774  -0.293   1.416  10.860
    1ECLIP  O1135775  -0.172   1.407  10.844
    1ECLIP  C1235776  -0.374   1.504  10.769
    1ECLIP H12R35777  -0.351   1.609  10.793
    1ECLIP H12S35778  -0.481   1.480  10.788
    1ECLIP  C1335779  -0.346   1.477  10.622
    1ECLIP H13R35780  -0.237   1.464  10.600
    1ECLIP  O1335781  -0.395   1.593  10.552
    1ECLIP HO1335782  -0.348   1.602  10.467
    1ECLIP  C1435783  -0.419   1.348  10.580
    1ECLIP H14R35784  -0.517   1.339  10.632
    1ECLIP H14S35785  -0.355   1.263  10.613
    1ECLIP  C1535786  -0.443   1.329  10.431
    1ECLIP H15R35787  -0.499   1.417  10.392
    1ECLIP H15S35788  -0.509   1.240  10.419
    1ECLIP  C1635789  -0.312   1.308  10.354
    1ECLIP H16R35790  -0.278   1.203  10.364
    1ECLIP H16S35791  -0.232   1.370  10.401
    1ECLIP  C1735792  -0.329   1.343  10.206
    1ECLIP H17R35793  -0.426   1.297  10.175
    1ECLIP H17S35794  -0.249   1.300  10.143
    1ECLIP  C1835795  -0.335   1.494  10.184
    1ECLIP H18R35796  -0.418   1.533  10.246
    1ECLIP H18S35797  -0.239   1.541  10.216
    1ECLIP  C1935798  -0.361   1.531  10.039
    1ECLIP H19R35799  -0.381   1.640  10.030
    1ECLIP H19S35800  -0.451   1.476  10.002
    1ECLIP C11035801  -0.240   1.495   9.954
    1ECLIPH110R35802  -0.144   1.539   9.987
    1ECLIPH110S35803  -0.234   1.384   9.950
    1ECLIP C11135804  -0.264   1.545   9.816
    1ECLIPH111R35805  -0.368   1.510   9.811
    1ECLIPH111S35806  -0.267   1.656   9.816
    1ECLIP C11235807  -0.167   1.485   9.709
    1ECLIPH112R35808  -0.081   1.539   9.741
    1ECLIPH112S35809  -0.148   1.379   9.720
    1ECLIP C11335810  -0.196   1.509   9.559
    1ECLIPH113R35811  -0.275   1.439   9.524
    1ECLIPH113S35812  -0.234   1.609   9.560
    1ECLIP C11435813  -0.125   1.480   9.435
    1ECLIPH114R35814  -0.025   1.499   9.453
    1ECLIPH114S35815  -0.089   1.381   9.420
    1ECLIPH114T35816  -0.152   1.552   9.353
    2AKDO    C135817   0.114   0.959  11.977
    2AKDO   O1135818   0.222   0.896  11.972
    2AKDO   O1235819   0.001   0.920  11.934
    2AKDO    C235820   0.115   1.105  12.027
    2AKDO    C635821   0.231   1.284  12.125
    2AKDO    H635822   0.200   1.341  12.033
    2AKDO    O635823   0.237   1.146  12.088
    2AKDO    C335824   0.006   1.135  12.128
    2AKDO   H3135825   0.040   1.081  12.218
    2AKDO   H3235826  -0.090   1.099  12.088
    2AKDO    C435827  -0.005   1.274  12.171
    2AKDO    H435828  -0.025   1.339  12.083
    2AKDO    O435829  -0.100   1.289  12.276
    2AKDO    C535830   0.125   1.312  12.232
    2AKDO    H535831   0.121   1.422  12.246
    2AKDO    O535832   0.138   1.243  12.360
    2AKDO    C735833   0.368   1.333  12.154
    2AKDO    H735834   0.403   1.281  12.246
    2AKDO    O735835   0.364   1.476  12.170
    2AKDO   HO735836   0.388   1.508  12.083
    2AKDO    C835837   0.461   1.296  12.040
    2AKDO   H8135838   0.455   1.186  12.022
    2AKDO   H8235839   0.428   1.346  11.946
    2AKDO    O835840   0.597   1.330  12.077
    2AKDO   HO835841   0.653   1.270  12.026
    3AKDO    C135842  -0.253   1.410  12.132
    3AKDO   O1135843  -0.326   1.373  12.039
    3AKDO   O1235844  -0.210   1.528  12.145
    3AKDO    C235845  -0.234   1.305  12.246
    3AKDO    C635846  -0.305   1.085  12.313
    3AKDO    H635847  -0.205   1.083  12.344
    3AKDO    O635848  -0.303   1.183  12.213
    3AKDO    C335849  -0.299   1.355  12.371
    3AKDO   H3135850  -0.409   1.369  12.359
    3AKDO   H3235851  -0.250   1.448  12.405
    3AKDO    C435852  -0.292   1.260  12.475
    3AKDO    H435853  -0.184   1.237  12.491
    3AKDO    O435854  -0.347   1.320  12.587
    3AKDO   HO435855  -0.278   1.315  12.654
    3AKDO    C535856  -0.368   1.141  12.435
    3AKDO    H535857  -0.346   1.077  12.517
    3AKDO    O535858  -0.508   1.158  12.417
    3AKDO   HO535859  -0.514   1.234  12.360
    3AKDO    C735860  -0.362   0.950  12.267
    3AKDO    H735861  -0.471   0.972  12.253
    3AKDO    O735862  -0.334   0.854  12.366
    3AKDO   HO735863  -0.400   0.785  12.343
    3AKDO    C835864  -0.320   0.883  12.135
    3AKDO   H8135865  -0.324   0.957  12.064
    3AKDO   H8235866  -0.222   0.849  12.101
    3AKDO    O835867  -0.397   0.776  12.095
    3AKDO   HO835868  -0.456   0.829  12.043
    4AHEP    C135869   0.212   1.311  12.459
    4AHEP    H135870   0.316   1.300  12.426
    4AHEP    C535871   0.069   1.486  12.530
    4AHEP    H535872  -0.017   1.430  12.485
    4AHEP    O535873   0.189   1.450  12.462
    4AHEP    C235874   0.215   1.258  12.602
    4AHEP    H235875   0.227   1.148  12.602
    4AHEP    O235876   0.329   1.311  12.672
    4AHEP   HO235877   0.370   1.242  12.724
    4AHEP    C335878   0.092   1.289  12.679
    4AHEP    H335879   0.000   1.238  12.642
    4AHEP    O335880   0.119   1.242  12.810
    4AHEP    C435881   0.080   1.439  12.673
    4AHEP    H435882   0.164   1.493  12.723
    4AHEP    O435883  -0.042   1.466  12.732
    4AHEP    P435884  -0.048   1.550  12.869
    4AHEP  OP4235885  -0.173   1.508  12.943
    4AHEP  OP4335886  -0.068   1.690  12.820
    4AHEP  OP4435887   0.078   1.514  12.945
    4AHEP    C635888   0.051   1.636  12.506
    4AHEP    H635889  -0.049   1.666  12.516
    4AHEP    O635890   0.117   1.719  12.599
    4AHEP   HO635891   0.059   1.770  12.660
    4AHEP    C735892   0.058   1.689  12.363
    4AHEP   H7135893   0.010   1.789  12.361
    4AHEP   H7235894   0.003   1.616  12.301
    4AHEP    O735895   0.183   1.715  12.303
    4AHEP   HO735896   0.233   1.760  12.377
    5AHEP    C135897   0.037   1.145  12.869
    5AHEP    H135898  -0.066   1.156  12.836
    5AHEP    C535899   0.206   1.003  12.931
    5AHEP    H535900   0.269   1.088  12.896
    5AHEP    O535901   0.084   1.016  12.857
    5AHEP    C235902   0.028   1.163  13.013
    5AHEP    H235903   0.038   1.273  12.993
    5AHEP    O235904  -0.092   1.090  13.055
    5AHEP   HO235905  -0.156   1.150  13.100
    5AHEP    C335906   0.145   1.161  13.106
    5AHEP    H335907   0.216   1.239  13.069
    5AHEP    O335908   0.124   1.188  13.249
    5AHEP    C435909   0.187   1.024  13.081
    5AHEP    H435910   0.110   0.953  13.121
    5AHEP    O435911   0.314   1.012  13.142
    5AHEP    P435912   0.335   0.905  13.266
    5AHEP  OP4235913   0.477   0.943  13.313
    5AHEP  OP4335914   0.329   0.762  13.208
    5AHEP  OP4435915   0.222   0.933  13.367
    5AHEP    C635916   0.267   0.874  12.892
    5AHEP    H635917   0.366   0.870  12.941
    5AHEP    O635918   0.194   0.761  12.938
    5AHEP   HO635919   0.113   0.749  12.891
    5AHEP    C735920   0.288   0.868  12.743
    5AHEP   H7135921   0.383   0.813  12.728
    5AHEP   H7235922   0.302   0.968  12.698
    5AHEP    O735923   0.189   0.788  12.681
    6AHEP    C135924   0.094   0.866  12.618
    6AHEP    H135925   0.104   0.975  12.641
    6AHEP    C535926   0.093   0.715  12.438
    6AHEP    H535927   0.170   0.656  12.492
    6AHEP    O535928   0.104   0.851  12.477
    6AHEP    C235929  -0.041   0.817  12.669
    6AHEP    H235930  -0.050   0.843  12.776
    6AHEP    O235931  -0.156   0.874  12.614
    6AHEP   HO235932  -0.169   0.955  12.659
    6AHEP    C335933  -0.059   0.674  12.643
    6AHEP    H335934   0.019   0.611  12.689
    6AHEP    O335935  -0.188   0.629  12.691
    6AHEP   HO335936  -0.181   0.547  12.740
    6AHEP    C435937  -0.043   0.662  12.497
    6AHEP    H435938  -0.133   0.718  12.459
    6AHEP    O435939  -0.056   0.522  12.482
    6AHEP   HO435940   0.022   0.479  12.444
    6AHEP    C635941   0.141   0.702  12.283
    6AHEP    H635942   0.137   0.593  12.270
    6AHEP    O635943   0.072   0.744  12.164
    6AHEP   HO635944   0.081   0.837  12.134
    6AHEP    C735945   0.281   0.744  12.255
    6AHEP   H7135946   0.305   0.711  12.150
    6AHEP   H7235947   0.343   0.691  12.328
    6AHEP    O735948   0.303   0.884  12.267
    6AHEP   HO735949   0.303   0.905  12.360
    7AGLC    C135950   0.154   1.319  13.300
    7AGLC    H135951   0.241   1.364  13.249
    7AGLC    C535952  -0.083   1.371  13.347
    7AGLC    H535953  -0.097   1.261  13.321
    7AGLC    O535954   0.041   1.407  13.283
    7AGLC    C235955   0.181   1.328  13.450
    7AGLC    H235956   0.184   1.436  13.478
    7AGLC    O235957   0.304   1.270  13.491
    7AGLC   HO235958   0.295   1.172  13.492
    7AGLC    C335959   0.066   1.274  13.527
    7AGLC    H335960   0.059   1.176  13.475
    7AGLC    O335961   0.092   1.253  13.671
    7AGLC    C435962  -0.054   1.370  13.489
    7AGLC    H435963  -0.032   1.461  13.548
    7AGLC    O435964  -0.192   1.345  13.511
    7AGLC   HO435965  -0.217   1.382  13.597
    7AGLC    C635966  -0.224   1.453  13.294
    7AGLC   H6135967  -0.236   1.467  13.189
    7AGLC   H6235968  -0.311   1.397  13.324
    7AGLC    O635969  -0.260   1.589  13.291
    7AGLC   HO635970  -0.254   1.616  13.380
    8AGLC    C135971   0.105   1.123  13.739
    8AGLC    H135972   0.042   1.037  13.713
    8AGLC    C535973   0.328   1.091  13.760
    8AGLC    H535974   0.337   1.191  13.718
    8AGLC    O535975   0.212   1.045  13.701
    8AGLC    C235976   0.077   1.127  13.887
    8AGLC    H235977   0.055   1.022  13.917
    8AGLC    O235978  -0.025   1.212  13.936
    8AGLC    C335979   0.193   1.181  13.953
    8AGLC    H335980   0.204   1.285  13.911
    8AGLC    O335981   0.157   1.190  14.092
    8AGLC    C435982   0.306   1.091  13.911
    8AGLC    H435983   0.278   0.987  13.941
    8AGLC    O435984   0.422   1.131  13.979
    8AGLC   HO435985   0.427   1.227  13.971
    8AGLC    C635986   0.447   1.012  13.711
    8AGLC   H6135987   0.447   1.003  13.599
    8AGLC   H6235988   0.540   1.067  13.738
    8AGLC    O635989   0.451   0.883  13.771
    8AGLC   HO635990   0.495   0.895  13.854
    9AGAL    C135991  -0.154   1.176  13.914
    9AGAL    H135992  -0.158   1.156  13.811
    9AGAL    C535993  -0.231   1.033  14.069
    9AGAL    H535994  -0.138   1.064  14.121
    9AGAL    O535995  -0.188   1.040  13.935
    9AGAL    C235996  -0.265   1.296  13.943
    9AGAL    H235997  -0.366   1.293  13.906
    9AGAL    O235998  -0.296   1.424  13.888
    9AGAL    C335999  -0.301   1.277  14.068
    9AGAL    H336000  -0.201   1.249  14.103
    9AGAL    O336001  -0.353   1.404  14.114
    9AGAL   HO336002  -0.370   1.466  14.039
    9AGAL    C436003  -0.356   1.136  14.095
    9AGAL    H436004  -0.391   1.151  14.196
    9AGAL    O436005  -0.484   1.103  14.036
    9AGAL   HO436006  -0.528   1.050  14.106
    9AGAL    C636007  -0.242   0.890  14.103
    9AGAL   H6136008  -0.152   0.837  14.075
    9AGAL   H6236009  -0.251   0.873  14.214
    9AGAL    O636010  -0.350   0.841  14.024
    9AGAL   HO636011  -0.336   0.748  13.994
   10AGAL    C136012  -0.235   1.542  13.920
   10AGAL    H136013  -0.336   1.593  13.927
   10AGAL    C536014  -0.025   1.524  14.042
   10AGAL    H536015  -0.021   1.421  14.002
   10AGAL    O536016  -0.165   1.561  14.045
   10AGAL    C236017  -0.162   1.620  13.818
   10AGAL    H236018  -0.175   1.721  13.854
   10AGAL    O236019  -0.227   1.596  13.694
   10AGAL   HO236020  -0.258   1.670  13.640
   10AGAL    C336021  -0.015   1.591  13.807
   10AGAL    H336022   0.017   1.489  13.783
   10AGAL    O336023   0.041   1.673  13.705
   10AGAL   HO336024   0.079   1.609  13.642
   10AGAL    C436025   0.044   1.615  13.942
   10AGAL    H436026   0.151   1.585  13.943
   10AGAL    O436027   0.028   1.754  13.972
   10AGAL   HO436028  -0.060   1.765  14.008
   10AGAL    C636029   0.055   1.523  14.174
   10AGAL   H6136030   0.031   1.463  14.259
   10AGAL   H6236031   0.149   1.468  14.157
   10AGAL    O636032   0.063   1.646  14.244
   10AGAL   HO636033   0.009   1.642  14.324
   11BGLC    C136034   0.194   1.093  14.187
   11BGLC    H136035   0.304   1.093  14.199
   11BGLC    C536036   0.182   0.860  14.251
   11BGLC    H536037   0.289   0.850  14.277
   11BGLC    O536038   0.149   0.962  14.151
   11BGLC    C236039   0.126   1.133  14.316
   11BGLC    H236040   0.016   1.139  14.302
   11BGLC    O236041   0.169   1.263  14.354
   11BGLC   HO236042   0.091   1.316  14.373
   11BGLC    C336043   0.150   1.036  14.429
   11BGLC    H336044   0.258   1.029  14.453
   11BGLC    O336045   0.075   1.087  14.544
   11BGLC    C436046   0.105   0.900  14.376
   11BGLC    H436047   0.004   0.907  14.332
   11BGLC    O436048   0.107   0.799  14.475
   11BGLC   HO436049   0.038   0.822  14.543
   11BGLC    C636050   0.146   0.727  14.192
   11BGLC   H6136051   0.110   0.648  14.264
   11BGLC   H6236052   0.070   0.766  14.124
   11BGLC    O636053   0.229   0.666  14.096
   11BGLC   HO636054   0.260   0.580  14.129
   12BGLCN   C136055   0.132   1.095  14.675
   12BGLCN   H136056   0.183   1.193  14.679
   12BGLCN   C536057   0.289   1.006  14.824
   12BGLCN   H536058   0.337   1.106  14.830
   12BGLCN   O536059   0.224   0.991  14.698
   12BGLCN   C236060   0.025   1.093  14.790
   12BGLCN   H236061  -0.010   0.992  14.828
   12BGLCN    N36062  -0.089   1.175  14.745
   12BGLCN   HN36063  -0.060   1.270  14.735
   12BGLCN    C36064  -0.215   1.140  14.707
   12BGLCN    O36065  -0.260   1.028  14.696
   12BGLCN   CT36066  -0.318   1.244  14.688
   12BGLCN  HT136067  -0.384   1.255  14.776
   12BGLCN  HT236068  -0.385   1.203  14.609
   12BGLCN  HT336069  -0.266   1.335  14.656
   12BGLCN   C336070   0.083   1.110  14.926
   12BGLCN   H336071   0.123   1.212  14.929
   12BGLCN   O336072  -0.019   1.090  15.026
   12BGLCN   C436073   0.185   0.997  14.937
   12BGLCN   H436074   0.138   0.896  14.929
   12BGLCN   O436075   0.241   1.002  15.065
   12BGLCN  HO436076   0.290   1.083  15.070
   12BGLCN   C636077   0.398   0.904  14.826
   12BGLCN  H6136078   0.445   0.905  14.924
   12BGLCN  H6236079   0.361   0.804  14.809
   12BGLCN   O636080   0.495   0.921  14.723
   12BGLCN  HO636081   0.563   0.980  14.754
   13AGAL    C136082  -0.026   1.169  15.141
   13AGAL    H136083   0.082   1.184  15.170
   13AGAL    C536084  -0.233   1.308  15.079
   13AGAL    H536085  -0.257   1.234  15.004
   13AGAL    O536086  -0.085   1.300  15.119
   13AGAL    C236087  -0.111   1.118  15.250
   13AGAL    H236088  -0.132   1.170  15.335
   13AGAL    O236089  -0.041   1.011  15.315
   13AGAL    C336090  -0.259   1.133  15.210
   13AGAL    H336091  -0.289   1.081  15.130
   13AGAL    O336092  -0.357   1.102  15.294
   13AGAL   HO336093  -0.384   1.008  15.288
   13AGAL    C436094  -0.311   1.266  15.183
   13AGAL    H436095  -0.421   1.265  15.155
   13AGAL    O436096  -0.283   1.379  15.259
   13AGAL   HO436097  -0.231   1.366  15.340
   13AGAL    C636098  -0.309   1.413  14.993
   13AGAL   H6136099  -0.281   1.437  14.890
   13AGAL   H6236100  -0.406   1.375  14.960
   13AGAL    O636101  -0.305   1.535  15.053
   13AGAL   HO636102  -0.357   1.542  15.135
   14ARHM    C136103   0.032   1.046  15.435
   14ARHM    H136104   0.061   1.154  15.435
   14ARHM    C536105   0.116   0.832  15.454
   14ARHM    H536106   0.062   0.812  15.359
   14ARHM    O536107   0.150   0.970  15.450
   14ARHM    C236108  -0.053   1.018  15.555
   14ARHM    H236109  -0.128   1.092  15.520
   14ARHM    O236110  -0.017   1.059  15.688
   14ARHM    C336111  -0.087   0.866  15.557
   14ARHM    H336112  -0.112   0.830  15.453
   14ARHM    O336113  -0.190   0.817  15.643
   14ARHM   HO336114  -0.193   0.863  15.728
   14ARHM    C436115   0.030   0.790  15.570
   14ARHM    H436116   0.071   0.818  15.670
   14ARHM    O436117   0.003   0.650  15.561
   14ARHM   HO436118  -0.008   0.631  15.653
   14ARHM    C636119   0.241   0.750  15.461
   14ARHM   H6136120   0.316   0.792  15.393
   14ARHM   H6236121   0.271   0.751  15.567
   14ARHM   H6336122   0.221   0.645  15.431
   15ARHM    C136123   0.044   1.185  15.697
   15ARHM    H136124  -0.003   1.253  15.620
   15ARHM    C536125   0.241   1.085  15.794
   15ARHM    H536126   0.212   0.977  15.781
   15ARHM    O536127   0.185   1.169  15.690
   15ARHM    C236128   0.013   1.244  15.834
   15ARHM    H236129  -0.095   1.267  15.813
   15ARHM    O236130   0.057   1.378  15.855
   15ARHM    C336131   0.069   1.139  15.946
   15ARHM    H336132   0.052   1.031  15.916
   15ARHM    O336133   0.013   1.139  16.081
   15ARHM    C436134   0.212   1.131  15.935
   15ARHM    H436135   0.239   1.237  15.951
   15ARHM    O436136   0.273   1.046  16.032
   15ARHM   HO436137   0.365   1.076  16.038
   15ARHM    C636138   0.391   1.098  15.779
   15ARHM   H6136139   0.445   1.023  15.840
   15ARHM   H6236140   0.415   1.088  15.672
   15ARHM   H6336141   0.424   1.197  15.817
   16BMANN   C136142   0.031   1.440  15.980
   16BMANN   H136143   0.078   1.382  16.061
   16BMANN   C536144  -0.143   1.490  16.157
   16BMANN   H536145  -0.084   1.433  16.232
   16BMANN   O536146  -0.101   1.444  16.026
   16BMANN   C236147   0.059   1.579  15.969
   16BMANN   H236148   0.166   1.579  15.939
   16BMANN    N36149  -0.022   1.644  15.863
   16BMANN   HN36150  -0.109   1.684  15.886
   16BMANN    C36151   0.015   1.662  15.736
   16BMANN    O36152   0.116   1.609  15.692
   16BMANN   CT36153  -0.083   1.739  15.648
   16BMANN  HT136154  -0.046   1.839  15.623
   16BMANN  HT236155  -0.186   1.739  15.691
   16BMANN  HT336156  -0.095   1.694  15.549
   16BMANN   C336157   0.036   1.636  16.103
   16BMANN   H336158   0.098   1.585  16.180
   16BMANN   O336159   0.065   1.768  16.093
   16BMANN  HO336160   0.131   1.784  16.162
   16BMANN   C436161  -0.104   1.623  16.144
   16BMANN   H436162  -0.182   1.674  16.088
   16BMANN   O436163  -0.119   1.662  16.276
   16BMANN  HO436164  -0.215   1.677  16.270
   16BMANN   C636165  -0.299   1.485  16.205
   16BMANN  H6136166  -0.310   1.506  16.312
   16BMANN  H6236167  -0.369   1.558  16.165
   16BMANN   O636168  -0.373   1.366  16.201
   16BMANN  HO636169  -0.443   1.365  16.131
   17BGLCN   C136170  -0.028   1.017  16.150
   17BGLCN   H136171   0.045   0.938  16.138
   17BGLCN   C536172  -0.198   0.848  16.199
   17BGLCN   H536173  -0.133   0.764  16.199
   17BGLCN   O536174  -0.154   0.954  16.113
   17BGLCN   C236175  -0.038   1.074  16.294
   17BGLCN   H236176  -0.118   1.148  16.316
   17BGLCN    N36177   0.078   1.149  16.325
   17BGLCN   HN36178   0.156   1.119  16.272
   17BGLCN    C36179   0.099   1.240  16.420
   17BGLCN    O36180   0.017   1.285  16.497
   17BGLCN   CT36181   0.239   1.280  16.439
   17BGLCN  HT136182   0.263   1.376  16.388
   17BGLCN  HT236183   0.302   1.197  16.404
   17BGLCN  HT336184   0.254   1.294  16.548
   17BGLCN   C336185  -0.065   0.957  16.382
   17BGLCN   H336186   0.008   0.884  16.346
   17BGLCN   O336187  -0.040   0.984  16.522
   17BGLCN   C436188  -0.199   0.902  16.342
   17BGLCN   H436189  -0.261   0.989  16.342
   17BGLCN   O436190  -0.234   0.807  16.441
   17BGLCN  HO436191  -0.325   0.771  16.434
   17BGLCN   C636192  -0.338   0.798  16.152
   17BGLCN  H6136193  -0.342   0.690  16.152
   17BGLCN  H6236194  -0.427   0.838  16.201
   17BGLCN   O636195  -0.372   0.812  16.018
   17BGLCN  HO636196  -0.296   0.824  15.961
   18AGAL    C136197   0.016   0.877  16.596
   18AGAL    H136198  -0.062   0.799  16.611
   18AGAL    C536199   0.233   0.909  16.519
   18AGAL    H536200   0.193   1.003  16.476
   18AGAL    O536201   0.125   0.817  16.529
   18AGAL    C236202   0.069   0.919  16.733
   18AGAL    H236203   0.123   0.830  16.766
   18AGAL    O236204  -0.035   0.913  16.832
   18AGAL    C336205   0.182   1.026  16.721
   18AGAL    H336206   0.144   1.110  16.656
   18AGAL    O336207   0.235   1.086  16.840
   18AGAL   HO336208   0.216   1.181  16.836
   18AGAL    C436209   0.293   0.956  16.649
   18AGAL    H436210   0.375   1.029  16.627
   18AGAL    O436211   0.352   0.851  16.726
   18AGAL   HO436212   0.387   0.887  16.809
   18AGAL    C636213   0.321   0.857  16.411
   18AGAL   H6136214   0.259   0.858  16.318
   18AGAL   H6236215   0.405   0.929  16.398
   18AGAL    O636216   0.367   0.723  16.430
   18AGAL   HO636217   0.321   0.686  16.507
   19ARHM    C136218  -0.014   0.902  16.971
   19ARHM    H136219   0.094   0.890  16.986
   19ARHM    C536220  -0.206   0.778  16.978
   19ARHM    H536221  -0.221   0.803  16.869
   19ARHM    O536222  -0.074   0.784  17.007
   19ARHM    C236223  -0.087   1.001  17.060
   19ARHM    H236224  -0.066   1.108  17.075
   19ARHM    O236225  -0.027   0.959  17.181
   19ARHM    C336226  -0.238   1.011  17.027
   19ARHM    H336227  -0.252   1.033  16.919
   19ARHM    O336228  -0.317   1.120  17.079
   19ARHM   HO336229  -0.319   1.122  17.178
   19ARHM    C436230  -0.277   0.873  17.057
   19ARHM    H436231  -0.261   0.851  17.165
   19ARHM    O436232  -0.394   0.820  17.013
   19ARHM   HO436233  -0.445   0.866  16.945
   19ARHM    C636234  -0.242   0.632  16.982
   19ARHM   H6136235  -0.190   0.584  16.900
   19ARHM   H6236236  -0.223   0.578  17.074
   19ARHM   H6336237  -0.350   0.618  16.961
   20ARHM    C136238   0.098   1.021  17.207
   20ARHM    H136239   0.133   1.085  17.122
   20ARHM    C536240   0.156   0.836  17.331
   20ARHM    H536241   0.053   0.806  17.310
   20ARHM    O536242   0.193   0.918  17.222
   20ARHM    C236243   0.092   1.108  17.331
   20ARHM    H236244   0.017   1.190  17.322
   20ARHM    O236245   0.219   1.170  17.352
   20ARHM    C336246   0.057   1.025  17.449
   20ARHM    H336247  -0.044   0.981  17.434
   20ARHM    O336248   0.054   1.106  17.566
   20ARHM    C436249   0.158   0.915  17.461
   20ARHM    H436250   0.261   0.954  17.470
   20ARHM    O436251   0.133   0.833  17.574
   20ARHM   HO436252   0.155   0.745  17.546
   20ARHM    C636253   0.242   0.709  17.331
   20ARHM   H6136254   0.348   0.734  17.343
   20ARHM   H6236255   0.208   0.641  17.412
   20ARHM   H6336256   0.230   0.656  17.234
   21BMANN   C136257   0.230   1.287  17.277
   21BMANN   H136258   0.142   1.295  17.208
   21BMANN   C536259   0.336   1.400  17.101
   21BMANN   H536260   0.239   1.404  17.045
   21BMANN   O536261   0.340   1.285  17.187
   21BMANN   C236262   0.234   1.406  17.371
   21BMANN   H236263   0.138   1.401  17.428
   21BMANN    N36264   0.345   1.407  17.466
   21BMANN   HN36265   0.431   1.379  17.426
   21BMANN    C36266   0.339   1.447  17.595
   21BMANN    O36267   0.243   1.507  17.641
   21BMANN   CT36268   0.459   1.416  17.683
   21BMANN  HT136269   0.540   1.489  17.665
   21BMANN  HT236270   0.493   1.311  17.668
   21BMANN  HT336271   0.429   1.425  17.790
   21BMANN   C336272   0.229   1.528  17.284
   21BMANN   H336273   0.132   1.522  17.228
   21BMANN   O336274   0.222   1.647  17.362
   21BMANN  HO336275   0.302   1.652  17.416
   21BMANN   C436276   0.344   1.526  17.184
   21BMANN   H436277   0.443   1.528  17.237
   21BMANN   O436278   0.344   1.636  17.095
   21BMANN  HO436279   0.417   1.694  17.115
   21BMANN   C636280   0.445   1.395  16.997
   21BMANN  H6136281   0.424   1.468  16.917
   21BMANN  H6236282   0.540   1.429  17.044
   21BMANN   O636283   0.465   1.266  16.942
   21BMANN  HO636284   0.479   1.205  17.016
   22BGLCN   C136285  -0.041   1.074  17.664
   22BGLCN   H136286  -0.040   0.966  17.657
   22BGLCN   C536287  -0.260   1.158  17.763
   22BGLCN   H536288  -0.304   1.063  17.792
   22BGLCN   O536289  -0.164   1.151  17.652
   22BGLCN   C236290   0.028   1.121  17.784
   22BGLCN   H236291   0.052   1.230  17.775
   22BGLCN    N36292   0.145   1.042  17.805
   22BGLCN   HN36293   0.139   0.947  17.775
   22BGLCN    C36294   0.251   1.086  17.870
   22BGLCN    O36295   0.259   1.197  17.921
   22BGLCN   CT36296   0.362   0.986  17.875
   22BGLCN  HT136297   0.428   1.009  17.789
   22BGLCN  HT236298   0.321   0.883  17.864
   22BGLCN  HT336299   0.416   0.992  17.972
   22BGLCN   C336300  -0.061   1.112  17.905
   22BGLCN   H336301  -0.102   1.008  17.887
   22BGLCN   O336302   0.006   1.077  18.026
   22BGLCN   C436303  -0.181   1.214  17.886
   22BGLCN   H436304  -0.141   1.314  17.864
   22BGLCN   O436305  -0.246   1.259  18.006
   22BGLCN  HO436306  -0.342   1.260  18.018
   22BGLCN   C636307  -0.400   1.198  17.719
   22BGLCN  H6136308  -0.459   1.185  17.813
   22BGLCN  H6236309  -0.446   1.297  17.693
   22BGLCN   O636310  -0.404   1.115  17.601
   22BGLCN  HO636311  -0.422   1.158  17.517
   23AGAL    C136312  -0.054   1.038  18.150
   23AGAL    H136313  -0.147   1.090  18.178
   23AGAL    C536314   0.029   0.832  18.120
   23AGAL    H536315   0.075   0.873  18.025
   23AGAL    O536316  -0.090   0.904  18.146
   23AGAL    C236317   0.055   1.065  18.258
   23AGAL    H236318   0.005   1.027  18.350
   23AGAL    O236319   0.104   1.198  18.293
   23AGAL    C336320   0.179   0.987  18.221
   23AGAL    H336321   0.212   1.015  18.120
   23AGAL    O336322   0.287   1.016  18.308
   23AGAL   HO336323   0.253   1.012  18.397
   23AGAL    C436324   0.141   0.845  18.222
   23AGAL    H436325   0.218   0.772  18.193
   23AGAL    O436326   0.111   0.821  18.356
   23AGAL   HO436327   0.032   0.765  18.360
   23AGAL    C636328  -0.019   0.708  18.061
   23AGAL   H6136329  -0.107   0.745  17.997
   23AGAL   H6236330   0.060   0.667  17.997
   23AGAL    O636331  -0.038   0.587  18.131
   23AGAL   HO636332  -0.130   0.557  18.145
   24ARHM    C136333   0.024   1.285  18.370
   24ARHM    H136334  -0.072   1.236  18.380
   24ARHM    C536335   0.104   1.507  18.302
   24ARHM    H536336   0.166   1.452  18.229
   24ARHM    O536337  -0.006   1.423  18.329
   24ARHM    C236338   0.093   1.286  18.492
   24ARHM    H236339   0.125   1.183  18.516
   24ARHM    O236340   0.017   1.311  18.603
   24ARHM    C336341   0.213   1.374  18.477
   24ARHM    H336342   0.275   1.328  18.397
   24ARHM    O336343   0.281   1.373  18.601
   24ARHM   HO336344   0.262   1.453  18.651
   24ARHM    C436345   0.176   1.518  18.432
   24ARHM    H436346   0.109   1.568  18.503
   24ARHM    O436347   0.286   1.605  18.419
   24ARHM   HO436348   0.264   1.695  18.444
   24ARHM    C636349   0.062   1.641  18.234
   24ARHM   H6136350   0.151   1.678  18.180
   24ARHM   H6236351  -0.018   1.625  18.158
   24ARHM   H6336352   0.027   1.719  18.305
   25ARHM    C136353  -0.103   1.261  18.644
   25ARHM    H136354  -0.124   1.172  18.580
   25ARHM    C536355  -0.247   1.443  18.764
   25ARHM    H536356  -0.205   1.546  18.753
   25ARHM    O536357  -0.237   1.326  18.670
   25ARHM    C236358  -0.051   1.226  18.776
   25ARHM    H236359   0.057   1.195  18.775
   25ARHM    O236360  -0.114   1.110  18.802
   25ARHM    C336361  -0.049   1.344  18.877
   25ARHM    H336362   0.023   1.425  18.850
   25ARHM    O336363  -0.010   1.292  19.003
   25ARHM    C436364  -0.190   1.399  18.896
   25ARHM    H436365  -0.260   1.327  18.941
   25ARHM    O436366  -0.173   1.511  18.980
   25ARHM   HO436367  -0.243   1.508  19.048
   25ARHM    C636368  -0.374   1.527  18.760
   25ARHM   H6136369  -0.399   1.561  18.656
   25ARHM   H6236370  -0.458   1.475  18.806
   25ARHM   H6336371  -0.350   1.618  18.820
   26BMANN   C136372  -0.104   0.985  18.745
   26BMANN   H136373  -0.003   0.985  18.708
   26BMANN   C536374  -0.186   0.833  18.587
   26BMANN   H536375  -0.084   0.843  18.547
   26BMANN   O536376  -0.194   0.964  18.642
   26BMANN   C236377  -0.132   0.876  18.852
   26BMANN   H236378  -0.035   0.891  18.912
   26BMANN    N36379  -0.273   0.877  18.917
   26BMANN   HN36380  -0.354   0.886  18.854
   26BMANN    C36381  -0.311   0.882  19.049
   26BMANN    O36382  -0.247   0.884  19.152
   26BMANN   CT36383  -0.446   0.890  19.075
   26BMANN  HT136384  -0.507   0.893  18.985
   26BMANN  HT236385  -0.490   0.964  19.138
   26BMANN  HT336386  -0.436   0.800  19.144
   26BMANN   C336387  -0.108   0.746  18.800
   26BMANN   H336388  -0.000   0.762  18.771
   26BMANN   O336389  -0.098   0.653  18.903
   26BMANN  HO336390  -0.024   0.685  18.957
   26BMANN   C436391  -0.210   0.724  18.692
   26BMANN   H436392  -0.311   0.734  18.734
   26BMANN   O436393  -0.222   0.592  18.640
   26BMANN  HO436394  -0.199   0.528  18.709
   26BMANN   C636395  -0.284   0.821  18.474
   26BMANN  H6136396  -0.300   0.918  18.438
   26BMANN  H6236397  -0.256   0.772  18.388
   26BMANN   O636398  -0.407   0.752  18.487
   26BMANN  HO636399  -0.398   0.685  18.555
   27BGLCN   C136400   0.080   1.367  19.081
   27BGLCN   H136401   0.059   1.476  19.078
   27BGLCN   C536402   0.306   1.412  19.127
   27BGLCN   H536403   0.274   1.518  19.129
   27BGLCN   O536404   0.214   1.342  19.042
   27BGLCN   C236405   0.061   1.316  19.220
   27BGLCN   H236406   0.093   1.208  19.219
   27BGLCN    N36407  -0.079   1.331  19.251
   27BGLCN   HN36408  -0.130   1.414  19.233
   27BGLCN    C36409  -0.137   1.238  19.317
   27BGLCN    O36410  -0.067   1.185  19.402
   27BGLCN   CT36411  -0.293   1.226  19.307
   27BGLCN  HT136412  -0.340   1.310  19.256
   27BGLCN  HT236413  -0.341   1.223  19.409
   27BGLCN  HT336414  -0.326   1.128  19.275
   27BGLCN   C336415   0.152   1.383  19.318
   27BGLCN   H336416   0.130   1.491  19.311
   27BGLCN   O336417   0.119   1.332  19.450
   27BGLCN   C436418   0.293   1.359  19.269
   27BGLCN   H436419   0.317   1.251  19.268
   27BGLCN   O436420   0.387   1.426  19.350
   27BGLCN  HO436421   0.370   1.519  19.347
   27BGLCN   C636422   0.446   1.408  19.068
   27BGLCN  H6136423   0.510   1.481  19.121
   27BGLCN  H6236424   0.490   1.307  19.082
   27BGLCN   O636425   0.442   1.441  18.929
   27BGLCN  HO636426   0.530   1.438  18.887
   28AGAL    C136427   0.165   1.401  19.561
   28AGAL    H136428   0.273   1.383  19.569
   28AGAL    C536429   0.009   1.577  19.531
   28AGAL    H536430  -0.040   1.500  19.471
   28AGAL    O536431   0.148   1.540  19.531
   28AGAL    C236432   0.102   1.364  19.701
   28AGAL    H236433   0.155   1.434  19.768
   28AGAL    O236434   0.140   1.233  19.747
   28AGAL    C336435  -0.049   1.410  19.688
   28AGAL    H336436  -0.058   1.320  19.625
   28AGAL    O336437  -0.183   1.389  19.744
   28AGAL   HO336438  -0.197   1.299  19.779
   28AGAL    C436439  -0.050   1.555  19.654
   28AGAL    H436440  -0.158   1.592  19.659
   28AGAL    O436441   0.041   1.637  19.730
   28AGAL   HO436442  -0.012   1.690  19.793
   28AGAL    C636443  -0.026   1.722  19.497
   28AGAL   H6136444  -0.009   1.729  19.390
   28AGAL   H6236445  -0.133   1.748  19.524
   28AGAL    O636446   0.056   1.821  19.550
   28AGAL   HO636447   0.145   1.812  19.521
   29ARHM    C136448   0.175   1.230  19.885
   29ARHM    H136449   0.130   1.317  19.935
   29ARHM    C536450   0.382   1.133  19.850
   29ARHM    H536451   0.354   1.126  19.742
   29ARHM    O536452   0.314   1.245  19.906
   29ARHM    C236453   0.130   1.101  19.954
   29ARHM    H236454   0.025   1.067  19.941
   29ARHM    O236455   0.155   1.113  20.095
   29ARHM    C336456   0.196   0.985  19.894
   29ARHM    H336457   0.172   0.982  19.786
   29ARHM    O336458   0.140   0.868  19.949
   29ARHM   HO336459   0.211   0.805  19.958
   29ARHM    C436460   0.344   1.001  19.917
   29ARHM    H436461   0.363   1.008  20.027
   29ARHM    O436462   0.419   0.891  19.868
   29ARHM   HO436463   0.389   0.867  19.780
   29ARHM    C636464   0.526   1.178  19.857
   29ARHM   H6136465   0.532   1.281  19.813
   29ARHM   H6236466   0.557   1.179  19.963
   29ARHM   H6336467   0.591   1.110  19.798
   30ARHM    C136468   0.045   1.146  20.169
   30ARHM    H136469  -0.041   1.084  20.131
   30ARHM    C536470   0.107   1.384  20.189
   30ARHM    H536471   0.191   1.353  20.125
   30ARHM    O536472   0.001   1.288  20.154
   30ARHM    C236473   0.080   1.112  20.315
   30ARHM    H236474   0.119   1.016  20.344
   30ARHM    O236475  -0.053   1.065  20.333
   30ARHM    C336476   0.187   1.228  20.353
   30ARHM    H336477   0.273   1.212  20.284
   30ARHM    O336478   0.228   1.208  20.490
   30ARHM    C436479   0.148   1.379  20.333
   30ARHM    H436480   0.074   1.435  20.389
   30ARHM    O436481   0.246   1.476  20.367
   30ARHM   HO436482   0.309   1.493  20.299
   30ARHM    C636483   0.081   1.530  20.158
   30ARHM   H6136484   0.163   1.602  20.165
   30ARHM   H6236485   0.060   1.533  20.053
   30ARHM   H6336486   0.002   1.570  20.226
   31BMANN   C136487  -0.147   1.042  20.423
   31BMANN   H136488  -0.093   0.956  20.467
   31BMANN   C536489  -0.350   0.953  20.360
   31BMANN   H536490  -0.284   0.871  20.394
   31BMANN   O536491  -0.244   1.025  20.324
   31BMANN   C236492  -0.213   1.126  20.535
   31BMANN   H236493  -0.115   1.133  20.593
   31BMANN    N36494  -0.285   1.256  20.519
   31BMANN   HN36495  -0.290   1.276  20.421
   31BMANN    C36496  -0.314   1.360  20.606
   31BMANN    O36497  -0.272   1.377  20.713
   31BMANN   CT36498  -0.373   1.491  20.569
   31BMANN  HT136499  -0.434   1.495  20.481
   31BMANN  HT236500  -0.295   1.560  20.538
   31BMANN  HT336501  -0.416   1.538  20.661
   31BMANN   C336502  -0.320   1.034  20.575
   31BMANN   H336503  -0.242   0.962  20.612
   31BMANN   O336504  -0.409   1.070  20.673
   31BMANN  HO336505  -0.366   1.056  20.762
   31BMANN   C436506  -0.422   1.008  20.463
   31BMANN   H436507  -0.486   1.094  20.453
   31BMANN   O436508  -0.532   0.916  20.468
   31BMANN  HO436509  -0.518   0.829  20.511
   31BMANN   C636510  -0.442   0.930  20.240
   31BMANN  H6136511  -0.496   0.837  20.262
   31BMANN  H6236512  -0.526   0.995  20.212
   31BMANN   O636513  -0.366   0.919  20.125
   31BMANN  HO636514  -0.299   0.849  20.119
   32BGLCN   C136515   0.156   1.267  20.597
   32BGLCN   H136516   0.048   1.262  20.581
   32BGLCN   C536517   0.104   1.460  20.729
   32BGLCN   H536518  -0.001   1.450  20.707
   32BGLCN   O536519   0.189   1.403  20.627
   32BGLCN   C236520   0.179   1.185  20.721
   32BGLCN   H236521   0.284   1.202  20.752
   32BGLCN    N36522   0.158   1.043  20.694
   32BGLCN   HN36523   0.089   1.026  20.626
   32BGLCN    C36524   0.229   0.942  20.747
   32BGLCN    O36525   0.318   0.954  20.829
   32BGLCN   CT36526   0.189   0.808  20.692
   32BGLCN  HT136527   0.132   0.827  20.599
   32BGLCN  HT236528   0.124   0.750  20.758
   32BGLCN  HT336529   0.279   0.746  20.671
   32BGLCN   C336530   0.086   1.237  20.827
   32BGLCN   H336531  -0.014   1.237  20.784
   32BGLCN   O336532   0.097   1.154  20.943
   32BGLCN   C436533   0.118   1.381  20.855
   32BGLCN   H436534   0.218   1.384  20.887
   32BGLCN   O436535   0.045   1.439  20.961
   32BGLCN  HO436536   0.092   1.422  21.043
   32BGLCN   C636537   0.130   1.609  20.742
   32BGLCN  H6136538   0.056   1.658  20.810
   32BGLCN  H6236539   0.231   1.624  20.787
   32BGLCN   O636540   0.120   1.677  20.617
   32BGLCN  HO636541   0.056   1.631  20.560
   33AGAL    C136542  -0.025   1.136  21.003
   33AGAL    H136543  -0.080   1.228  20.998
   33AGAL    C536544  -0.060   0.903  20.947
   33AGAL    H536545   0.043   0.914  20.916
   33AGAL    O536546  -0.102   1.035  20.938
   33AGAL    C236547  -0.024   1.111  21.146
   33AGAL    H236548  -0.128   1.130  21.170
   33AGAL    O236549   0.030   1.221  21.220
   33AGAL    C336550   0.029   0.967  21.157
   33AGAL    H336551   0.125   0.965  21.099
   33AGAL    O336552   0.083   0.932  21.279
   33AGAL   HO336553   0.014   0.932  21.345
   33AGAL    C436554  -0.064   0.856  21.088
   33AGAL    H436555  -0.008   0.763  21.105
   33AGAL    O436556  -0.195   0.806  21.128
   33AGAL   HO436557  -0.262   0.869  21.165
   33AGAL    C636558  -0.136   0.836  20.838
   33AGAL   H6136559  -0.123   0.871  20.736
   33AGAL   H6236560  -0.143   0.732  20.816
   33AGAL    O636561  -0.258   0.800  20.877
   33AGAL   HO636562  -0.327   0.851  20.832
   34ARHM    C136563  -0.046   1.259  21.333
   34ARHM    H136564  -0.079   1.177  21.389
   34ARHM    C536565  -0.162   1.429  21.235
   34ARHM    H536566  -0.117   1.400  21.143
   34ARHM    O536567  -0.177   1.312  21.310
   34ARHM    C236568   0.045   1.350  21.409
   34ARHM    H236569   0.145   1.305  21.407
   34ARHM    O236570   0.046   1.362  21.548
   34ARHM    C336571   0.052   1.478  21.333
   34ARHM    H336572   0.091   1.458  21.231
   34ARHM    O336573   0.132   1.576  21.397
   34ARHM   HO336574   0.171   1.624  21.323
   34ARHM    C436575  -0.083   1.532  21.313
   34ARHM    H436576  -0.135   1.545  21.412
   34ARHM    O436577  -0.078   1.653  21.237
   34ARHM   HO436578  -0.070   1.726  21.300
   34ARHM    C636579  -0.286   1.493  21.196
   34ARHM   H6136580  -0.298   1.538  21.294
   34ARHM   H6236581  -0.278   1.584  21.138
   34ARHM   H6336582  -0.373   1.440  21.155
   35ARHM    C136583  -0.001   1.259  21.635
   35ARHM    H136584   0.077   1.180  21.616
   35ARHM    C536585  -0.293   1.274  21.645
   35ARHM    H536586  -0.319   1.357  21.565
   35ARHM    O536587  -0.151   1.203  21.619
   35ARHM    C236588   0.004   1.308  21.799
   35ARHM    H236589   0.107   1.356  21.815
   35ARHM    O236590  -0.015   1.195  21.877
   35ARHM    C336591  -0.116   1.414  21.857
   35ARHM    H336592  -0.084   1.518  21.821
   35ARHM    O336593  -0.130   1.474  21.978
   35ARHM   HO336594  -0.050   1.431  22.009
   35ARHM    C436595  -0.258   1.327  21.813
   35ARHM    H436596  -0.272   1.249  21.889
   35ARHM    O436597  -0.350   1.434  21.837
   35ARHM   HO436598  -0.328   1.519  21.793
   35ARHM    C636599  -0.425   1.214  21.609
   35ARHM   H6136600  -0.425   1.190  21.499
   35ARHM   H6236601  -0.424   1.130  21.675
   35ARHM   H6336602  -0.501   1.290  21.638
   36BMANN   C136603   0.095   1.112  21.886
   36BMANN   H136604   0.186   1.165  21.851
   36BMANN   C536605   0.198   0.918  21.808
   36BMANN   H536606   0.284   0.984  21.780
   36BMANN   O536607   0.079   0.998  21.803
   36BMANN   C236608   0.111   1.071  22.030
   36BMANN   H236609   0.128   1.166  22.084
   36BMANN    N36610  -0.000   1.002  22.096
   36BMANN   HN36611  -0.058   0.951  22.033
   36BMANN    C36612  -0.024   1.006  22.233
   36BMANN    O36613   0.033   1.088  22.305
   36BMANN   CT36614  -0.124   0.908  22.299
   36BMANN  HT136615  -0.134   0.817  22.239
   36BMANN  HT236616  -0.228   0.940  22.312
   36BMANN  HT336617  -0.117   0.901  22.409
   36BMANN   C336618   0.237   0.990  22.038
   36BMANN   H336619   0.323   1.051  22.002
   36BMANN   O336620   0.261   0.949  22.171
   36BMANN  HO336621   0.341   0.987  22.209
   36BMANN   C436622   0.221   0.870  21.949
   36BMANN   H436623   0.136   0.809  21.982
   36BMANN   O436624   0.333   0.784  21.959
   36BMANN  HO436625   0.345   0.776  22.055
   36BMANN   C636626   0.197   0.809  21.704
   36BMANN  H6136627   0.180   0.852  21.603
   36BMANN  H6236628   0.298   0.762  21.704
   36BMANN   O636629   0.099   0.709  21.727
   36BMANN  HO636630   0.134   0.647  21.792
    1ECLIP HB6S36631   1.308   0.219  11.779
    1ECLIP  OB636632   1.464   0.259  11.909
    1ECLIP  CB636633   1.373   0.305  11.806
    1ECLIP HB6R36634   1.308   0.386  11.846
    1ECLIP  CB536635   1.440   0.359  11.680
    1ECLIP  OB536636   1.526   0.253  11.633
    1ECLIP  HB536637   1.498   0.448  11.711
    1ECLIP  CB136638   1.597   0.289  11.515
    1ECLIP  HB136639   1.657   0.381  11.532
    1ECLIP  OA636640   1.688   0.191  11.471
    1ECLIP  CA636641   1.644   0.055  11.493
    1ECLIP HA6R36642   1.534   0.047  11.512
    1ECLIP HA6S36643   1.698   0.014  11.581
    1ECLIP  CB436644   1.340   0.399  11.569
    1ECLIP  HB436645   1.272   0.314  11.541
    1ECLIP  OB436646   1.269   0.514  11.619
    1ECLIP   PB36647   1.111   0.502  11.667
    1ECLIP OPB436648   1.089   0.597  11.785
    1ECLIP OPB336649   1.095   0.355  11.705
    1ECLIP OPB236650   1.031   0.545  11.544
    1ECLIP  CB336651   1.416   0.438  11.445
    1ECLIP  OB336652   1.336   0.468  11.330
    1ECLIP  HB336653   1.486   0.521  11.469
    1ECLIP  C7136654   1.292   0.592  11.314
    1ECLIP  O7136655   1.348   0.689  11.362
    1ECLIP  C7236656   1.224   0.599  11.174
    1ECLIP H72R36657   1.292   0.560  11.096
    1ECLIP H72S36658   1.198   0.704  11.153
    1ECLIP  CB236659   1.503   0.321  11.403
    1ECLIP  HB236660   1.436   0.232  11.387
    1ECLIP  NB236661   1.578   0.354  11.282
    1ECLIP HNB236662   1.668   0.394  11.290
    1ECLIP  CA436663   1.814  -0.000  11.317
    1ECLIP  HA436664   1.815   0.108  11.289
    1ECLIP  OA436665   1.912  -0.023  11.419
    1ECLIP HOA436666   1.878   0.014  11.500
    1ECLIP  CA536667   1.676  -0.029  11.371
    1ECLIP  HA536668   1.660  -0.137  11.394
    1ECLIP  OA536669   1.583   0.010  11.272
    1ECLIP  CA136670   1.596  -0.060  11.148
    1ECLIP  HA136671   1.528  -0.004  11.080
    1ECLIP  OA136672   1.556  -0.196  11.148
    1ECLIP OPA236673   1.434  -0.306  11.336
    1ECLIP OPA336674   1.326  -0.106  11.220
    1ECLIP OPA436675   1.344  -0.326  11.098
    1ECLIP   PA36676   1.405  -0.235  11.204
    1ECLIP  CA336677   1.842  -0.075  11.189
    1ECLIP  HA336678   1.839  -0.185  11.211
    1ECLIP  OA336679   1.978  -0.039  11.155
    1ECLIP  C3136680   1.997   0.076  11.087
    1ECLIP  O3136681   1.993   0.079  10.966
    1ECLIP  C3236682   2.093   0.166  11.165
    1ECLIP H32R36683   2.188   0.169  11.108
    1ECLIP H32S36684   2.113   0.121  11.264
    1ECLIP  CA236685   1.732  -0.033  11.090
    1ECLIP  HA236686   1.739   0.076  11.075
    1ECLIP  NA236687   1.742  -0.088  10.956
    1ECLIP HNA236688   1.825  -0.142  10.944
    1ECLIP  C7336689   1.096   0.512  11.172
    1ECLIP H73R36690   1.038   0.533  11.264
    1ECLIP  O7336691   1.141   0.376  11.163
    1ECLIP  C8136692   1.075   0.282  11.230
    1ECLIP  O8136693   0.971   0.301  11.290
    1ECLIP  C8236694   1.114   0.145  11.170
    1ECLIP H82R36695   1.058   0.065  11.223
    1ECLIP H82S36696   1.221   0.127  11.192
    1ECLIP  C8336697   1.091   0.135  11.017
    1ECLIP H83R36698   1.177   0.183  10.965
    1ECLIP H83S36699   0.999   0.190  10.990
    1ECLIP  C8436700   1.086  -0.010  10.965
    1ECLIP H84R36701   0.993  -0.061  10.996
    1ECLIP H84S36702   1.173  -0.063  11.013
    1ECLIP  C8536703   1.106  -0.019  10.813
    1ECLIP H85R36704   1.189   0.052  10.791
    1ECLIP H85S36705   1.016   0.017  10.760
    1ECLIP  C8636706   1.155  -0.158  10.765
    1ECLIP H86R36707   1.070  -0.223  10.735
    1ECLIP H86S36708   1.207  -0.210  10.849
    1ECLIP  C8736709   1.260  -0.148  10.652
    1ECLIP H87R36710   1.286  -0.249  10.616
    1ECLIP H87S36711   1.354  -0.105  10.694
    1ECLIP  C8836712   1.216  -0.056  10.538
    1ECLIP H88R36713   1.226   0.050  10.571
    1ECLIP H88S36714   1.106  -0.070  10.524
    1ECLIP  C8936715   1.295  -0.076  10.408
    1ECLIP H89R36716   1.393  -0.126  10.426
    1ECLIP H89S36717   1.319   0.022  10.362
    1ECLIP C81036718   1.211  -0.154  10.306
    1ECLIPH810R36719   1.105  -0.131  10.330
    1ECLIPH810S36720   1.228  -0.262  10.323
    1ECLIP C81136721   1.241  -0.118  10.160
    1ECLIPH811R36722   1.207  -0.198  10.090
    1ECLIPH811S36723   1.351  -0.106  10.152
    1ECLIP C81236724   1.180   0.014  10.110
    1ECLIPH812R36725   1.221   0.032  10.008
    1ECLIPH812S36726   1.211   0.097  10.177
    1ECLIP C81336727   1.027   0.019  10.102
    1ECLIPH813R36728   0.995  -0.059  10.029
    1ECLIPH813S36729   0.980  -0.002  10.200
    1ECLIP C81436730   0.979   0.155  10.056
    1ECLIPH814R36731   1.040   0.190   9.970
    1ECLIPH814S36732   0.989   0.232  10.134
    1ECLIPH814T36733   0.871   0.149  10.026
    1ECLIP  C7436734   1.004   0.534  11.049
    1ECLIP H74R36735   0.963   0.637  11.041
    1ECLIP H74S36736   0.916   0.468  11.068
    1ECLIP  C7536737   1.065   0.489  10.914
    1ECLIP H75R36738   0.982   0.443  10.855
    1ECLIP H75S36739   1.139   0.408  10.933
    1ECLIP  C7636740   1.133   0.599  10.831
    1ECLIP H76R36741   1.233   0.619  10.874
    1ECLIP H76S36742   1.075   0.694  10.835
    1ECLIP  C7736743   1.151   0.564  10.682
    1ECLIP H77R36744   1.051   0.555  10.635
    1ECLIP H77S36745   1.199   0.466  10.667
    1ECLIP  C7836746   1.242   0.670  10.616
    1ECLIP H78R36747   1.201   0.770  10.643
    1ECLIP H78S36748   1.340   0.661  10.668
    1ECLIP  C7936749   1.273   0.656  10.465
    1ECLIP H79R36750   1.368   0.601  10.453
    1ECLIP H79S36751   1.287   0.757  10.419
    1ECLIP C71036752   1.164   0.590  10.381
    1ECLIPH710R36753   1.138   0.490  10.423
    1ECLIPH710S36754   1.074   0.655  10.385
    1ECLIP C71136755   1.204   0.571  10.234
    1ECLIPH711R36756   1.228   0.670  10.189
    1ECLIPH711S36757   1.293   0.505  10.228
    1ECLIP C71236758   1.089   0.504  10.159
    1ECLIPH712R36759   1.001   0.572  10.162
    1ECLIPH712S36760   1.062   0.413  10.218
    1ECLIP C71336761   1.124   0.463  10.016
    1ECLIPH713R36762   1.208   0.390  10.020
    1ECLIPH713S36763   1.036   0.413   9.968
    1ECLIP C71436764   1.161   0.580   9.924
    1ECLIPH714R36765   1.076   0.651   9.916
    1ECLIPH714S36766   1.252   0.634   9.959
    1ECLIPH714T36767   1.181   0.540   9.823
    1ECLIP  C5136768   1.526   0.334  11.160
    1ECLIP  O5136769   1.427   0.264  11.144
    1ECLIP  C5236770   1.590   0.404  11.042
    1ECLIP H52R36771   1.546   0.505  11.029
    1ECLIP H52S36772   1.698   0.416  11.061
    1ECLIP  C5336773   1.569   0.323  10.912
    1ECLIP H53R36774   1.571   0.213  10.935
    1ECLIP  O5336775   1.673   0.364  10.821
    1ECLIP  C6136776   1.767   0.277  10.789
    1ECLIP  O6136777   1.771   0.161  10.821
    1ECLIP  C6236778   1.870   0.342  10.695
    1ECLIP H62R36779   1.942   0.397  10.758
    1ECLIP H62S36780   1.814   0.417  10.637
    1ECLIP  C6336781   1.943   0.236  10.607
    1ECLIP H63R36782   1.867   0.168  10.564
    1ECLIP H63S36783   2.013   0.175  10.669
    1ECLIP  C6436784   2.022   0.292  10.487
    1ECLIP H64R36785   2.076   0.210  10.435
    1ECLIP H64S36786   2.097   0.364  10.528
    1ECLIP  C6536787   1.928   0.364  10.389
    1ECLIP H65R36788   1.884   0.446  10.450
    1ECLIP H65S36789   1.846   0.296  10.358
    1ECLIP  C6636790   1.988   0.428  10.263
    1ECLIP H66R36791   2.067   0.500  10.291
    1ECLIP H66S36792   1.904   0.484  10.216
    1ECLIP  C6736793   2.044   0.334  10.154
    1ECLIP H67R36794   2.119   0.263  10.194
    1ECLIP H67S36795   2.093   0.396  10.074
    1ECLIP  C6836796   1.940   0.246  10.086
    1ECLIP H68R36797   1.852   0.302  10.047
    1ECLIP H68S36798   1.906   0.175  10.164
    1ECLIP  C6936799   2.001   0.176   9.964
    1ECLIP H69R36800   2.110   0.156   9.975
    1ECLIP H69S36801   1.993   0.250   9.882
    1ECLIP C61036802   1.932   0.044   9.932
    1ECLIPH610R36803   1.822   0.059   9.938
    1ECLIPH610S36804   1.960  -0.032  10.008
    1ECLIP C61136805   1.975  -0.009   9.795
    1ECLIPH611R36806   2.086  -0.015   9.792
    1ECLIPH611S36807   1.937  -0.111   9.775
    1ECLIP C61236808   1.924   0.084   9.687
    1ECLIPH612R36809   1.814   0.079   9.686
    1ECLIPH612S36810   1.948   0.190   9.705
    1ECLIPH612T36811   1.967   0.058   9.590
    1ECLIP  C5436812   1.431   0.361  10.853
    1ECLIP H54R36813   1.436   0.468  10.825
    1ECLIP H54S36814   1.355   0.351  10.934
    1ECLIP  C5536815   1.382   0.278  10.733
    1ECLIP H55R36816   1.273   0.294  10.719
    1ECLIP H55S36817   1.394   0.170  10.756
    1ECLIP  C5636818   1.454   0.324  10.605
    1ECLIP H56R36819   1.563   0.314  10.622
    1ECLIP H56S36820   1.433   0.431  10.587
    1ECLIP  C5736821   1.428   0.246  10.477
    1ECLIP H57R36822   1.319   0.239  10.454
    1ECLIP H57S36823   1.465   0.142  10.491
    1ECLIP  C5836824   1.506   0.311  10.361
    1ECLIP H58R36825   1.492   0.421  10.358
    1ECLIP H58S36826   1.615   0.296  10.382
    1ECLIP  C5936827   1.466   0.253  10.225
    1ECLIP H59R36828   1.357   0.264  10.208
    1ECLIP H59S36829   1.487   0.144  10.233
    1ECLIP C51036830   1.532   0.321  10.103
    1ECLIPH510R36831   1.641   0.335  10.119
    1ECLIPH510S36832   1.487   0.422  10.088
    1ECLIP C51136833   1.510   0.242   9.974
    1ECLIPH511R36834   1.586   0.161   9.968
    1ECLIPH511S36835   1.409   0.200   9.962
    1ECLIP C51236836   1.534   0.322   9.853
    1ECLIPH512R36837   1.489   0.270   9.765
    1ECLIPH512S36838   1.493   0.427   9.854
    1ECLIP C51336839   1.678   0.318   9.831
    1ECLIPH513R36840   1.740   0.227   9.810
    1ECLIPH513S36841   1.739   0.392   9.893
    1ECLIP C51436842   1.660   0.370   9.704
    1ECLIPH514R36843   1.603   0.466   9.695
    1ECLIPH514S36844   1.771   0.384   9.712
    1ECLIPH514T36845   1.638   0.322   9.607
    1ECLIP  C3336846   2.047   0.314  11.183
    1ECLIP H33R36847   2.133   0.371  11.222
    1ECLIP  O3336848   1.946   0.322  11.283
    1ECLIP HO3336849   1.984   0.301  11.369
    1ECLIP  C3436850   1.995   0.387  11.056
    1ECLIP H34R36851   1.907   0.332  11.018
    1ECLIP H34S36852   2.074   0.383  10.977
    1ECLIP  C3536853   1.956   0.536  11.080
    1ECLIP H35R36854   2.044   0.595  11.113
    1ECLIP H35S36855   1.881   0.539  11.162
    1ECLIP  C3636856   1.896   0.604  10.956
    1ECLIP H36R36857   1.845   0.523  10.903
    1ECLIP H36S36858   1.975   0.646  10.889
    1ECLIP  C3736859   1.791   0.712  10.988
    1ECLIP H37R36860   1.843   0.809  11.004
    1ECLIP H37S36861   1.741   0.687  11.085
    1ECLIP  C3836862   1.682   0.729  10.880
    1ECLIP H38R36863   1.608   0.646  10.879
    1ECLIP H38S36864   1.624   0.821  10.905
    1ECLIP  C3936865   1.742   0.739  10.739
    1ECLIP H39R36866   1.805   0.649  10.718
    1ECLIP H39S36867   1.805   0.830  10.734
    1ECLIP C31036868   1.641   0.749  10.624
    1ECLIPH310R36869   1.595   0.850  10.633
    1ECLIPH310S36870   1.561   0.672  10.632
    1ECLIP C31136871   1.709   0.721  10.488
    1ECLIPH311R36872   1.813   0.760  10.489
    1ECLIPH311S36873   1.715   0.611  10.473
    1ECLIP C31236874   1.632   0.776  10.366
    1ECLIPH312R36875   1.523   0.769  10.385
    1ECLIPH312S36876   1.660   0.883  10.354
    1ECLIP C31336877   1.667   0.701  10.237
    1ECLIPH313R36878   1.771   0.730  10.211
    1ECLIPH313S36879   1.667   0.590  10.254
    1ECLIP C31436880   1.576   0.732  10.118
    1ECLIPH314R36881   1.580   0.841  10.096
    1ECLIPH314S36882   1.607   0.677  10.027
    1ECLIPH314T36883   1.471   0.705  10.141
    1ECLIP  C1136884   1.640  -0.106  10.865
    1ECLIP  O1136885   1.541  -0.038  10.851
    1ECLIP  C1236886   1.656  -0.218  10.773
    1ECLIP H12R36887   1.600  -0.311  10.792
    1ECLIP H12S36888   1.752  -0.237  10.817
    1ECLIP  C1336889   1.655  -0.172  10.625
    1ECLIP H13R36890   1.572  -0.108  10.600
    1ECLIP  O1336891   1.610  -0.285  10.553
    1ECLIP HO1336892   1.614  -0.291  10.457
    1ECLIP  C1436893   1.796  -0.115  10.576
    1ECLIP H14R36894   1.892  -0.145  10.623
    1ECLIP H14S36895   1.787  -0.011  10.612
    1ECLIP  C1536896   1.830  -0.109  10.427
    1ECLIP H15R36897   1.833  -0.206  10.376
    1ECLIP H15S36898   1.934  -0.071  10.417
    1ECLIP  C1636899   1.725  -0.032  10.351
    1ECLIP H16R36900   1.747   0.075  10.363
    1ECLIP H16S36901   1.626  -0.053  10.398
    1ECLIP  C1736902   1.725  -0.071  10.203
    1ECLIP H17R36903   1.832  -0.084  10.174
    1ECLIP H17S36904   1.678   0.005  10.139
    1ECLIP  C1836905   1.649  -0.198  10.172
    1ECLIP H18R36906   1.713  -0.265  10.223
    1ECLIP H18S36907   1.548  -0.205  10.215
    1ECLIP  C1936908   1.660  -0.245  10.029
    1ECLIP H19R36909   1.610  -0.342  10.008
    1ECLIP H19S36910   1.768  -0.252   9.998
    1ECLIP C11036911   1.577  -0.162   9.941
    1ECLIPH110R36912   1.472  -0.159   9.981
    1ECLIPH110S36913   1.624  -0.063   9.944
    1ECLIP C11136914   1.579  -0.226   9.805
    1ECLIPH111R36915   1.683  -0.251   9.775
    1ECLIPH111S36916   1.524  -0.323   9.813
    1ECLIP C11236917   1.507  -0.136   9.707
    1ECLIPH112R36918   1.402  -0.132   9.745
    1ECLIPH112S36919   1.547  -0.032   9.714
    1ECLIP C11336920   1.525  -0.190   9.566
    1ECLIPH113R36921   1.633  -0.177   9.551
    1ECLIPH113S36922   1.514  -0.299   9.558
    1ECLIP C11436923   1.442  -0.127   9.452
    1ECLIPH114R36924   1.333  -0.132   9.468
    1ECLIPH114S36925   1.469  -0.021   9.437
    1ECLIPH114T36926   1.461  -0.184   9.359
    2AKDO    C136927   1.535   0.478  11.976
    2AKDO   O1136928   1.464   0.581  11.975
    2AKDO   O1236929   1.657   0.474  11.937
    2AKDO    C236930   1.467   0.346  12.022
    2AKDO    C636931   1.271   0.244  12.121
    2AKDO    H636932   1.270   0.178  12.031
    2AKDO    O636933   1.335   0.366  12.081
    2AKDO    C336934   1.554   0.279  12.126
    2AKDO   H3136935   1.574   0.343  12.214
    2AKDO   H3236936   1.649   0.246  12.078
    2AKDO    C436937   1.495   0.156  12.170
    2AKDO    H436938   1.476   0.094  12.078
    2AKDO    O436939   1.593   0.096  12.259
    2AKDO    C536940   1.354   0.176  12.232
    2AKDO    H536941   1.300   0.079  12.244
    2AKDO    O536942   1.370   0.237  12.363
    2AKDO    C736943   1.123   0.269  12.153
    2AKDO    H736944   1.118   0.333  12.244
    2AKDO    O736945   1.052   0.145  12.171
    2AKDO   HO736946   1.034   0.118  12.081
    2AKDO    C836947   1.057   0.345  12.039
    2AKDO   H8136948   1.115   0.440  12.023
    2AKDO   H8236949   1.067   0.285  11.945
    2AKDO    O836950   0.916   0.373  12.065
    2AKDO   HO836951   0.910   0.464  12.028
    3AKDO    C136952   1.685  -0.104  12.097
    3AKDO   O1136953   1.684  -0.038  11.991
    3AKDO   O1236954   1.631  -0.217  12.115
    3AKDO    C236955   1.695  -0.002  12.226
    3AKDO    C636956   1.835   0.165  12.316
    3AKDO    H636957   1.751   0.238  12.334
    3AKDO    O636958   1.813   0.073  12.206
    3AKDO    C336959   1.712  -0.074  12.358
    3AKDO   H3136960   1.781  -0.151  12.333
    3AKDO   H3236961   1.643  -0.146  12.394
    3AKDO    C436962   1.738   0.015  12.472
    3AKDO    H436963   1.651   0.085  12.487
    3AKDO    O436964   1.758  -0.060  12.588
    3AKDO   HO436965   1.696  -0.018  12.652
    3AKDO    C536966   1.857   0.092  12.442
    3AKDO    H536967   1.882   0.157  12.528
    3AKDO    O536968   1.967   0.009  12.420
    3AKDO   HO536969   1.939  -0.069  12.367
    3AKDO    C736970   1.950   0.243  12.272
    3AKDO    H736971   2.034   0.174  12.250
    3AKDO    O736972   1.987   0.330  12.378
    3AKDO   HO736973   2.069   0.370  12.350
    3AKDO    C836974   1.908   0.319  12.149
    3AKDO   H8136975   1.868   0.252  12.070
    3AKDO   H8236976   1.828   0.394  12.170
    3AKDO    O836977   2.021   0.384  12.094
    3AKDO   HO836978   2.075   0.313  12.058
    4AHEP    C136979   1.271   0.213  12.462
    4AHEP    H136980   1.184   0.273  12.427
    4AHEP    C536981   1.304  -0.005  12.543
    4AHEP    H536982   1.407   0.009  12.500
    4AHEP    O536983   1.219   0.081  12.470
    4AHEP    C236984   1.293   0.261  12.607
    4AHEP    H236985   1.337   0.363  12.604
    4AHEP    O236986   1.167   0.271  12.672
    4AHEP   HO236987   1.169   0.347  12.729
    4AHEP    C336988   1.386   0.172  12.689
    4AHEP    H336989   1.489   0.172  12.647
    4AHEP    O336990   1.390   0.211  12.827
    4AHEP    C436991   1.322   0.037  12.686
    4AHEP    H436992   1.224   0.030  12.738
    4AHEP    O436993   1.413  -0.055  12.738
    4AHEP    P436994   1.405  -0.119  12.885
    4AHEP  OP4236995   1.537  -0.106  12.966
    4AHEP  OP4336996   1.388  -0.253  12.817
    4AHEP  OP4436997   1.285  -0.055  12.948
    4AHEP    C636998   1.242  -0.144  12.530
    4AHEP    H636999   1.312  -0.216  12.576
    4AHEP    O637000   1.130  -0.169  12.608
    4AHEP   HO637001   1.145  -0.228  12.684
    4AHEP    C737002   1.205  -0.190  12.389
    4AHEP   H7137003   1.214  -0.299  12.366
    4AHEP   H7237004   1.262  -0.143  12.308
    4AHEP    O737005   1.095  -0.131  12.349
    4AHEP   HO737006   1.021  -0.184  12.377
    5AHEP    C137007   1.509   0.257  12.886
    5AHEP    H137008   1.598   0.224  12.836
    5AHEP    C537009   1.427   0.469  12.933
    5AHEP    H537010   1.330   0.430  12.896
    5AHEP    O537011   1.529   0.396  12.868
    5AHEP    C237012   1.510   0.221  13.034
    5AHEP    H237013   1.490   0.112  13.044
    5AHEP    O237014   1.636   0.242  13.096
    5AHEP   HO237015   1.691   0.164  13.086
    5AHEP    C337016   1.404   0.298  13.110
    5AHEP    H337017   1.305   0.268  13.068
    5AHEP    O337018   1.407   0.285  13.254
    5AHEP    C437019   1.431   0.444  13.083
    5AHEP    H437020   1.532   0.473  13.120
    5AHEP    O437021   1.327   0.521  13.142
    5AHEP    P437022   1.364   0.626  13.266
    5AHEP  OP4237023   1.223   0.668  13.310
    5AHEP  OP4337024   1.435   0.742  13.201
    5AHEP  OP4437025   1.450   0.550  13.368
    5AHEP    C637026   1.438   0.616  12.893
    5AHEP    H637027   1.354   0.670  12.941
    5AHEP    O637028   1.562   0.674  12.939
    5AHEP   HO637029   1.635   0.646  12.886
    5AHEP    C737030   1.421   0.634  12.743
    5AHEP   H7137031   1.364   0.728  12.728
    5AHEP   H7237032   1.359   0.554  12.697
    5AHEP    O737033   1.549   0.651  12.679
    6AHEP    C137034   1.594   0.536  12.615
    6AHEP    H137035   1.532   0.447  12.639
    6AHEP    C537036   1.666   0.668  12.431
    6AHEP    H537037   1.631   0.758  12.487
    6AHEP    O537038   1.586   0.556  12.474
    6AHEP    C237039   1.736   0.508  12.658
    6AHEP    H237040   1.734   0.496  12.770
    6AHEP    O237041   1.779   0.382  12.609
    6AHEP   HO237042   1.786   0.323  12.683
    6AHEP    C337043   1.826   0.625  12.620
    6AHEP    H337044   1.789   0.715  12.674
    6AHEP    O337045   1.964   0.607  12.656
    6AHEP   HO337046   1.994   0.645  12.739
    6AHEP    C437047   1.813   0.646  12.469
    6AHEP    H437048   1.853   0.557  12.416
    6AHEP    O437049   1.886   0.760  12.426
    6AHEP   HO437050   1.836   0.838  12.448
    6AHEP    C637051   1.644   0.705  12.285
    6AHEP    H637052   1.697   0.801  12.267
    6AHEP    O637053   1.705   0.613  12.193
    6AHEP   HO637054   1.633   0.575  12.140
    6AHEP    C737055   1.498   0.736  12.254
    6AHEP   H7137056   1.491   0.776  12.150
    6AHEP   H7237057   1.463   0.814  12.325
    6AHEP    O737058   1.409   0.626  12.266
    6AHEP   HO737059   1.389   0.612  12.358
    7AGLC    C137060   1.322   0.189  13.308
    7AGLC    H137061   1.226   0.184  13.256
    7AGLC    C537062   1.506   0.055  13.359
    7AGLC    H537063   1.582   0.128  13.324
    7AGLC    O537064   1.387   0.070  13.286
    7AGLC    C237065   1.296   0.185  13.457
    7AGLC    H237066   1.241   0.090  13.479
    7AGLC    O237067   1.211   0.289  13.497
    7AGLC   HO237068   1.264   0.371  13.493
    7AGLC    C337069   1.422   0.180  13.539
    7AGLC    H337070   1.490   0.259  13.500
    7AGLC    O337071   1.403   0.193  13.681
    7AGLC    C437072   1.487   0.053  13.504
    7AGLC    H437073   1.422  -0.033  13.528
    7AGLC    O437074   1.614   0.042  13.564
    7AGLC   HO437075   1.620  -0.049  13.601
    7AGLC    C637076   1.555  -0.071  13.316
    7AGLC   H6137077   1.555  -0.064  13.202
    7AGLC   H6237078   1.658  -0.084  13.349
    7AGLC    O637079   1.481  -0.182  13.370
    7AGLC   HO637080   1.521  -0.270  13.383
    8AGLC    C137081   1.474   0.304  13.730
    8AGLC    H137082   1.577   0.305  13.688
    8AGLC    C537083   1.283   0.455  13.758
    8AGLC    H537084   1.219   0.371  13.724
    8AGLC    O537085   1.412   0.431  13.697
    8AGLC    C237086   1.490   0.297  13.880
    8AGLC    H237087   1.554   0.384  13.907
    8AGLC    O237088   1.557   0.181  13.931
    8AGLC    C337089   1.358   0.313  13.949
    8AGLC    H337090   1.291   0.231  13.909
    8AGLC    O337091   1.379   0.290  14.090
    8AGLC    C437092   1.301   0.447  13.910
    8AGLC    H437093   1.374   0.526  13.940
    8AGLC    O437094   1.179   0.472  13.980
    8AGLC   HO437095   1.126   0.392  13.975
    8AGLC    C637096   1.212   0.584  13.710
    8AGLC   H6137097   1.214   0.593  13.599
    8AGLC   H6237098   1.105   0.582  13.737
    8AGLC    O637099   1.264   0.704  13.768
    8AGLC   HO637100   1.224   0.713  13.855
    9AGAL    C137101   1.684   0.151  13.879
    9AGAL    H137102   1.683   0.154  13.769
    9AGAL    C537103   1.805   0.237  14.064
    9AGAL    H537104   1.704   0.247  14.111
    9AGAL    O537105   1.785   0.242  13.922
    9AGAL    C237106   1.717   0.010  13.918
    9AGAL    H237107   1.814  -0.014  13.872
    9AGAL    O237108   1.623  -0.070  13.843
    9AGAL    C337109   1.739   0.004  14.070
    9AGAL    H337110   1.645   0.023  14.127
    9AGAL    O337111   1.791  -0.118  14.114
    9AGAL   HO337112   1.748  -0.183  14.062
    9AGAL    C437113   1.849   0.100  14.105
    9AGAL    H437114   1.866   0.097  14.216
    9AGAL    O437115   1.972   0.063  14.044
    9AGAL   HO437116   2.045   0.095  14.097
    9AGAL    C637117   1.888   0.350  14.120
    9AGAL   H6137118   1.840   0.447  14.097
    9AGAL   H6237119   1.892   0.343  14.230
    9AGAL    O637120   2.023   0.353  14.077
    9AGAL   HO637121   2.032   0.418  14.005
   10AGAL    C137122   1.557  -0.178  13.898
   10AGAL    H137123   1.628  -0.262  13.906
   10AGAL    C537124   1.384  -0.066  14.044
   10AGAL    H537125   1.425   0.023  13.997
   10AGAL    O537126   1.487  -0.149  14.023
   10AGAL    C237127   1.463  -0.237  13.808
   10AGAL    H237128   1.415  -0.323  13.857
   10AGAL    O237129   1.501  -0.356  13.737
   10AGAL   HO237130   1.452  -0.372  13.655
   10AGAL    C337131   1.353  -0.133  13.794
   10AGAL    H337132   1.400  -0.033  13.784
   10AGAL    O337133   1.280  -0.134  13.669
   10AGAL   HO337134   1.238  -0.053  13.630
   10AGAL    C437135   1.294  -0.126  13.945
   10AGAL    H437136   1.216  -0.048  13.965
   10AGAL    O437137   1.247  -0.264  13.968
   10AGAL   HO437138   1.314  -0.327  14.005
   10AGAL    C637139   1.344  -0.001  14.190
   10AGAL   H6137140   1.438   0.004  14.246
   10AGAL   H6237141   1.275   0.081  14.162
   10AGAL    O637142   1.268  -0.037  14.309
   10AGAL   HO637143   1.285  -0.129  14.335
   11BGLC    C137144   1.397   0.395  14.185
   11BGLC    H137145   1.300   0.449  14.198
   11BGLC    C537146   1.533   0.588  14.249
   11BGLC    H537147   1.443   0.650  14.273
   11BGLC    O537148   1.505   0.484  14.150
   11BGLC    C237149   1.435   0.326  14.316
   11BGLC    H237150   1.526   0.264  14.301
   11BGLC    O237151   1.332   0.239  14.360
   11BGLC   HO237152   1.366   0.148  14.365
   11BGLC    C337153   1.464   0.424  14.427
   11BGLC    H337154   1.372   0.480  14.453
   11BGLC    O337155   1.515   0.353  14.542
   11BGLC    C437156   1.575   0.516  14.379
   11BGLC    H437157   1.663   0.452  14.354
   11BGLC    O437158   1.617   0.604  14.484
   11BGLC   HO437159   1.660   0.553  14.554
   11BGLC    C637160   1.635   0.684  14.190
   11BGLC   H6137161   1.689   0.742  14.267
   11BGLC   H6237162   1.710   0.626  14.134
   11BGLC    O637163   1.578   0.779  14.100
   11BGLC   HO637164   1.584   0.867  14.136
   12BGLCN   C137165   1.453   0.368  14.668
   12BGLCN   H137166   1.364   0.302  14.674
   12BGLCN   C537167   1.353   0.515  14.825
   12BGLCN   H537168   1.262   0.450  14.833
   12BGLCN   O537169   1.415   0.502  14.696
   12BGLCN   C237170   1.557   0.327  14.772
   12BGLCN   H237171   1.639   0.402  14.767
   12BGLCN    N37172   1.605   0.198  14.730
   12BGLCN   HN37173   1.534   0.126  14.736
   12BGLCN    C37174   1.732   0.166  14.722
   12BGLCN    O37175   1.820   0.246  14.743
   12BGLCN   CT37176   1.769   0.026  14.690
   12BGLCN  HT137177   1.817  -0.016  14.780
   12BGLCN  HT237178   1.844   0.022  14.608
   12BGLCN  HT337179   1.680  -0.034  14.667
   12BGLCN   C337180   1.503   0.330  14.916
   12BGLCN   H337181   1.415   0.264  14.920
   12BGLCN   O337182   1.596   0.284  15.023
   12BGLCN   C437183   1.455   0.474  14.933
   12BGLCN   H437184   1.542   0.544  14.926
   12BGLCN   O437185   1.398   0.493  15.061
   12BGLCN  HO437186   1.312   0.449  15.066
   12BGLCN   C637187   1.307   0.660  14.831
   12BGLCN  H6137188   1.259   0.682  14.929
   12BGLCN  H6237189   1.395   0.726  14.820
   12BGLCN   O637190   1.217   0.693  14.725
   12BGLCN  HO637191   1.127   0.669  14.749
   13AGAL    C137192   1.545   0.219  15.142
   13AGAL    H137193   1.443   0.260  15.164
   13AGAL    C537194   1.673   0.005  15.089
   13AGAL    H537195   1.729   0.074  15.021
   13AGAL    O537196   1.543   0.076  15.122
   13AGAL    C237197   1.634   0.217  15.259
   13AGAL    H237198   1.587   0.147  15.332
   13AGAL    O237199   1.633   0.344  15.319
   13AGAL    C337200   1.769   0.154  15.234
   13AGAL    H337201   1.819   0.203  15.146
   13AGAL    O337202   1.857   0.165  15.342
   13AGAL   HO337203   1.945   0.182  15.307
   13AGAL    C437204   1.752   0.011  15.200
   13AGAL    H437205   1.850  -0.036  15.169
   13AGAL    O437206   1.666  -0.074  15.278
   13AGAL   HO437207   1.610  -0.029  15.344
   13AGAL    C637208   1.687  -0.127  15.002
   13AGAL   H6137209   1.661  -0.124  14.896
   13AGAL   H6237210   1.786  -0.164  14.974
   13AGAL    O637211   1.606  -0.229  15.051
   13AGAL   HO637212   1.662  -0.265  15.122
   14ARHM    C137213   1.563   0.347  15.440
   14ARHM    H137214   1.480   0.272  15.440
   14ARHM    C537215   1.600   0.579  15.454
   14ARHM    H537216   1.654   0.573  15.356
   14ARHM    O537217   1.502   0.474  15.458
   14ARHM    C237218   1.663   0.319  15.548
   14ARHM    H237219   1.709   0.219  15.531
   14ARHM    O237220   1.612   0.326  15.682
   14ARHM    C337221   1.768   0.427  15.542
   14ARHM    H337222   1.809   0.432  15.439
   14ARHM    O337223   1.879   0.398  15.626
   14ARHM   HO337224   1.856   0.408  15.719
   14ARHM    C437225   1.701   0.560  15.568
   14ARHM    H437226   1.643   0.558  15.664
   14ARHM    O437227   1.793   0.669  15.578
   14ARHM   HO437228   1.806   0.696  15.669
   14ARHM    C637229   1.525   0.712  15.461
   14ARHM   H6137230   1.437   0.714  15.393
   14ARHM   H6237231   1.493   0.728  15.566
   14ARHM   H6337232   1.589   0.798  15.431
   15ARHM    C137233   1.502   0.245  15.710
   15ARHM    H137234   1.499   0.157  15.641
   15ARHM    C537235   1.361   0.421  15.799
   15ARHM    H537236   1.434   0.503  15.781
   15ARHM    O537237   1.375   0.314  15.703
   15ARHM    C237238   1.522   0.192  15.849
   15ARHM    H237239   1.619   0.139  15.857
   15ARHM    O237240   1.422   0.097  15.873
   15ARHM    C337241   1.516   0.301  15.950
   15ARHM    H337242   1.591   0.377  15.921
   15ARHM    O337243   1.554   0.246  16.077
   15ARHM    C437244   1.377   0.365  15.940
   15ARHM    H437245   1.300   0.286  15.953
   15ARHM    O437246   1.350   0.465  16.037
   15ARHM   HO437247   1.255   0.481  16.032
   15ARHM    C637248   1.221   0.483  15.782
   15ARHM   H6137249   1.208   0.576  15.842
   15ARHM   H6237250   1.203   0.504  15.674
   15ARHM   H6337251   1.143   0.414  15.817
   16BMANN   C137252   1.423   0.034  16.000
   16BMANN   H137253   1.381   0.100  16.079
   16BMANN   C537254   1.523  -0.107  16.162
   16BMANN   H537255   1.482  -0.035  16.235
   16BMANN   O537256   1.540  -0.035  16.038
   16BMANN   C237257   1.325  -0.065  15.980
   16BMANN   H237258   1.237  -0.001  15.953
   16BMANN    N37259   1.370  -0.144  15.861
   16BMANN   HN37260   1.398  -0.235  15.885
   16BMANN    C37261   1.329  -0.149  15.733
   16BMANN    O37262   1.266  -0.052  15.692
   16BMANN   CT37263   1.350  -0.284  15.650
   16BMANN  HT137264   1.263  -0.352  15.636
   16BMANN  HT237265   1.428  -0.349  15.690
   16BMANN  HT337266   1.379  -0.273  15.546
   16BMANN   C337267   1.290  -0.150  16.120
   16BMANN   H337268   1.262  -0.073  16.195
   16BMANN   O337269   1.179  -0.247  16.138
   16BMANN  HO337270   1.098  -0.230  16.188
   16BMANN   C437271   1.415  -0.223  16.153
   16BMANN   H437272   1.448  -0.294  16.077
   16BMANN   O437273   1.380  -0.318  16.256
   16BMANN  HO437274   1.450  -0.376  16.296
   16BMANN   C637275   1.664  -0.133  16.205
   16BMANN  H6137276   1.674  -0.116  16.314
   16BMANN  H6237277   1.683  -0.237  16.174
   16BMANN   O637278   1.774  -0.064  16.156
   16BMANN  HO637279   1.822  -0.140  16.119
   17BGLCN   C137280   1.636   0.330  16.151
   17BGLCN   H137281   1.604   0.435  16.135
   17BGLCN   C537282   1.862   0.401  16.193
   17BGLCN   H537283   1.837   0.508  16.172
   17BGLCN   O537284   1.774   0.317  16.115
   17BGLCN   C237285   1.614   0.286  16.294
   17BGLCN   H237286   1.652   0.182  16.311
   17BGLCN    N37287   1.473   0.284  16.324
   17BGLCN   HN37288   1.418   0.350  16.273
   17BGLCN    C37289   1.411   0.211  16.418
   17BGLCN    O37290   1.464   0.123  16.484
   17BGLCN   CT37291   1.268   0.248  16.440
   17BGLCN  HT137292   1.197   0.180  16.389
   17BGLCN  HT237293   1.251   0.352  16.404
   17BGLCN  HT337294   1.245   0.246  16.548
   17BGLCN   C337295   1.695   0.381  16.380
   17BGLCN   H337296   1.664   0.483  16.346
   17BGLCN   O337297   1.660   0.365  16.520
   17BGLCN   C437298   1.843   0.364  16.341
   17BGLCN   H437299   1.870   0.255  16.349
   17BGLCN   O437300   1.929   0.434  16.431
   17BGLCN  HO437301   2.023   0.427  16.405
   17BGLCN   C637302   2.007   0.380  16.146
   17BGLCN  H6137303   2.064   0.474  16.152
   17BGLCN  H6237304   2.055   0.307  16.214
   17BGLCN   O637305   2.021   0.329  16.014
   17BGLCN  HO637306   1.979   0.389  15.952
   18AGAL    C137307   1.660   0.483  16.599
   18AGAL    H137308   1.766   0.514  16.617
   18AGAL    C537309   1.452   0.571  16.522
   18AGAL    H537310   1.438   0.471  16.476
   18AGAL    O537311   1.593   0.593  16.535
   18AGAL    C237312   1.591   0.467  16.733
   18AGAL    H237313   1.599   0.570  16.775
   18AGAL    O237314   1.663   0.383  16.823
   18AGAL    C337315   1.441   0.438  16.721
   18AGAL    H337316   1.429   0.350  16.653
   18AGAL    O337317   1.375   0.405  16.844
   18AGAL   HO337318   1.324   0.324  16.833
   18AGAL    C437319   1.376   0.557  16.653
   18AGAL    H437320   1.269   0.537  16.629
   18AGAL    O437321   1.382   0.674  16.734
   18AGAL   HO437322   1.320   0.667  16.807
   18AGAL    C637323   1.397   0.659  16.413
   18AGAL   H6137324   1.451   0.632  16.320
   18AGAL   H6237325   1.289   0.636  16.399
   18AGAL    O637326   1.412   0.798  16.438
   18AGAL   HO637327   1.484   0.811  16.501
   19ARHM    C137328   1.664   0.438  16.953
   19ARHM    H137329   1.573   0.499  16.972
   19ARHM    C537330   1.900   0.466  16.965
   19ARHM    H537331   1.900   0.427  16.862
   19ARHM    O537332   1.773   0.529  16.980
   19ARHM    C237333   1.672   0.322  17.048
   19ARHM    H237334   1.593   0.247  17.023
   19ARHM    O237335   1.650   0.366  17.182
   19ARHM    C337336   1.805   0.253  17.032
   19ARHM    H337337   1.817   0.220  16.927
   19ARHM    O337338   1.811   0.138  17.114
   19ARHM   HO337339   1.786   0.171  17.200
   19ARHM    C437340   1.916   0.351  17.062
   19ARHM    H437341   1.904   0.389  17.166
   19ARHM    O437342   2.047   0.295  17.052
   19ARHM   HO437343   2.060   0.265  16.962
   19ARHM    C637344   2.012   0.571  16.965
   19ARHM   H6137345   1.987   0.642  16.884
   19ARHM   H6237346   2.021   0.624  17.061
   19ARHM   H6337347   2.110   0.523  16.943
   20ARHM    C137348   1.515   0.401  17.206
   20ARHM    H137349   1.450   0.366  17.123
   20ARHM    C537350   1.559   0.597  17.331
   20ARHM    H537351   1.667   0.576  17.318
   20ARHM    O537352   1.490   0.541  17.218
   20ARHM    C237353   1.475   0.328  17.331
   20ARHM    H237354   1.505   0.221  17.321
   20ARHM    O237355   1.334   0.339  17.351
   20ARHM    C337356   1.546   0.383  17.449
   20ARHM    H337357   1.657   0.373  17.433
   20ARHM    O337358   1.505   0.306  17.562
   20ARHM    C437359   1.514   0.529  17.460
   20ARHM    H437360   1.405   0.547  17.473
   20ARHM    O437361   1.581   0.583  17.572
   20ARHM   HO437362   1.590   0.676  17.552
   20ARHM    C637363   1.539   0.749  17.330
   20ARHM   H6137364   1.433   0.776  17.346
   20ARHM   H6237365   1.598   0.794  17.413
   20ARHM   H6337366   1.574   0.793  17.234
   21BMANN   C137367   1.267   0.242  17.276
   21BMANN   H137368   1.339   0.191  17.208
   21BMANN   C537369   1.118   0.196  17.102
   21BMANN   H537370   1.201   0.144  17.046
   21BMANN   O537371   1.171   0.299  17.187
   21BMANN   C237372   1.206   0.141  17.369
   21BMANN   H237373   1.292   0.096  17.426
   21BMANN    N37374   1.109   0.201  17.462
   21BMANN   HN37375   1.043   0.263  17.423
   21BMANN    C37376   1.107   0.172  17.593
   21BMANN    O37377   1.178   0.084  17.638
   21BMANN   CT37378   1.012   0.249  17.684
   21BMANN  HT137379   0.907   0.226  17.664
   21BMANN  HT237380   1.027   0.357  17.670
   21BMANN  HT337381   1.028   0.223  17.791
   21BMANN   C337382   1.149   0.034  17.280
   21BMANN   H337383   1.236  -0.012  17.228
   21BMANN   O337384   1.088  -0.067  17.354
   21BMANN  HO337385   1.021  -0.035  17.415
   21BMANN   C437386   1.049   0.092  17.184
   21BMANN   H437387   0.962   0.135  17.238
   21BMANN   O437388   0.994  -0.000  17.093
   21BMANN  HO437389   0.905  -0.027  17.119
   21BMANN   C637390   1.025   0.253  16.998
   21BMANN  H6137391   1.010   0.177  16.917
   21BMANN  H6237392   0.927   0.271  17.045
   21BMANN   O637393   1.076   0.374  16.942
   21BMANN  HO637394   1.082   0.437  17.016
   22BGLCN   C137395   1.603   0.289  17.661
   22BGLCN   H137396   1.680   0.369  17.661
   22BGLCN   C537397   1.765   0.154  17.753
   22BGLCN   H537398   1.839   0.237  17.754
   22BGLCN   O537399   1.675   0.171  17.642
   22BGLCN   C237400   1.530   0.286  17.791
   22BGLCN   H237401   1.456   0.201  17.787
   22BGLCN    N37402   1.464   0.412  17.808
   22BGLCN   HN37403   1.511   0.493  17.774
   22BGLCN    C37404   1.348   0.427  17.871
   22BGLCN    O37405   1.285   0.335  17.921
   22BGLCN   CT37406   1.297   0.568  17.877
   22BGLCN  HT137407   1.229   0.581  17.791
   22BGLCN  HT237408   1.382   0.638  17.865
   22BGLCN  HT337409   1.247   0.589  17.973
   22BGLCN   C337410   1.624   0.264  17.906
   22BGLCN   H337411   1.705   0.341  17.903
   22BGLCN   O337412   1.550   0.276  18.028
   22BGLCN   C437413   1.693   0.136  17.886
   22BGLCN   H437414   1.619   0.053  17.878
   22BGLCN   O437415   1.778   0.103  17.994
   22BGLCN  HO437416   1.784   0.007  18.008
   22BGLCN   C637417   1.837   0.040  17.723
   22BGLCN  H6137418   1.890  -0.010  17.798
   22BGLCN  H6237419   1.747  -0.026  17.722
   22BGLCN   O637420   1.939   0.052  17.623
   22BGLCN  HO637421   1.909   0.066  17.533
   23AGAL    C137422   1.621   0.299  18.147
   23AGAL    H137423   1.669   0.205  18.181
   23AGAL    C537424   1.669   0.531  18.108
   23AGAL    H537425   1.605   0.524  18.017
   23AGAL    O537426   1.722   0.401  18.135
   23AGAL    C237427   1.524   0.339  18.255
   23AGAL    H237428   1.586   0.352  18.347
   23AGAL    O237429   1.425   0.239  18.281
   23AGAL    C337430   1.464   0.475  18.225
   23AGAL    H337431   1.419   0.472  18.123
   23AGAL    O337432   1.357   0.509  18.313
   23AGAL   HO337433   1.382   0.487  18.402
   23AGAL    C437434   1.576   0.578  18.221
   23AGAL    H437435   1.537   0.679  18.197
   23AGAL    O437436   1.644   0.588  18.345
   23AGAL   HO437437   1.735   0.616  18.322
   23AGAL    C637438   1.784   0.622  18.069
   23AGAL   H6137439   1.847   0.569  17.994
   23AGAL   H6237440   1.744   0.713  18.018
   23AGAL    O637441   1.863   0.659  18.182
   23AGAL   HO637442   1.943   0.708  18.158
   24ARHM    C137443   1.457   0.129  18.362
   24ARHM    H137444   1.569   0.121  18.373
   24ARHM    C537445   1.263   0.006  18.285
   24ARHM    H537446   1.239   0.092  18.219
   24ARHM    O537447   1.407   0.005  18.306
   24ARHM    C237448   1.392   0.156  18.496
   24ARHM    H237449   1.420   0.259  18.529
   24ARHM    O237450   1.432   0.061  18.597
   24ARHM    C337451   1.240   0.160  18.477
   24ARHM    H337452   1.217   0.234  18.399
   24ARHM    O337453   1.171   0.195  18.596
   24ARHM   HO337454   1.160   0.116  18.651
   24ARHM    C437455   1.196   0.027  18.422
   24ARHM    H437456   1.232  -0.033  18.506
   24ARHM    O437457   1.057   0.000  18.418
   24ARHM   HO437458   1.041  -0.092  18.443
   24ARHM    C637459   1.222  -0.118  18.197
   24ARHM   H6137460   1.131  -0.111  18.136
   24ARHM   H6237461   1.320  -0.136  18.151
   24ARHM   H6337462   1.200  -0.221  18.234
   25ARHM    C137463   1.561   0.084  18.646
   25ARHM    H137464   1.619   0.149  18.579
   25ARHM    C537465   1.577  -0.135  18.735
   25ARHM    H537466   1.479  -0.167  18.701
   25ARHM    O537467   1.639  -0.036  18.654
   25ARHM    C237468   1.546   0.149  18.779
   25ARHM    H237469   1.475   0.236  18.771
   25ARHM    O237470   1.673   0.196  18.826
   25ARHM    C337471   1.478   0.051  18.867
   25ARHM    H337472   1.376   0.023  18.834
   25ARHM    O337473   1.470   0.128  18.991
   25ARHM    C437474   1.559  -0.077  18.865
   25ARHM    H437475   1.671  -0.064  18.883
   25ARHM    O437476   1.485  -0.169  18.948
   25ARHM   HO437477   1.542  -0.216  19.013
   25ARHM    C637478   1.668  -0.259  18.746
   25ARHM   H6137479   1.692  -0.307  18.651
   25ARHM   H6237480   1.762  -0.245  18.803
   25ARHM   H6337481   1.605  -0.334  18.796
   26BMANN   C137482   1.713   0.316  18.763
   26BMANN   H137483   1.626   0.373  18.722
   26BMANN   C537484   1.843   0.424  18.595
   26BMANN   H537485   1.750   0.469  18.554
   26BMANN   O537486   1.808   0.299  18.658
   26BMANN   C237487   1.777   0.399  18.869
   26BMANN   H237488   1.702   0.404  18.948
   26BMANN    N37489   1.893   0.333  18.927
   26BMANN   HN37490   1.963   0.307  18.864
   26BMANN    C37491   1.910   0.315  19.059
   26BMANN    O37492   1.821   0.342  19.138
   26BMANN   CT37493   2.047   0.267  19.103
   26BMANN  HT137494   2.096   0.210  19.021
   26BMANN  HT237495   2.047   0.208  19.197
   26BMANN  HT337496   2.105   0.359  19.122
   26BMANN   C337497   1.806   0.536  18.811
   26BMANN   H337498   1.712   0.581  18.769
   26BMANN   O337499   1.850   0.621  18.915
   26BMANN  HO337500   1.776   0.659  18.965
   26BMANN   C437501   1.904   0.518  18.698
   26BMANN   H437502   1.999   0.474  18.734
   26BMANN   O437503   1.937   0.640  18.635
   26BMANN  HO437504   1.999   0.691  18.688
   26BMANN   C637505   1.932   0.390  18.476
   26BMANN  H6137506   1.894   0.299  18.427
   26BMANN  H6237507   1.929   0.472  18.401
   26BMANN   O637508   2.067   0.368  18.516
   26BMANN  HO637509   2.100   0.453  18.546
   27BGLCN   C137510   1.362   0.110  19.079
   27BGLCN   H137511   1.320   0.015  19.059
   27BGLCN   C537512   1.139   0.167  19.128
   27BGLCN   H537513   1.113   0.057  19.130
   27BGLCN   O537514   1.252   0.190  19.042
   27BGLCN   C237515   1.402   0.142  19.225
   27BGLCN   H237516   1.432   0.249  19.223
   27BGLCN    N37517   1.514   0.067  19.279
   27BGLCN   HN37518   1.524  -0.029  19.249
   27BGLCN    C37519   1.624   0.128  19.331
   27BGLCN    O37520   1.612   0.237  19.384
   27BGLCN   CT37521   1.761   0.061  19.328
   27BGLCN  HT137522   1.757  -0.035  19.275
   27BGLCN  HT237523   1.805   0.034  19.424
   27BGLCN  HT337524   1.840   0.128  19.291
   27BGLCN   C337525   1.288   0.123  19.318
   27BGLCN   H337526   1.255   0.016  19.313
   27BGLCN   O337527   1.342   0.157  19.449
   27BGLCN   C437528   1.174   0.207  19.271
   27BGLCN   H437529   1.200   0.313  19.275
   27BGLCN   O437530   1.061   0.192  19.353
   27BGLCN  HO437531   1.025   0.103  19.346
   27BGLCN   C637532   1.021   0.237  19.068
   27BGLCN  H6137533   0.929   0.211  19.122
   27BGLCN  H6237534   1.035   0.346  19.082
   27BGLCN   O637535   1.003   0.202  18.931
   27BGLCN  HO637536   0.937   0.259  18.890
   28AGAL    C137537   1.267   0.113  19.558
   28AGAL    H137538   1.178   0.177  19.566
   28AGAL    C537539   1.333  -0.117  19.531
   28AGAL    H537540   1.416  -0.078  19.470
   28AGAL    O537541   1.224  -0.023  19.532
   28AGAL    C237542   1.331   0.128  19.700
   28AGAL    H237543   1.249   0.100  19.768
   28AGAL    O237544   1.377   0.254  19.746
   28AGAL    C337545   1.450   0.039  19.702
   28AGAL    H337546   1.503   0.091  19.624
   28AGAL    O337547   1.541   0.040  19.815
   28AGAL   HO337548   1.633   0.058  19.792
   28AGAL    C437549   1.400  -0.097  19.668
   28AGAL    H437550   1.488  -0.160  19.682
   28AGAL    O437551   1.304  -0.112  19.762
   28AGAL   HO437552   1.343  -0.180  19.822
   28AGAL    C637553   1.291  -0.258  19.463
   28AGAL   H6137554   1.272  -0.247  19.357
   28AGAL   H6237555   1.373  -0.333  19.480
   28AGAL    O637556   1.171  -0.332  19.494
   28AGAL   HO637557   1.094  -0.283  19.526
   29ARHM    C137558   1.350   0.260  19.885
   29ARHM    H137559   1.353   0.160  19.933
   29ARHM    C537560   1.210   0.447  19.852
   29ARHM    H537561   1.237   0.439  19.744
   29ARHM    O537562   1.221   0.316  19.908
   29ARHM    C237563   1.454   0.343  19.953
   29ARHM    H237564   1.554   0.300  19.928
   29ARHM    O237565   1.433   0.345  20.096
   29ARHM    C337566   1.448   0.483  19.898
   29ARHM    H337567   1.467   0.480  19.788
   29ARHM    O337568   1.551   0.563  19.956
   29ARHM   HO337569   1.513   0.651  19.957
   29ARHM    C437570   1.309   0.542  19.919
   29ARHM    H437571   1.286   0.547  20.028
   29ARHM    O437572   1.303   0.678  19.874
   29ARHM   HO437573   1.324   0.688  19.780
   29ARHM    C637574   1.061   0.479  19.860
   29ARHM   H6137575   1.005   0.394  19.814
   29ARHM   H6237576   1.027   0.492  19.964
   29ARHM   H6337577   1.039   0.571  19.802
   30ARHM    C137578   1.509   0.256  20.174
   30ARHM    H137579   1.618   0.269  20.152
   30ARHM    C537580   1.340   0.100  20.199
   30ARHM    H537581   1.277   0.168  20.135
   30ARHM    O537582   1.473   0.120  20.155
   30ARHM    C237583   1.485   0.285  20.320
   30ARHM    H237584   1.507   0.392  20.340
   30ARHM    O237585   1.566   0.198  20.397
   30ARHM    C337586   1.341   0.261  20.361
   30ARHM    H337587   1.275   0.316  20.289
   30ARHM    O337588   1.310   0.307  20.492
   30ARHM    C437589   1.310   0.120  20.342
   30ARHM    H437590   1.378   0.048  20.395
   30ARHM    O437591   1.177   0.081  20.378
   30ARHM   HO437592   1.112   0.093  20.307
   30ARHM    C637593   1.288  -0.030  20.179
   30ARHM   H6137594   1.182  -0.040  20.196
   30ARHM   H6237595   1.261  -0.016  20.075
   30ARHM   H6337596   1.356  -0.118  20.201
   31BMANN   C137597   1.691   0.249  20.427
   31BMANN   H137598   1.683   0.357  20.452
   31BMANN   C537599   1.918   0.270  20.356
   31BMANN   H537600   1.906   0.376  20.387
   31BMANN   O537601   1.785   0.224  20.323
   31BMANN   C237602   1.733   0.172  20.544
   31BMANN   H237603   1.662   0.198  20.627
   31BMANN    N37604   1.722   0.032  20.517
   31BMANN   HN37605   1.717   0.003  20.421
   31BMANN    C37606   1.701  -0.050  20.617
   31BMANN    O37607   1.701  -0.012  20.733
   31BMANN   CT37608   1.690  -0.190  20.578
   31BMANN  HT137609   1.755  -0.194  20.487
   31BMANN  HT237610   1.585  -0.219  20.558
   31BMANN  HT337611   1.719  -0.264  20.654
   31BMANN   C337612   1.870   0.217  20.586
   31BMANN   H337613   1.866   0.327  20.605
   31BMANN   O337614   1.907   0.158  20.709
   31BMANN  HO337615   1.824   0.127  20.750
   31BMANN   C437616   1.969   0.193  20.477
   31BMANN   H437617   1.975   0.086  20.448
   31BMANN   O437618   2.100   0.231  20.515
   31BMANN  HO437619   2.102   0.317  20.557
   31BMANN   C637620   2.016   0.267  20.240
   31BMANN  H6137621   2.108   0.324  20.268
   31BMANN  H6237622   2.050   0.162  20.222
   31BMANN   O637623   1.961   0.319  20.119
   31BMANN  HO637624   1.954   0.414  20.121
   32BGLCN   C137625   1.347   0.222  20.597
   32BGLCN   H137626   1.442   0.171  20.577
   32BGLCN   C537627   1.295   0.035  20.732
   32BGLCN   H537628   1.390  -0.013  20.698
   32BGLCN   O537629   1.252   0.123  20.628
   32BGLCN   C237630   1.365   0.307  20.720
   32BGLCN   H237631   1.263   0.342  20.749
   32BGLCN    N37632   1.450   0.419  20.692
   32BGLCN   HN37633   1.518   0.400  20.624
   32BGLCN    C37634   1.439   0.543  20.744
   32BGLCN    O37635   1.357   0.574  20.830
   32BGLCN   CT37636   1.539   0.641  20.690
   32BGLCN  HT137637   1.580   0.598  20.597
   32BGLCN  HT237638   1.623   0.660  20.760
   32BGLCN  HT337639   1.491   0.738  20.668
   32BGLCN   C337640   1.421   0.220  20.827
   32BGLCN   H337641   1.509   0.167  20.784
   32BGLCN   O337642   1.463   0.293  20.943
   32BGLCN   C437643   1.319   0.117  20.856
   32BGLCN   H437644   1.222   0.163  20.888
   32BGLCN   O437645   1.368   0.040  20.962
   32BGLCN  HO437646   1.326   0.066  21.045
   32BGLCN   C637647   1.187  -0.068  20.747
   32BGLCN  H6137648   1.228  -0.172  20.759
   32BGLCN  H6237649   1.106  -0.037  20.813
   32BGLCN   O637650   1.112  -0.084  20.634
   32BGLCN  HO637651   1.183  -0.085  20.569
   33AGAL    C137652   1.578   0.238  21.005
   33AGAL    H137653   1.576   0.130  20.984
   33AGAL    C537654   1.721   0.420  20.957
   33AGAL    H537655   1.626   0.463  20.920
   33AGAL    O537656   1.701   0.279  20.944
   33AGAL    C237657   1.582   0.277  21.155
   33AGAL    H237658   1.682   0.251  21.195
   33AGAL    O237659   1.486   0.204  21.239
   33AGAL    C337660   1.598   0.427  21.168
   33AGAL    H337661   1.517   0.475  21.109
   33AGAL    O337662   1.582   0.473  21.303
   33AGAL   HO337663   1.644   0.427  21.362
   33AGAL    C437664   1.732   0.466  21.102
   33AGAL    H437665   1.738   0.577  21.102
   33AGAL    O437666   1.853   0.418  21.164
   33AGAL   HO437667   1.838   0.348  21.226
   33AGAL    C637668   1.828   0.472  20.862
   33AGAL   H6137669   1.792   0.451  20.760
   33AGAL   H6237670   1.839   0.582  20.873
   33AGAL    O637671   1.958   0.414  20.879
   33AGAL   HO637672   1.975   0.338  20.822
   34ARHM    C137673   1.524   0.133  21.357
   34ARHM    H137674   1.588   0.207  21.413
   34ARHM    C537675   1.542  -0.106  21.249
   34ARHM    H537676   1.506  -0.090  21.140
   34ARHM    O537677   1.593   0.002  21.343
   34ARHM    C237678   1.396   0.097  21.415
   34ARHM    H237679   1.330   0.187  21.423
   34ARHM    O237680   1.416   0.047  21.550
   34ARHM    C337681   1.331  -0.005  21.320
   34ARHM    H337682   1.319   0.035  21.217
   34ARHM    O337683   1.195  -0.010  21.360
   34ARHM   HO337684   1.144  -0.086  21.332
   34ARHM    C437685   1.425  -0.136  21.305
   34ARHM    H437686   1.475  -0.173  21.395
   34ARHM    O437687   1.384  -0.255  21.246
   34ARHM   HO437688   1.325  -0.299  21.310
   34ARHM    C637689   1.654  -0.207  21.207
   34ARHM   H6137690   1.701  -0.242  21.300
   34ARHM   H6237691   1.609  -0.279  21.135
   34ARHM   H6337692   1.740  -0.171  21.144
   35ARHM    C137693   1.491   0.128  21.640
   35ARHM    H137694   1.461   0.235  21.622
   35ARHM    C537695   1.688  -0.025  21.650
   35ARHM    H537696   1.657  -0.091  21.570
   35ARHM    O537697   1.638   0.111  21.619
   35ARHM    C237698   1.450   0.096  21.791
   35ARHM    H237699   1.336   0.099  21.795
   35ARHM    O237700   1.476   0.187  21.899
   35ARHM    C337701   1.503  -0.052  21.821
   35ARHM    H337702   1.440  -0.114  21.760
   35ARHM    O337703   1.469  -0.081  21.957
   35ARHM   HO337704   1.460  -0.001  22.011
   35ARHM    C437705   1.662  -0.078  21.802
   35ARHM    H437706   1.734  -0.047  21.883
   35ARHM    O437707   1.704  -0.212  21.825
   35ARHM   HO437708   1.641  -0.268  21.782
   35ARHM    C637709   1.842  -0.003  21.623
   35ARHM   H6137710   1.866   0.012  21.514
   35ARHM   H6237711   1.890   0.079  21.680
   35ARHM   H6337712   1.889  -0.097  21.656
   36BMANN   C137713   1.456   0.325  21.888
   36BMANN   H137714   1.353   0.334  21.850
   36BMANN   C537715   1.474   0.546  21.808
   36BMANN   H537716   1.366   0.535  21.780
   36BMANN   O537717   1.532   0.413  21.800
   36BMANN   C237718   1.471   0.370  22.031
   36BMANN   H237719   1.410   0.297  22.090
   36BMANN    N37720   1.609   0.367  22.085
   36BMANN   HN37721   1.681   0.395  22.021
   36BMANN    C37722   1.634   0.348  22.216
   36BMANN    O37723   1.546   0.315  22.294
   36BMANN   CT37724   1.773   0.374  22.270
   36BMANN  HT137725   1.814   0.465  22.223
   36BMANN  HT237726   1.840   0.288  22.250
   36BMANN  HT337727   1.768   0.387  22.380
   36BMANN   C337728   1.408   0.506  22.040
   36BMANN   H337729   1.306   0.498  21.998
   36BMANN   O337730   1.402   0.552  22.175
   36BMANN  HO337731   1.311   0.554  22.206
   36BMANN   C437732   1.479   0.602  21.949
   36BMANN   H437733   1.584   0.616  21.982
   36BMANN   O437734   1.414   0.728  21.958
   36BMANN  HO437735   1.418   0.748  22.053
   36BMANN   C637736   1.531   0.643  21.708
   36BMANN  H6137737   1.527   0.599  21.606
   36BMANN  H6237738   1.466   0.733  21.706
   36BMANN   O637739   1.665   0.684  21.739
   36BMANN  HO637740   1.667   0.757  21.802
    1ECLIP HB6S37741   8.024  -0.038  11.758
    1ECLIP  OB637742   7.952  -0.161  11.913
    1ECLIP  CB637743   8.034  -0.141  11.789
    1ECLIP HB6R37744   8.141  -0.125  11.803
    1ECLIP  CB537745   8.044  -0.244  11.673
    1ECLIP  OB537746   7.913  -0.229  11.620
    1ECLIP  HB537747   8.066  -0.348  11.709
    1ECLIP  CB137748   7.884  -0.314  11.511
    1ECLIP  HB137749   7.904  -0.422  11.533
    1ECLIP  OA637750   7.752  -0.304  11.467
    1ECLIP  CA637751   7.688  -0.180  11.495
    1ECLIP HA6R37752   7.759  -0.098  11.513
    1ECLIP HA6S37753   7.619  -0.195  11.582
    1ECLIP  CB437754   8.147  -0.208  11.567
    1ECLIP  HB437755   8.133  -0.101  11.538
    1ECLIP  OB437756   8.278  -0.236  11.623
    1ECLIP   PB37757   8.384  -0.112  11.665
    1ECLIP OPB437758   8.474  -0.142  11.787
    1ECLIP OPB337759   8.293   0.002  11.705
    1ECLIP OPB237760   8.469  -0.088  11.543
    1ECLIP  CB337761   8.119  -0.294  11.445
    1ECLIP  OB337762   8.196  -0.258  11.331
    1ECLIP  HB337763   8.127  -0.403  11.470
    1ECLIP  C7137764   8.314  -0.313  11.312
    1ECLIP  O7137765   8.351  -0.420  11.361
    1ECLIP  C7237766   8.367  -0.268  11.174
    1ECLIP H72R37767   8.292  -0.290  11.096
    1ECLIP H72S37768   8.460  -0.324  11.152
    1ECLIP  CB237769   7.976  -0.272  11.401
    1ECLIP  HB237770   7.959  -0.162  11.386
    1ECLIP  NB237771   7.944  -0.348  11.281
    1ECLIP HNB237772   7.909  -0.440  11.295
    1ECLIP  CA437773   7.544  -0.269  11.323
    1ECLIP  HA437774   7.619  -0.348  11.307
    1ECLIP  OA437775   7.446  -0.293  11.420
    1ECLIP HOA437776   7.485  -0.339  11.498
    1ECLIP  CA537777   7.609  -0.146  11.372
    1ECLIP  HA537778   7.540  -0.061  11.397
    1ECLIP  OA537779   7.695  -0.101  11.269
    1ECLIP  CA137780   7.631  -0.064  11.147
    1ECLIP  HA137781   7.721  -0.054  11.080
    1ECLIP  OA137782   7.559   0.057  11.151
    1ECLIP OPA237783   7.563   0.214  11.338
    1ECLIP OPA337784   7.788   0.161  11.229
    1ECLIP OPA437785   7.614   0.310  11.112
    1ECLIP   PA37786   7.641   0.193  11.207
    1ECLIP  CA337787   7.474  -0.246  11.200
    1ECLIP  HA337788   7.362  -0.243  11.212
    1ECLIP  OA337789   7.433  -0.364  11.168
    1ECLIP  C3137790   7.526  -0.430  11.105
    1ECLIP  O3137791   7.531  -0.426  10.985
    1ECLIP  C3237792   7.521  -0.547  11.173
    1ECLIP H32R37793   7.471  -0.586  11.077
    1ECLIP H32S37794   7.464  -0.541  11.271
    1ECLIP  CA237795   7.565  -0.185  11.090
    1ECLIP  HA237796   7.652  -0.249  11.064
    1ECLIP  NA237797   7.491  -0.142  10.966
    1ECLIP HNA237798   7.401  -0.177  10.941
    1ECLIP  C7337799   8.395  -0.117  11.172
    1ECLIP H73R37800   8.452  -0.090  11.264
    1ECLIP  O7337801   8.268  -0.054  11.163
    1ECLIP  C8137802   8.247   0.060  11.231
    1ECLIP  O8137803   8.334   0.120  11.291
    1ECLIP  C8237804   8.123   0.129  11.170
    1ECLIP H82R37805   8.107   0.225  11.223
    1ECLIP H82S37806   8.035   0.066  11.192
    1ECLIP  C8337807   8.132   0.151  11.017
    1ECLIP H83R37808   8.106   0.056  10.965
    1ECLIP H83S37809   8.236   0.179  10.990
    1ECLIP  C8437810   8.031   0.255  10.965
    1ECLIP H84R37811   8.059   0.355  10.998
    1ECLIP H84S37812   7.932   0.231  11.013
    1ECLIP  C8537813   8.012   0.250  10.813
    1ECLIP H85R37814   8.005   0.141  10.790
    1ECLIP H85S37815   8.101   0.289  10.760
    1ECLIP  C8637816   7.879   0.314  10.765
    1ECLIP H86R37817   7.893   0.419  10.734
    1ECLIP H86S37818   7.806   0.313  10.849
    1ECLIP  C8737819   7.813   0.232  10.652
    1ECLIP H87R37820   7.722   0.286  10.616
    1ECLIP H87S37821   7.777   0.135  10.694
    1ECLIP  C8837822   7.909   0.199  10.538
    1ECLIP H88R37823   7.977   0.117  10.571
    1ECLIP H88S37824   7.977   0.287  10.524
    1ECLIP  C8937825   7.839   0.157  10.408
    1ECLIP H89R37826   7.735   0.123  10.426
    1ECLIP H89S37827   7.892   0.071  10.362
    1ECLIP C81037828   7.843   0.272  10.306
    1ECLIPH810R37829   7.934   0.331  10.329
    1ECLIPH810S37830   7.754   0.336  10.323
    1ECLIP C81137831   7.849   0.225  10.160
    1ECLIPH811R37832   7.814   0.305  10.091
    1ECLIPH811S37833   7.780   0.139  10.154
    1ECLIP C81237834   7.985   0.175  10.110
    1ECLIPH812R37835   7.967   0.133  10.008
    1ECLIPH812S37836   8.021   0.094  10.177
    1ECLIP C81337837   8.096   0.279  10.100
    1ECLIPH813R37838   8.062   0.358  10.029
    1ECLIPH813S37839   8.115   0.328  10.199
    1ECLIP C81437840   8.227   0.219  10.049
    1ECLIPH814R37841   8.212   0.157   9.958
    1ECLIPH814S37842   8.272   0.156  10.128
    1ECLIPH814T37843   8.298   0.301  10.025
    1ECLIP  C7437844   8.477  -0.068  11.049
    1ECLIP H74R37845   8.579  -0.111  11.041
    1ECLIP H74S37846   8.492   0.042  11.068
    1ECLIP  C7537847   8.402  -0.078  10.914
    1ECLIP H75R37848   8.428   0.012  10.855
    1ECLIP H75S37849   8.292  -0.074  10.933
    1ECLIP  C7637850   8.431  -0.204  10.831
    1ECLIP H76R37851   8.375  -0.290  10.874
    1ECLIP H76S37852   8.539  -0.230  10.835
    1ECLIP  C7737853   8.394  -0.193  10.682
    1ECLIP H77R37854   8.458  -0.115  10.635
    1ECLIP H77S37855   8.290  -0.158  10.667
    1ECLIP  C7837856   8.405  -0.332  10.616
    1ECLIP H78R37857   8.505  -0.373  10.643
    1ECLIP H78S37858   8.330  -0.395  10.668
    1ECLIP  C7937859   8.373  -0.344  10.465
    1ECLIP H79R37860   8.266  -0.373  10.453
    1ECLIP H79S37861   8.434  -0.425  10.419
    1ECLIP C71037862   8.403  -0.220  10.381
    1ECLIPH710R37863   8.351  -0.131  10.423
    1ECLIPH710S37864   8.513  -0.202  10.385
    1ECLIP C71137865   8.362  -0.235  10.235
    1ECLIPH711R37866   8.415  -0.321  10.190
    1ECLIPH711S37867   8.252  -0.252  10.228
    1ECLIP C71237868   8.395  -0.106  10.159
    1ECLIPH712R37869   8.505  -0.091  10.162
    1ECLIPH712S37870   8.350  -0.023  10.218
    1ECLIP C71337871   8.342  -0.102  10.016
    1ECLIPH713R37872   8.231  -0.110  10.020
    1ECLIPH713S37873   8.368  -0.005   9.968
    1ECLIP C71437874   8.399  -0.211   9.925
    1ECLIPH714R37875   8.510  -0.200   9.916
    1ECLIPH714S37876   8.373  -0.313   9.959
    1ECLIPH714T37877   8.357  -0.197   9.824
    1ECLIP  C5137878   7.966  -0.296  11.159
    1ECLIP  O5137879   7.985  -0.176  11.144
    1ECLIP  C5237880   7.971  -0.391  11.042
    1ECLIP H52R37881   8.074  -0.431  11.029
    1ECLIP H52S37882   7.904  -0.476  11.061
    1ECLIP  C5337883   7.929  -0.317  10.913
    1ECLIP H53R37884   7.850  -0.242  10.935
    1ECLIP  O5337885   7.886  -0.420  10.824
    1ECLIP  C6137886   7.759  -0.422  10.794
    1ECLIP  O6137887   7.677  -0.335  10.815
    1ECLIP  C6237888   7.740  -0.535  10.700
    1ECLIP H62R37889   7.717  -0.629  10.756
    1ECLIP H62S37890   7.831  -0.556  10.641
    1ECLIP  C6337891   7.634  -0.492  10.604
    1ECLIP H63R37892   7.628  -0.393  10.557
    1ECLIP H63S37893   7.535  -0.492  10.653
    1ECLIP  C6437894   7.643  -0.593  10.494
    1ECLIP H64R37895   7.550  -0.559  10.454
    1ECLIP H64S37896   7.650  -0.699  10.529
    1ECLIP  C6537897   7.734  -0.589  10.380
    1ECLIP H65R37898   7.818  -0.623  10.443
    1ECLIP H65S37899   7.728  -0.484  10.347
    1ECLIP  C6637900   7.723  -0.690  10.263
    1ECLIP H66R37901   7.707  -0.796  10.293
    1ECLIP H66S37902   7.821  -0.676  10.216
    1ECLIP  C6737903   7.636  -0.655  10.146
    1ECLIP H67R37904   7.549  -0.624  10.200
    1ECLIP H67S37905   7.611  -0.737  10.072
    1ECLIP  C6837906   7.646  -0.515  10.091
    1ECLIP H68R37907   7.742  -0.492  10.048
    1ECLIP H68S37908   7.603  -0.443  10.166
    1ECLIP  C6937909   7.562  -0.508   9.971
    1ECLIP H69R37910   7.481  -0.553  10.030
    1ECLIP H69S37911   7.587  -0.573   9.886
    1ECLIP C61037912   7.497  -0.381   9.931
    1ECLIPH610R37913   7.574  -0.302   9.941
    1ECLIPH610S37914   7.410  -0.364  10.002
    1ECLIP C61137915   7.444  -0.383   9.789
    1ECLIPH611R37916   7.356  -0.447   9.775
    1ECLIPH611S37917   7.399  -0.290   9.766
    1ECLIP C61237918   7.545  -0.402   9.682
    1ECLIPH612R37919   7.605  -0.309   9.681
    1ECLIPH612S37920   7.592  -0.498   9.704
    1ECLIPH612T37921   7.516  -0.411   9.577
    1ECLIP  C5437922   8.053  -0.247  10.853
    1ECLIP H54R37923   8.125  -0.327  10.824
    1ECLIP H54S37924   8.100  -0.187  10.934
    1ECLIP  C5537925   8.029  -0.154  10.733
    1ECLIP H55R37926   8.117  -0.088  10.719
    1ECLIP H55S37927   7.944  -0.087  10.756
    1ECLIP  C5637928   8.010  -0.238  10.605
    1ECLIP H56R37929   7.926  -0.308  10.622
    1ECLIP H56S37930   8.101  -0.299  10.587
    1ECLIP  C5737931   7.973  -0.164  10.477
    1ECLIP H57R37932   8.045  -0.083  10.454
    1ECLIP H57S37933   7.873  -0.117  10.491
    1ECLIP  C5837934   7.964  -0.265  10.361
    1ECLIP H58R37935   8.052  -0.333  10.358
    1ECLIP H58S37936   7.877  -0.332  10.382
    1ECLIP  C5937937   7.951  -0.196  10.224
    1ECLIP H59R37938   8.036  -0.127  10.208
    1ECLIP H59S37939   7.859  -0.134  10.232
    1ECLIP C51037940   7.952  -0.292  10.102
    1ECLIPH510R37941   7.887  -0.379  10.120
    1ECLIPH510S37942   8.056  -0.330  10.088
    1ECLIP C51137943   7.906  -0.229   9.970
    1ECLIPH511R37944   7.796  -0.219   9.967
    1ECLIPH511S37945   7.951  -0.127   9.958
    1ECLIP C51237946   7.942  -0.313   9.849
    1ECLIPH512R37947   7.927  -0.245   9.761
    1ECLIPH512S37948   8.048  -0.346   9.863
    1ECLIP C51337949   7.858  -0.433   9.806
    1ECLIPH513R37950   7.756  -0.397   9.793
    1ECLIPH513S37951   7.862  -0.509   9.886
    1ECLIP C51437952   7.898  -0.500   9.674
    1ECLIPH514R37953   8.006  -0.526   9.677
    1ECLIPH514S37954   7.844  -0.595   9.661
    1ECLIPH514T37955   7.879  -0.434   9.587
    1ECLIP  C3337956   7.630  -0.640  11.189
    1ECLIP H33R37957   7.608  -0.743  11.219
    1ECLIP  O3337958   7.697  -0.576  11.292
    1ECLIP HO3337959   7.640  -0.588  11.372
    1ECLIP  C3437960   7.695  -0.659  11.056
    1ECLIP H34R37961   7.713  -0.561  11.011
    1ECLIP H34S37962   7.623  -0.713  10.987
    1ECLIP  C3537963   7.814  -0.747  11.078
    1ECLIP H35R37964   7.785  -0.849  11.110
    1ECLIP H35S37965   7.868  -0.697  11.162
    1ECLIP  C3637966   7.900  -0.751  10.954
    1ECLIP H36R37967   7.876  -0.656  10.902
    1ECLIP H36S37968   7.872  -0.836  10.888
    1ECLIP  C3737969   8.049  -0.750  10.988
    1ECLIP H37R37970   8.080  -0.856  11.004
    1ECLIP H37S37971   8.065  -0.698  11.085
    1ECLIP  C3837972   8.137  -0.685  10.879
    1ECLIP H38R37973   8.129  -0.574  10.879
    1ECLIP H38S37974   8.243  -0.709  10.904
    1ECLIP  C3937975   8.101  -0.734  10.738
    1ECLIP H39R37976   7.993  -0.716  10.718
    1ECLIP H39S37977   8.122  -0.844  10.735
    1ECLIP C31037978   8.179  -0.670  10.623
    1ECLIPH310R37979   8.283  -0.709  10.633
    1ECLIPH310S37980   8.181  -0.560  10.632
    1ECLIP C31137981   8.112  -0.699  10.488
    1ECLIPH311R37982   8.066  -0.800  10.489
    1ECLIPH311S37983   8.030  -0.625  10.473
    1ECLIP C31237984   8.204  -0.683  10.366
    1ECLIPH312R37985   8.277  -0.601  10.385
    1ECLIPH312S37986   8.261  -0.778  10.354
    1ECLIP C31337987   8.127  -0.655  10.237
    1ECLIPH313R37988   8.074  -0.749  10.211
    1ECLIPH313S37989   8.049  -0.577  10.254
    1ECLIP C31437990   8.214  -0.612  10.118
    1ECLIPH314R37991   8.288  -0.692  10.096
    1ECLIPH314S37992   8.153  -0.595  10.027
    1ECLIPH314T37993   8.268  -0.518  10.141
    1ECLIP  C1137994   7.545  -0.067  10.864
    1ECLIP  O1137995   7.664  -0.044  10.851
    1ECLIP  C1237996   7.445  -0.006  10.769
    1ECLIP H12R37997   7.436   0.103  10.790
    1ECLIP H12S37998   7.347  -0.055  10.786
    1ECLIP  C1337999   7.481  -0.024  10.621
    1ECLIP H13R38000   7.589  -0.005  10.601
    1ECLIP  O1338001   7.404   0.071  10.548
    1ECLIP HO1338002   7.444   0.099  10.465
    1ECLIP  C1438003   7.444  -0.168  10.580
    1ECLIP H14R38004   7.352  -0.201  10.632
    1ECLIP H14S38005   7.529  -0.230  10.615
    1ECLIP  C1538006   7.428  -0.193  10.432
    1ECLIP H15R38007   7.350  -0.123  10.393
    1ECLIP H15S38008   7.387  -0.296  10.419
    1ECLIP  C1638009   7.563  -0.178  10.361
    1ECLIP H16R38010   7.623  -0.270  10.367
    1ECLIP H16S38011   7.621  -0.095  10.407
    1ECLIP  C1738012   7.544  -0.142  10.216
    1ECLIP H17R38013   7.465  -0.217  10.190
    1ECLIP H17S38014   7.627  -0.166  10.146
    1ECLIP  C1838015   7.509   0.009  10.210
    1ECLIP H18R38016   7.409   0.019  10.261
    1ECLIP H18S38017   7.587   0.076  10.247
    1ECLIP  C1938018   7.498   0.081  10.077
    1ECLIP H19R38019   7.440   0.170  10.051
    1ECLIP H19S38020   7.389   0.069  10.076
    1ECLIP C11038021   7.603   0.034   9.969
    1ECLIPH110R38022   7.691   0.091   9.996
    1ECLIPH110S38023   7.618  -0.077   9.958
    1ECLIP C11138024   7.598   0.093   9.828
    1ECLIPH111R38025   7.538   0.035   9.773
    1ECLIPH111S38026   7.531   0.180   9.819
    1ECLIP C11238027   7.691   0.053   9.714
    1ECLIPH112R38028   7.766   0.111   9.754
    1ECLIPH112S38029   7.709  -0.058   9.717
    1ECLIP C11338030   7.641   0.099   9.575
    1ECLIPH113R38031   7.590   0.008   9.586
    1ECLIPH113S38032   7.561   0.171   9.545
    1ECLIP C11438033   7.719   0.092   9.449
    1ECLIPH114R38034   7.779   0.167   9.450
    1ECLIPH114S38035   7.776  -0.001   9.435
    1ECLIPH114T38036   7.653   0.118   9.362
    2AKDO    C138037   8.016  -0.439  11.997
    2AKDO   O1138038   8.127  -0.494  12.010
    2AKDO   O1238039   7.920  -0.513  11.976
    2AKDO    C238040   7.987  -0.258  12.014
    2AKDO    C638041   8.081  -0.040  12.111
    2AKDO    H638042   8.039   0.014  12.024
    2AKDO    O638043   8.093  -0.171  12.070
    2AKDO    C338044   7.898  -0.264  12.113
    2AKDO   H3138045   7.895  -0.357  12.168
    2AKDO   H3238046   7.808  -0.319  12.079
    2AKDO    C438047   7.875  -0.128  12.157
    2AKDO    H438048   7.842  -0.058  12.083
    2AKDO    O438049   7.799  -0.172  12.252
    2AKDO    C538050   7.993  -0.049  12.217
    2AKDO    H538051   7.955   0.059  12.222
    2AKDO    O538052   8.047  -0.083  12.352
    2AKDO    C738053   8.209   0.019  12.165
    2AKDO    H738054   8.248  -0.017  12.260
    2AKDO    O738055   8.158   0.144  12.178
    2AKDO   HO738056   8.164   0.198  12.097
    2AKDO    C838057   8.323   0.049  12.080
    2AKDO   H8138058   8.410  -0.003  12.059
    2AKDO   H8238059   8.276   0.028  11.977
    2AKDO    O838060   8.446   0.111  12.110
    2AKDO   HO838061   8.495   0.075  12.032
    3AKDO    C138062   7.656   0.049  12.112
    3AKDO   O1138063   7.604   0.028  11.995
    3AKDO   O1238064   7.575   0.103  12.185
    3AKDO    C238065   7.694  -0.108  12.245
    3AKDO    C638066   7.660  -0.370  12.317
    3AKDO    H638067   7.759  -0.358  12.319
    3AKDO    O638068   7.649  -0.256  12.223
    3AKDO    C338069   7.597  -0.093  12.367
    3AKDO   H3138070   7.492  -0.110  12.329
    3AKDO   H3238071   7.579   0.008  12.404
    3AKDO    C438072   7.620  -0.188  12.477
    3AKDO    H438073   7.733  -0.193  12.484
    3AKDO    O438074   7.569  -0.111  12.591
    3AKDO   HO438075   7.608  -0.150  12.675
    3AKDO    C538076   7.579  -0.336  12.427
    3AKDO    H538077   7.592  -0.412  12.512
    3AKDO    O538078   7.462  -0.360  12.345
    3AKDO   HO538079   7.379  -0.316  12.372
    3AKDO    C738080   7.627  -0.530  12.280
    3AKDO    H738081   7.519  -0.547  12.242
    3AKDO    O738082   7.676  -0.636  12.366
    3AKDO   HO738083   7.620  -0.710  12.334
    3AKDO    C838084   7.697  -0.564  12.165
    3AKDO   H8138085   7.662  -0.474  12.117
    3AKDO   H8238086   7.807  -0.560  12.167
    3AKDO    O838087   7.646  -0.685  12.110
    3AKDO   HO838088   7.571  -0.671  12.048
    4AHEP    C138089   8.078   0.014  12.461
    4AHEP    H138090   8.181   0.026  12.432
    4AHEP    C538091   7.877   0.141  12.558
    4AHEP    H538092   7.793   0.060  12.561
    4AHEP    O538093   8.007   0.141  12.478
    4AHEP    C238094   8.099  -0.028  12.605
    4AHEP    H238095   8.162  -0.118  12.619
    4AHEP    O238096   8.197   0.038  12.684
    4AHEP   HO238097   8.229  -0.043  12.728
    4AHEP    C338098   7.964  -0.038  12.674
    4AHEP    H338099   7.883  -0.101  12.636
    4AHEP    O338100   8.022  -0.125  12.774
    4AHEP    C438101   7.887   0.105  12.688
    4AHEP    H438102   7.957   0.171  12.737
    4AHEP    O438103   7.748   0.109  12.750
    4AHEP    P438104   7.692   0.175  12.891
    4AHEP  OP4238105   7.602   0.059  12.939
    4AHEP  OP4338106   7.633   0.303  12.838
    4AHEP  OP4438107   7.805   0.206  12.990
    4AHEP    C638108   7.800   0.259  12.518
    4AHEP    H638109   7.694   0.232  12.544
    4AHEP    O638110   7.846   0.368  12.597
    4AHEP   HO638111   7.786   0.371  12.672
    4AHEP    C738112   7.803   0.296  12.369
    4AHEP   H7138113   7.735   0.381  12.351
    4AHEP   H7238114   7.773   0.212  12.304
    4AHEP    O738115   7.928   0.337  12.317
    4AHEP   HO738116   7.950   0.418  12.367
    5AHEP    C138117   7.954  -0.204  12.866
    5AHEP    H138118   7.860  -0.223  12.829
    5AHEP    C538119   8.168  -0.279  12.936
    5AHEP    H538120   8.217  -0.186  12.902
    5AHEP    O538121   8.050  -0.292  12.852
    5AHEP    C238122   7.871  -0.186  13.011
    5AHEP    H238123   7.809  -0.101  13.040
    5AHEP    O238124   7.747  -0.276  13.003
    5AHEP   HO238125   7.704  -0.302  13.090
    5AHEP    C338126   8.010  -0.158  13.107
    5AHEP    H338127   8.067  -0.071  13.069
    5AHEP    O338128   7.994  -0.152  13.253
    5AHEP    C438129   8.118  -0.270  13.093
    5AHEP    H438130   8.067  -0.334  13.166
    5AHEP    O438131   8.236  -0.285  13.160
    5AHEP    P438132   8.280  -0.376  13.291
    5AHEP  OP4238133   8.408  -0.318  13.338
    5AHEP  OP4338134   8.312  -0.517  13.257
    5AHEP  OP4438135   8.163  -0.373  13.387
    5AHEP    C638136   8.279  -0.407  12.882
    5AHEP    H638137   8.371  -0.393  12.935
    5AHEP    O638138   8.287  -0.554  12.891
    5AHEP   HO638139   8.194  -0.591  12.900
    5AHEP    C738140   8.259  -0.429  12.733
    5AHEP   H7138141   8.359  -0.422  12.712
    5AHEP   H7238142   8.208  -0.344  12.690
    5AHEP    O738143   8.211  -0.549  12.667
    6AHEP    C138144   8.078  -0.544  12.656
    6AHEP    H138145   8.056  -0.439  12.652
    6AHEP    C538146   8.113  -0.674  12.452
    6AHEP    H538147   8.206  -0.666  12.490
    6AHEP    O538148   8.076  -0.552  12.520
    6AHEP    C238149   7.924  -0.654  12.762
    6AHEP    H238150   7.899  -0.632  12.856
    6AHEP    O238151   7.758  -0.616  12.702
    6AHEP   HO238152   7.720  -0.524  12.672
    6AHEP    C338153   7.997  -0.771  12.672
    6AHEP    H338154   8.094  -0.783  12.726
    6AHEP    O338155   7.878  -0.838  12.651
    6AHEP   HO338156   7.844  -0.875  12.734
    6AHEP    C438157   8.022  -0.766  12.500
    6AHEP    H438158   7.943  -0.716  12.435
    6AHEP    O438159   8.057  -0.879  12.434
    6AHEP   HO438160   8.152  -0.893  12.455
    6AHEP    C638161   8.157  -0.683  12.286
    6AHEP    H638162   8.178  -0.790  12.263
    6AHEP    O638163   8.041  -0.639  12.207
    6AHEP   HO638164   8.061  -0.572  12.133
    6AHEP    C738165   8.307  -0.611  12.241
    6AHEP   H7138166   8.298  -0.626  12.141
    6AHEP   H7238167   8.370  -0.661  12.312
    6AHEP    O738168   8.373  -0.476  12.236
    6AHEP   HO738169   8.307  -0.415  12.286
    7AGLC    C138170   7.996  -0.021  13.308
    7AGLC    H138171   8.071   0.038  13.255
    7AGLC    C538172   7.764  -0.024  13.368
    7AGLC    H538173   7.750  -0.124  13.396
    7AGLC    O538174   7.868   0.035  13.290
    7AGLC    C238175   8.021  -0.004  13.464
    7AGLC    H238176   7.987   0.099  13.479
    7AGLC    O238177   8.142   0.007  13.533
    7AGLC   HO238178   8.170  -0.088  13.529
    7AGLC    C338179   7.933  -0.078  13.545
    7AGLC    H338180   7.974  -0.173  13.496
    7AGLC    O338181   7.969  -0.081  13.684
    7AGLC    C438182   7.797  -0.017  13.521
    7AGLC    H438183   7.785   0.088  13.544
    7AGLC    O438184   7.723  -0.091  13.621
    7AGLC   HO438185   7.624  -0.084  13.610
    7AGLC    C638186   7.644   0.014  13.275
    7AGLC   H6138187   7.658  -0.006  13.165
    7AGLC   H6238188   7.554  -0.050  13.280
    7AGLC    O638189   7.602   0.144  13.306
    7AGLC   HO638190   7.552   0.126  13.385
    8AGLC    C138191   7.993  -0.208  13.727
    8AGLC    H138192   7.936  -0.264  13.664
    8AGLC    C538193   8.223  -0.214  13.763
    8AGLC    H538194   8.203  -0.133  13.697
    8AGLC    O538195   8.117  -0.273  13.690
    8AGLC    C238196   7.959  -0.213  13.877
    8AGLC    H238197   7.950  -0.308  13.917
    8AGLC    O238198   7.832  -0.246  13.934
    8AGLC    C338199   8.077  -0.142  13.949
    8AGLC    H338200   8.062  -0.040  13.912
    8AGLC    O338201   8.024  -0.148  14.079
    8AGLC    C438202   8.224  -0.209  13.932
    8AGLC    H438203   8.256  -0.301  13.987
    8AGLC    O438204   8.335  -0.143  14.001
    8AGLC   HO438205   8.322  -0.046  14.003
    8AGLC    C638206   8.348  -0.249  13.710
    8AGLC   H6138207   8.344  -0.283  13.605
    8AGLC   H6238208   8.424  -0.168  13.734
    8AGLC    O638209   8.377  -0.364  13.777
    8AGLC   HO638210   8.443  -0.346  13.845
    9AGAL    C138211   7.706  -0.275  13.877
    9AGAL    H138212   7.712  -0.280  13.767
    9AGAL    C538213   7.672  -0.426  14.054
    9AGAL    H538214   7.699  -0.346  14.119
    9AGAL    O538215   7.694  -0.398  13.921
    9AGAL    C238216   7.575  -0.199  13.919
    9AGAL    H238217   7.485  -0.255  13.908
    9AGAL    O238218   7.534  -0.073  13.857
    9AGAL    C338219   7.572  -0.206  14.061
    9AGAL    H338220   7.671  -0.163  14.089
    9AGAL    O338221   7.482  -0.114  14.113
    9AGAL   HO338222   7.460  -0.046  14.047
    9AGAL    C438223   7.560  -0.367  14.093
    9AGAL    H438224   7.553  -0.389  14.204
    9AGAL    O438225   7.465  -0.443  14.021
    9AGAL   HO438226   7.419  -0.505  14.078
    9AGAL    C638227   7.720  -0.566  14.099
    9AGAL   H6138228   7.830  -0.570  14.097
    9AGAL   H6238229   7.713  -0.612  14.197
    9AGAL    O638230   7.646  -0.662  14.036
    9AGAL   HO638231   7.691  -0.729  13.985
   10AGAL    C138232   7.547   0.065  13.910
   10AGAL    H138233   7.437   0.081  13.925
   10AGAL    C538234   7.765   0.123  14.053
   10AGAL    H538235   7.841   0.041  14.044
   10AGAL    O538236   7.612   0.108  14.042
   10AGAL    C238237   7.602   0.173  13.811
   10AGAL    H238238   7.563   0.269  13.847
   10AGAL    O238239   7.547   0.154  13.682
   10AGAL   HO238240   7.506   0.238  13.662
   10AGAL    C338241   7.759   0.190  13.802
   10AGAL    H338242   7.813   0.107  13.756
   10AGAL    O338243   7.806   0.278  13.703
   10AGAL   HO338244   7.850   0.219  13.640
   10AGAL    C438245   7.805   0.224  13.946
   10AGAL    H438246   7.915   0.218  13.947
   10AGAL    O438247   7.757   0.348  13.982
   10AGAL   HO438248   7.665   0.332  14.001
   10AGAL    C638249   7.838   0.130  14.188
   10AGAL   H6138250   7.800   0.050  14.250
   10AGAL   H6238251   7.949   0.109  14.176
   10AGAL    O638252   7.826   0.251  14.257
   10AGAL   HO638253   7.773   0.235  14.334
   11BGLC    C138254   8.094  -0.231  14.165
   11BGLC    H138255   8.184  -0.177  14.161
   11BGLC    C538256   8.123  -0.478  14.222
   11BGLC    H538257   8.214  -0.452  14.195
   11BGLC    O538258   8.098  -0.378  14.121
   11BGLC    C238259   7.994  -0.206  14.290
   11BGLC    H238260   7.885  -0.214  14.283
   11BGLC    O238261   8.018  -0.073  14.333
   11BGLC   HO238262   7.935  -0.043  14.373
   11BGLC    C338263   8.026  -0.296  14.408
   11BGLC    H338264   8.106  -0.239  14.458
   11BGLC    O338265   7.937  -0.269  14.520
   11BGLC    C438266   8.027  -0.453  14.340
   11BGLC    H438267   7.927  -0.481  14.332
   11BGLC    O438268   8.051  -0.580  14.401
   11BGLC   HO438269   8.027  -0.570  14.497
   11BGLC    C638270   8.126  -0.629  14.180
   11BGLC   H6138271   8.124  -0.709  14.255
   11BGLC   H6238272   8.038  -0.633  14.123
   11BGLC    O638273   8.234  -0.677  14.104
   11BGLC   HO638274   8.278  -0.747  14.150
   12BGLCN   C138275   7.997  -0.241  14.657
   12BGLCN   H138276   8.018  -0.143  14.635
   12BGLCN   C538277   8.201  -0.286  14.823
   12BGLCN   H538278   8.235  -0.196  14.874
   12BGLCN   O538279   8.128  -0.290  14.697
   12BGLCN   C238280   7.925  -0.318  14.767
   12BGLCN   H238281   7.934  -0.427  14.776
   12BGLCN    N38282   7.804  -0.293  14.703
   12BGLCN   HN38283   7.798  -0.192  14.722
   12BGLCN    C38284   7.691  -0.374  14.720
   12BGLCN    O38285   7.674  -0.478  14.776
   12BGLCN   CT38286   7.569  -0.307  14.716
   12BGLCN  HT138287   7.505  -0.302  14.806
   12BGLCN  HT238288   7.497  -0.336  14.646
   12BGLCN  HT338289   7.624  -0.224  14.667
   12BGLCN   C338290   7.973  -0.293  14.915
   12BGLCN   H338291   7.960  -0.195  14.921
   12BGLCN   O338292   7.905  -0.309  15.047
   12BGLCN   C438293   8.110  -0.344  14.906
   12BGLCN   H438294   8.119  -0.455  14.885
   12BGLCN   O438295   8.147  -0.298  15.031
   12BGLCN  HO438296   8.209  -0.223  15.050
   12BGLCN   C638297   8.329  -0.371  14.822
   12BGLCN  H6138298   8.402  -0.348  14.897
   12BGLCN  H6238299   8.312  -0.480  14.814
   12BGLCN   O638300   8.432  -0.336  14.738
   12BGLCN  HO638301   8.478  -0.252  14.751
   13AGAL    C138302   7.852  -0.206  15.128
   13AGAL    H138303   7.927  -0.127  15.149
   13AGAL    C538304   7.617  -0.137  15.089
   13AGAL    H538305   7.574  -0.231  15.042
   13AGAL    O538306   7.758  -0.099  15.102
   13AGAL    C238307   7.811  -0.278  15.247
   13AGAL    H238308   7.813  -0.182  15.289
   13AGAL    O238309   7.886  -0.371  15.330
   13AGAL    C338310   7.682  -0.327  15.239
   13AGAL    H338311   7.675  -0.398  15.148
   13AGAL    O338312   7.644  -0.391  15.362
   13AGAL   HO338313   7.603  -0.479  15.347
   13AGAL    C438314   7.596  -0.201  15.211
   13AGAL    H438315   7.515  -0.261  15.235
   13AGAL    O438316   7.605  -0.078  15.279
   13AGAL   HO438317   7.645  -0.086  15.363
   13AGAL    C638318   7.546  -0.043  14.994
   13AGAL   H6138319   7.606  -0.021  14.902
   13AGAL   H6238320   7.456  -0.096  14.953
   13AGAL    O638321   7.516   0.075  15.063
   13AGAL   HO638322   7.455   0.041  15.131
   14ARHM    C138323   7.955  -0.330  15.448
   14ARHM    H138324   7.969  -0.220  15.450
   14ARHM    C538325   8.081  -0.524  15.463
   14ARHM    H538326   8.027  -0.541  15.372
   14ARHM    O538327   8.085  -0.384  15.463
   14ARHM    C238328   7.882  -0.383  15.553
   14ARHM    H238329   7.775  -0.357  15.542
   14ARHM    O238330   7.945  -0.346  15.676
   14ARHM    C338331   7.883  -0.534  15.551
   14ARHM    H338332   7.851  -0.541  15.456
   14ARHM    O338333   7.777  -0.622  15.579
   14ARHM   HO338334   7.774  -0.625  15.678
   14ARHM    C438335   8.011  -0.583  15.569
   14ARHM    H438336   8.075  -0.541  15.643
   14ARHM    O438337   8.015  -0.721  15.570
   14ARHM   HO438338   8.032  -0.755  15.659
   14ARHM    C638339   8.219  -0.571  15.474
   14ARHM   H6138340   8.287  -0.496  15.433
   14ARHM   H6238341   8.253  -0.556  15.575
   14ARHM   H6338342   8.239  -0.673  15.435
   15ARHM    C138343   7.954  -0.214  15.720
   15ARHM    H138344   7.924  -0.146  15.640
   15ARHM    C538345   8.154  -0.242  15.800
   15ARHM    H538346   8.160  -0.353  15.778
   15ARHM    O538347   8.080  -0.186  15.704
   15ARHM    C238348   7.904  -0.165  15.864
   15ARHM    H238349   7.804  -0.197  15.905
   15ARHM    O238350   7.887  -0.024  15.866
   15ARHM    C338351   7.988  -0.231  15.959
   15ARHM    H338352   8.006  -0.329  15.918
   15ARHM    O338353   7.921  -0.252  16.082
   15ARHM    C438354   8.118  -0.195  15.932
   15ARHM    H438355   8.121  -0.085  15.952
   15ARHM    O438356   8.209  -0.275  15.993
   15ARHM   HO438357   8.274  -0.216  16.033
   15ARHM    C638358   8.285  -0.192  15.783
   15ARHM   H6138359   8.354  -0.253  15.841
   15ARHM   H6238360   8.311  -0.209  15.678
   15ARHM   H6338361   8.295  -0.088  15.821
   16BMANN   C138362   7.824   0.031  15.981
   16BMANN   H138363   7.889  -0.001  16.067
   16BMANN   C538364   7.643   0.053  16.148
   16BMANN   H538365   7.722   0.026  16.224
   16BMANN   O538366   7.686   0.000  16.016
   16BMANN   C238367   7.825   0.177  15.967
   16BMANN   H238368   7.931   0.203  15.940
   16BMANN    N38369   7.735   0.220  15.862
   16BMANN   HN38370   7.642   0.239  15.890
   16BMANN    C38371   7.768   0.237  15.734
   16BMANN    O38372   7.881   0.218  15.689
   16BMANN   CT38373   7.657   0.283  15.645
   16BMANN  HT138374   7.667   0.391  15.624
   16BMANN  HT238375   7.557   0.265  15.690
   16BMANN  HT338376   7.659   0.226  15.550
   16BMANN   C338377   7.786   0.235  16.101
   16BMANN   H338378   7.860   0.190  16.172
   16BMANN   O338379   7.796   0.375  16.097
   16BMANN  HO338380   7.852   0.404  16.169
   16BMANN   C438381   7.646   0.196  16.142
   16BMANN   H438382   7.568   0.223  16.068
   16BMANN   O438383   7.606   0.244  16.270
   16BMANN  HO438384   7.512   0.231  16.280
   16BMANN   C638385   7.511   0.000  16.216
   16BMANN  H6138386   7.527  -0.004  16.326
   16BMANN  H6238387   7.423   0.056  16.182
   16BMANN   O638388   7.469  -0.131  16.198
   16BMANN  HO638389   7.411  -0.153  16.122
   17BGLCN   C138390   7.906  -0.377  16.156
   17BGLCN   H138391   7.993  -0.437  16.132
   17BGLCN   C538392   7.792  -0.604  16.190
   17BGLCN   H538393   7.885  -0.648  16.155
   17BGLCN   O538394   7.808  -0.481  16.133
   17BGLCN   C238395   7.881  -0.332  16.278
   17BGLCN   H238396   7.774  -0.309  16.299
   17BGLCN    N38397   7.951  -0.193  16.298
   17BGLCN   HN38398   8.046  -0.206  16.274
   17BGLCN    C38399   7.948  -0.082  16.371
   17BGLCN    O38400   7.851  -0.041  16.424
   17BGLCN   CT38401   8.083  -0.037  16.409
   17BGLCN  HT138402   8.102   0.064  16.375
   17BGLCN  HT238403   8.153  -0.112  16.366
   17BGLCN  HT338404   8.106  -0.034  16.518
   17BGLCN   C338405   7.888  -0.476  16.357
   17BGLCN   H338406   7.982  -0.521  16.317
   17BGLCN   O338407   7.868  -0.500  16.490
   17BGLCN   C438408   7.774  -0.566  16.319
   17BGLCN   H438409   7.682  -0.502  16.315
   17BGLCN   O438410   7.742  -0.671  16.411
   17BGLCN  HO438411   7.662  -0.726  16.400
   17BGLCN   C638412   7.668  -0.690  16.149
   17BGLCN  H6138413   7.691  -0.796  16.160
   17BGLCN  H6238414   7.579  -0.665  16.214
   17BGLCN   O638415   7.620  -0.680  16.018
   17BGLCN  HO638416   7.686  -0.656  15.951
   18AGAL    C138417   7.959  -0.498  16.575
   18AGAL    H138418   7.934  -0.598  16.623
   18AGAL    C538419   8.148  -0.417  16.492
   18AGAL    H538420   8.094  -0.340  16.434
   18AGAL    O538421   8.072  -0.534  16.513
   18AGAL    C238422   7.970  -0.397  16.707
   18AGAL    H238423   8.031  -0.474  16.748
   18AGAL    O238424   7.944  -0.377  16.843
   18AGAL    C338425   8.036  -0.255  16.694
   18AGAL    H338426   8.056  -0.211  16.601
   18AGAL    O338427   7.973  -0.113  16.680
   18AGAL   HO338428   8.013  -0.023  16.658
   18AGAL    C438429   8.167  -0.330  16.637
   18AGAL    H438430   8.248  -0.299  16.594
   18AGAL    O438431   8.237  -0.376  16.760
   18AGAL   HO438432   8.333  -0.374  16.791
   18AGAL    C638433   8.267  -0.434  16.393
   18AGAL   H6138434   8.213  -0.468  16.306
   18AGAL   H6238435   8.316  -0.336  16.392
   18AGAL    O638436   8.353  -0.542  16.357
   18AGAL   HO638437   8.372  -0.604  16.428
   19ARHM    C138438   7.942  -0.456  16.959
   19ARHM    H138439   8.052  -0.442  16.979
   19ARHM    C538440   7.782  -0.669  16.971
   19ARHM    H538441   7.749  -0.694  16.869
   19ARHM    O538442   7.915  -0.601  16.998
   19ARHM    C238443   7.838  -0.384  17.036
   19ARHM    H238444   7.831  -0.280  16.998
   19ARHM    O238445   7.893  -0.359  17.155
   19ARHM    C338446   7.688  -0.435  17.015
   19ARHM    H338447   7.638  -0.397  16.929
   19ARHM    O338448   7.591  -0.379  17.101
   19ARHM   HO338449   7.630  -0.367  17.192
   19ARHM    C438450   7.683  -0.585  17.046
   19ARHM    H438451   7.668  -0.637  17.136
   19ARHM    O438452   7.548  -0.613  17.021
   19ARHM   HO438453   7.529  -0.627  16.932
   19ARHM    C638454   7.773  -0.825  16.986
   19ARHM   H6138455   7.838  -0.889  16.929
   19ARHM   H6238456   7.788  -0.869  17.083
   19ARHM   H6338457   7.678  -0.856  16.938
   20ARHM    C138458   8.028  -0.348  17.182
   20ARHM    H138459   8.043  -0.288  17.102
   20ARHM    C538460   8.163  -0.546  17.308
   20ARHM    H538461   8.112  -0.648  17.281
   20ARHM    O538462   8.153  -0.446  17.198
   20ARHM    C238463   8.020  -0.273  17.322
   20ARHM    H238464   7.914  -0.246  17.318
   20ARHM    O238465   8.106  -0.163  17.362
   20ARHM    C338466   8.005  -0.362  17.452
   20ARHM    H338467   7.903  -0.406  17.457
   20ARHM    O338468   7.990  -0.305  17.582
   20ARHM    C438469   8.132  -0.450  17.438
   20ARHM    H438470   8.208  -0.370  17.435
   20ARHM    O438471   8.098  -0.523  17.559
   20ARHM   HO438472   8.152  -0.601  17.573
   20ARHM    C638473   8.279  -0.612  17.338
   20ARHM   H6138474   8.359  -0.548  17.372
   20ARHM   H6238475   8.254  -0.685  17.421
   20ARHM   H6338476   8.288  -0.652  17.233
   21BMANN   C138477   8.109  -0.039  17.296
   21BMANN   H138478   8.056  -0.053  17.215
   21BMANN   C538479   8.151   0.105  17.114
   21BMANN   H538480   8.058   0.093  17.054
   21BMANN   O538481   8.207   0.000  17.201
   21BMANN   C238482   8.067   0.065  17.387
   21BMANN   H238483   7.972   0.057  17.437
   21BMANN    N38484   8.164   0.053  17.494
   21BMANN   HN38485   8.250   0.075  17.451
   21BMANN    C38486   8.144   0.081  17.626
   21BMANN    O38487   8.043   0.129  17.674
   21BMANN   CT38488   8.270   0.115  17.690
   21BMANN  HT138489   8.314   0.209  17.657
   21BMANN  HT238490   8.346   0.038  17.677
   21BMANN  HT338491   8.238   0.141  17.794
   21BMANN   C338492   8.016   0.180  17.296
   21BMANN   H338493   7.928   0.160  17.232
   21BMANN   O338494   7.967   0.295  17.363
   21BMANN  HO338495   8.044   0.337  17.408
   21BMANN   C438496   8.119   0.215  17.202
   21BMANN   H438497   8.210   0.228  17.262
   21BMANN   O438498   8.075   0.321  17.126
   21BMANN  HO438499   8.140   0.391  17.130
   21BMANN   C638500   8.235   0.129  17.006
   21BMANN  H6138501   8.202   0.189  16.923
   21BMANN  H6238502   8.314   0.186  17.052
   21BMANN   O638503   8.267   0.006  16.949
   21BMANN  HO638504   8.334  -0.045  16.999
   22BGLCN   C138505   7.879  -0.345  17.663
   22BGLCN   H138506   7.889  -0.450  17.679
   22BGLCN   C538507   7.655  -0.357  17.740
   22BGLCN   H538508   7.626  -0.461  17.731
   22BGLCN   O538509   7.741  -0.315  17.631
   22BGLCN   C238510   7.930  -0.272  17.780
   22BGLCN   H238511   7.931  -0.161  17.773
   22BGLCN    N38512   8.062  -0.313  17.800
   22BGLCN   HN38513   8.089  -0.406  17.777
   22BGLCN    C38514   8.134  -0.246  17.875
   22BGLCN    O38515   8.080  -0.157  17.936
   22BGLCN   CT38516   8.265  -0.302  17.896
   22BGLCN  HT138517   8.339  -0.265  17.827
   22BGLCN  HT238518   8.250  -0.408  17.869
   22BGLCN  HT338519   8.311  -0.303  17.993
   22BGLCN   C338520   7.852  -0.314  17.893
   22BGLCN   H338521   7.897  -0.395  17.919
   22BGLCN   O338522   7.923  -0.307  18.011
   22BGLCN   C438523   7.708  -0.290  17.870
   22BGLCN   H438524   7.714  -0.189  17.862
   22BGLCN   O438525   7.640  -0.310  17.991
   22BGLCN  HO438526   7.557  -0.261  18.012
   22BGLCN   C638527   7.526  -0.290  17.716
   22BGLCN  H6138528   7.450  -0.289  17.782
   22BGLCN  H6238529   7.548  -0.189  17.730
   22BGLCN   O638530   7.437  -0.320  17.616
   22BGLCN  HO638531   7.483  -0.352  17.538
   23AGAL    C138532   7.895  -0.345  18.132
   23AGAL    H138533   7.795  -0.298  18.152
   23AGAL    C538534   8.023  -0.557  18.139
   23AGAL    H538535   8.086  -0.498  18.069
   23AGAL    O538536   7.895  -0.489  18.157
   23AGAL    C238537   8.004  -0.285  18.226
   23AGAL    H238538   8.014  -0.342  18.316
   23AGAL    O238539   7.988  -0.145  18.269
   23AGAL    C338540   8.132  -0.354  18.199
   23AGAL    H338541   8.154  -0.315  18.105
   23AGAL    O338542   8.243  -0.312  18.257
   23AGAL   HO338543   8.214  -0.322  18.350
   23AGAL    C438544   8.123  -0.510  18.228
   23AGAL    H438545   8.219  -0.561  18.204
   23AGAL    O438546   8.071  -0.556  18.351
   23AGAL   HO438547   8.025  -0.641  18.333
   23AGAL    C638548   8.020  -0.707  18.076
   23AGAL   H6138549   7.923  -0.710  18.021
   23AGAL   H6238550   8.094  -0.716  18.001
   23AGAL    O638551   8.028  -0.835  18.133
   23AGAL   HO638552   7.933  -0.855  18.147
   24ARHM    C138553   7.889  -0.087  18.359
   24ARHM    H138554   7.815  -0.152  18.386
   24ARHM    C538555   7.900   0.132  18.296
   24ARHM    H538556   7.979   0.096  18.228
   24ARHM    O538557   7.815   0.022  18.308
   24ARHM    C238558   7.943  -0.054  18.492
   24ARHM    H238559   7.996  -0.126  18.547
   24ARHM    O238560   7.848  -0.006  18.584
   24ARHM    C338561   8.033   0.050  18.477
   24ARHM    H338562   8.102   0.010  18.399
   24ARHM    O338563   8.100   0.059  18.599
   24ARHM   HO338564   8.062   0.130  18.649
   24ARHM    C438565   7.960   0.168  18.429
   24ARHM    H438566   7.880   0.194  18.503
   24ARHM    O438567   8.048   0.276  18.420
   24ARHM   HO438568   8.004   0.358  18.442
   24ARHM    C638569   7.827   0.245  18.230
   24ARHM   H6138570   7.906   0.306  18.181
   24ARHM   H6238571   7.753   0.209  18.156
   24ARHM   H6338572   7.773   0.305  18.303
   25ARHM    C138573   7.768  -0.101  18.638
   25ARHM    H138574   7.745  -0.189  18.572
   25ARHM    C538575   7.606   0.034  18.738
   25ARHM    H538576   7.656   0.128  18.713
   25ARHM    O538577   7.630  -0.059  18.632
   25ARHM    C238578   7.829  -0.164  18.774
   25ARHM    H238579   7.937  -0.161  18.767
   25ARHM    O238580   7.806  -0.301  18.827
   25ARHM    C338581   7.800  -0.049  18.876
   25ARHM    H338582   7.851   0.040  18.838
   25ARHM    O338583   7.868  -0.098  18.992
   25ARHM    C438584   7.644  -0.008  18.881
   25ARHM    H438585   7.590  -0.086  18.937
   25ARHM    O438586   7.589   0.100  18.951
   25ARHM   HO438587   7.557   0.053  19.033
   25ARHM    C638588   7.449   0.039  18.749
   25ARHM   H6138589   7.403   0.047  18.650
   25ARHM   H6238590   7.400  -0.051  18.797
   25ARHM   H6338591   7.419   0.126  18.811
   26BMANN   C138592   7.847  -0.423  18.770
   26BMANN   H138593   7.951  -0.423  18.746
   26BMANN   C538594   7.824  -0.589  18.601
   26BMANN   H538595   7.915  -0.550  18.554
   26BMANN   O538596   7.772  -0.472  18.657
   26BMANN   C238597   7.859  -0.519  18.873
   26BMANN   H238598   7.927  -0.481  18.948
   26BMANN    N38599   7.744  -0.553  18.934
   26BMANN   HN38600   7.665  -0.589  18.886
   26BMANN    C38601   7.705  -0.522  19.044
   26BMANN    O38602   7.735  -0.417  19.101
   26BMANN   CT38603   7.642  -0.651  19.076
   26BMANN  HT138604   7.563  -0.637  18.994
   26BMANN  HT238605   7.611  -0.617  19.180
   26BMANN  HT338606   7.571  -0.726  19.106
   26BMANN   C338607   7.920  -0.635  18.814
   26BMANN   H338608   8.017  -0.604  18.770
   26BMANN   O338609   7.955  -0.724  18.911
   26BMANN  HO338610   8.028  -0.693  18.964
   26BMANN   C438611   7.837  -0.696  18.708
   26BMANN   H438612   7.731  -0.710  18.715
   26BMANN   O438613   7.896  -0.827  18.687
   26BMANN  HO438614   7.846  -0.909  18.705
   26BMANN   C638615   7.709  -0.626  18.505
   26BMANN  H6138616   7.627  -0.554  18.506
   26BMANN  H6238617   7.755  -0.648  18.412
   26BMANN   O638618   7.633  -0.743  18.491
   26BMANN  HO638619   7.642  -0.805  18.561
   27BGLCN   C138620   7.941  -0.014  19.076
   27BGLCN   H138621   7.909   0.090  19.056
   27BGLCN   C538622   8.125   0.100  19.121
   27BGLCN   H538623   8.062   0.193  19.123
   27BGLCN   O538624   8.071  -0.002  19.038
   27BGLCN   C238625   7.922  -0.063  19.231
   27BGLCN   H238626   7.970  -0.155  19.213
   27BGLCN    N38627   7.793  -0.112  19.304
   27BGLCN   HN38628   7.717  -0.049  19.286
   27BGLCN    C38629   7.755  -0.236  19.324
   27BGLCN    O38630   7.847  -0.311  19.318
   27BGLCN   CT38631   7.607  -0.279  19.352
   27BGLCN  HT138632   7.538  -0.192  19.343
   27BGLCN  HT238633   7.554  -0.288  19.446
   27BGLCN  HT338634   7.588  -0.375  19.301
   27BGLCN   C338635   7.988   0.047  19.308
   27BGLCN   H338636   7.929   0.139  19.291
   27BGLCN   O338637   7.962   0.025  19.442
   27BGLCN   C438638   8.127   0.062  19.264
   27BGLCN   H438639   8.196  -0.020  19.271
   27BGLCN   O438640   8.198   0.141  19.349
   27BGLCN  HO438641   8.159   0.228  19.353
   27BGLCN   C638642   8.249   0.130  19.062
   27BGLCN  H6138643   8.291   0.222  19.102
   27BGLCN  H6238644   8.309   0.042  19.063
   27BGLCN   O638645   8.247   0.146  18.927
   27BGLCN  HO638646   8.336   0.174  18.898
   28AGAL    C138647   7.995   0.081  19.566
   28AGAL    H138648   8.105   0.084  19.572
   28AGAL    C538649   7.777   0.171  19.550
   28AGAL    H538650   7.747   0.084  19.481
   28AGAL    O538651   7.921   0.198  19.547
   28AGAL    C238652   7.945   0.018  19.705
   28AGAL    H238653   7.966   0.092  19.782
   28AGAL    O238654   8.016  -0.100  19.750
   28AGAL    C338655   7.793  -0.003  19.702
   28AGAL    H338656   7.755  -0.063  19.622
   28AGAL    O338657   7.725  -0.061  19.806
   28AGAL   HO338658   7.698  -0.151  19.781
   28AGAL    C438659   7.729   0.121  19.681
   28AGAL    H438660   7.617   0.106  19.679
   28AGAL    O438661   7.764   0.210  19.787
   28AGAL   HO438662   7.690   0.208  19.847
   28AGAL    C638663   7.702   0.286  19.498
   28AGAL   H6138664   7.727   0.295  19.391
   28AGAL   H6238665   7.594   0.271  19.507
   28AGAL    O638666   7.739   0.405  19.565
   28AGAL   HO638667   7.827   0.427  19.533
   29ARHM    C138668   8.037  -0.108  19.888
   29ARHM    H138669   7.965  -0.041  19.934
   29ARHM    C538670   8.264  -0.143  19.840
   29ARHM    H538671   8.241  -0.165  19.733
   29ARHM    O538672   8.167  -0.059  19.901
   29ARHM    C238673   8.033  -0.242  19.962
   29ARHM    H238674   7.947  -0.306  19.939
   29ARHM    O238675   8.066  -0.239  20.100
   29ARHM    C338676   8.127  -0.333  19.911
   29ARHM    H338677   8.111  -0.323  19.805
   29ARHM    O338678   8.111  -0.464  19.973
   29ARHM   HO338679   8.194  -0.512  19.963
   29ARHM    C438680   8.260  -0.280  19.917
   29ARHM    H438681   8.270  -0.277  20.027
   29ARHM    O438682   8.361  -0.370  19.868
   29ARHM   HO438683   8.344  -0.407  19.780
   29ARHM    C638684   8.384  -0.042  19.839
   29ARHM   H6138685   8.368   0.055  19.792
   29ARHM   H6238686   8.414  -0.012  19.942
   29ARHM   H6338687   8.471  -0.089  19.792
   30ARHM    C138688   7.960  -0.203  20.173
   30ARHM    H138689   7.898  -0.284  20.145
   30ARHM    C538690   7.942   0.027  20.182
   30ARHM    H538691   8.032   0.028  20.123
   30ARHM    O538692   7.888  -0.087  20.132
   30ARHM    C238693   7.972  -0.220  20.324
   30ARHM    H238694   8.040  -0.305  20.341
   30ARHM    O238695   7.860  -0.236  20.410
   30ARHM    C338696   8.035  -0.095  20.372
   30ARHM    H338697   8.126  -0.103  20.319
   30ARHM    O338698   8.093  -0.087  20.500
   30ARHM    C438699   7.955   0.024  20.331
   30ARHM    H438700   7.858   0.020  20.386
   30ARHM    O438701   8.019   0.145  20.368
   30ARHM   HO438702   8.091   0.166  20.308
   30ARHM    C638703   7.852   0.141  20.138
   30ARHM   H6138704   7.916   0.229  20.154
   30ARHM   H6238705   7.827   0.135  20.031
   30ARHM   H6338706   7.757   0.150  20.198
   31BMANN   C138707   7.775  -0.350  20.409
   31BMANN   H138708   7.833  -0.442  20.413
   31BMANN   C538709   7.647  -0.531  20.330
   31BMANN   H538710   7.725  -0.600  20.357
   31BMANN   O538711   7.704  -0.408  20.300
   31BMANN   C238712   7.686  -0.311  20.520
   31BMANN   H238713   7.749  -0.291  20.604
   31BMANN    N38714   7.594  -0.198  20.502
   31BMANN   HN38715   7.589  -0.178  20.404
   31BMANN    C38716   7.522  -0.126  20.601
   31BMANN    O38717   7.521  -0.150  20.721
   31BMANN   CT38718   7.449  -0.013  20.560
   31BMANN  HT138719   7.385  -0.058  20.483
   31BMANN  HT238720   7.523   0.060  20.523
   31BMANN  HT338721   7.395   0.020  20.653
   31BMANN   C338722   7.631  -0.425  20.554
   31BMANN   H338723   7.710  -0.509  20.531
   31BMANN   O338724   7.555  -0.400  20.680
   31BMANN  HO338725   7.606  -0.353  20.749
   31BMANN   C438726   7.570  -0.485  20.456
   31BMANN   H438727   7.479  -0.466  20.474
   31BMANN   O438728   7.511  -0.585  20.519
   31BMANN  HO438729   7.558  -0.635  20.587
   31BMANN   C638730   7.581  -0.597  20.199
   31BMANN  H6138731   7.544  -0.692  20.240
   31BMANN  H6238732   7.498  -0.554  20.143
   31BMANN   O638733   7.638  -0.613  20.074
   31BMANN  HO638734   7.725  -0.654  20.088
   32BGLCN   C138735   8.019  -0.079  20.613
   32BGLCN   H138736   7.929  -0.118  20.575
   32BGLCN   C538737   7.926   0.103  20.734
   32BGLCN   H538738   7.825   0.101  20.699
   32BGLCN   O538739   8.019   0.061  20.636
   32BGLCN   C238740   8.063  -0.153  20.747
   32BGLCN   H238741   8.147  -0.101  20.786
   32BGLCN    N38742   8.095  -0.298  20.744
   32BGLCN   HN38743   8.037  -0.340  20.676
   32BGLCN    C38744   8.173  -0.400  20.774
   32BGLCN    O38745   8.272  -0.370  20.828
   32BGLCN   CT38746   8.146  -0.542  20.716
   32BGLCN  HT138747   8.115  -0.534  20.610
   32BGLCN  HT238748   8.097  -0.615  20.777
   32BGLCN  HT338749   8.236  -0.605  20.705
   32BGLCN   C338750   7.960  -0.112  20.849
   32BGLCN   H338751   7.868  -0.136  20.820
   32BGLCN   O338752   7.951  -0.176  20.972
   32BGLCN   C438753   7.959   0.033  20.862
   32BGLCN   H438754   8.062   0.057  20.894
   32BGLCN   O438755   7.864   0.063  20.962
   32BGLCN  HO438756   7.911   0.049  21.045
   32BGLCN   C638757   7.906   0.249  20.743
   32BGLCN  H6138758   7.817   0.269  20.809
   32BGLCN  H6238759   7.997   0.288  20.787
   32BGLCN   O638760   7.882   0.301  20.611
   32BGLCN  HO638761   7.819   0.245  20.564
   33AGAL    C138762   7.856  -0.259  21.032
   33AGAL    H138763   7.794  -0.181  21.013
   33AGAL    C538764   7.882  -0.495  20.985
   33AGAL    H538765   7.980  -0.458  20.941
   33AGAL    O538766   7.798  -0.376  20.980
   33AGAL    C238767   7.882  -0.305  21.161
   33AGAL    H238768   7.785  -0.342  21.200
   33AGAL    O238769   7.920  -0.178  21.206
   33AGAL    C338770   7.967  -0.432  21.165
   33AGAL    H338771   8.059  -0.441  21.118
   33AGAL    O338772   8.013  -0.484  21.277
   33AGAL   HO338773   7.955  -0.470  21.353
   33AGAL    C438774   7.910  -0.544  21.112
   33AGAL    H438775   7.988  -0.626  21.104
   33AGAL    O438776   7.800  -0.598  21.181
   33AGAL   HO438777   7.746  -0.529  21.221
   33AGAL    C638778   7.872  -0.617  20.911
   33AGAL   H6138779   7.918  -0.585  20.812
   33AGAL   H6238780   7.951  -0.686  20.930
   33AGAL    O638781   7.744  -0.688  20.906
   33AGAL   HO638782   7.680  -0.636  20.848
   34ARHM    C138783   7.838  -0.150  21.308
   34ARHM    H138784   7.820  -0.244  21.378
   34ARHM    C538785   7.663  -0.005  21.211
   34ARHM    H538786   7.715  -0.003  21.121
   34ARHM    O538787   7.694  -0.137  21.272
   34ARHM    C238788   7.917  -0.037  21.407
   34ARHM    H238789   8.030  -0.040  21.403
   34ARHM    O238790   7.897  -0.019  21.552
   34ARHM    C338791   7.870   0.099  21.323
   34ARHM    H338792   7.914   0.090  21.225
   34ARHM    O338793   7.921   0.213  21.391
   34ARHM   HO338794   7.946   0.283  21.331
   34ARHM    C438795   7.708   0.129  21.292
   34ARHM    H438796   7.641   0.155  21.380
   34ARHM    O438797   7.673   0.248  21.228
   34ARHM   HO438798   7.686   0.318  21.293
   34ARHM    C638799   7.502  -0.000  21.210
   34ARHM   H6138800   7.447   0.002  21.308
   34ARHM   H6238801   7.471   0.097  21.167
   34ARHM   H6338802   7.449  -0.083  21.154
   35ARHM    C138803   7.828  -0.105  21.642
   35ARHM    H138804   7.890  -0.194  21.626
   35ARHM    C538805   7.600  -0.154  21.666
   35ARHM    H538806   7.562  -0.065  21.617
   35ARHM    O538807   7.728  -0.205  21.617
   35ARHM    C238808   7.833  -0.059  21.787
   35ARHM    H238809   7.882   0.033  21.825
   35ARHM    O238810   7.903  -0.172  21.836
   35ARHM    C338811   7.705  -0.004  21.829
   35ARHM    H338812   7.688   0.080  21.754
   35ARHM    O338813   7.710   0.048  21.962
   35ARHM   HO338814   7.765  -0.010  22.015
   35ARHM    C438815   7.606  -0.105  21.810
   35ARHM    H438816   7.615  -0.178  21.890
   35ARHM    O438817   7.492  -0.036  21.838
   35ARHM   HO438818   7.484   0.042  21.783
   35ARHM    C638819   7.502  -0.277  21.655
   35ARHM   H6138820   7.522  -0.336  21.565
   35ARHM   H6238821   7.520  -0.372  21.706
   35ARHM   H6338822   7.397  -0.243  21.651
   36BMANN   C138823   8.028  -0.227  21.874
   36BMANN   H138824   8.113  -0.160  21.871
   36BMANN   C538825   8.182  -0.377  21.787
   36BMANN   H538826   8.235  -0.290  21.787
   36BMANN   O538827   8.053  -0.327  21.778
   36BMANN   C238828   8.047  -0.277  22.027
   36BMANN   H238829   8.026  -0.184  22.088
   36BMANN    N38830   7.971  -0.392  22.099
   36BMANN   HN38831   7.915  -0.452  22.038
   36BMANN    C38832   7.930  -0.404  22.228
   36BMANN    O38833   7.961  -0.317  22.307
   36BMANN   CT38834   7.841  -0.520  22.266
   36BMANN  HT138835   7.878  -0.616  22.232
   36BMANN  HT238836   7.732  -0.498  22.250
   36BMANN  HT338837   7.856  -0.561  22.366
   36BMANN   C338838   8.189  -0.307  22.031
   36BMANN   H338839   8.253  -0.222  21.997
   36BMANN   O338840   8.200  -0.313  22.174
   36BMANN  HO338841   8.285  -0.304  22.218
   36BMANN   C438842   8.213  -0.421  21.923
   36BMANN   H438843   8.177  -0.521  21.924
   36BMANN   O438844   8.342  -0.458  21.935
   36BMANN  HO438845   8.333  -0.484  22.028
   36BMANN   C638846   8.189  -0.506  21.692
   36BMANN  H6138847   8.160  -0.482  21.589
   36BMANN  H6238848   8.286  -0.541  21.692
   36BMANN   O638849   8.132  -0.635  21.725
   36BMANN  HO638850   8.176  -0.684  21.799
   37PVPG   C1338851   4.393   4.197   7.773
   37PVPG  H13A38852   4.398   4.306   7.795
   37PVPG  H13B38853   4.439   4.140   7.856
   37PVPG   OC338854   4.464   4.165   7.651
   37PVPG   HO338855   4.401   4.120   7.595
   37PVPG   C1238856   4.244   4.154   7.774
   37PVPG  H12A38857   4.189   4.215   7.700
   37PVPG   OC238858   4.185   4.184   7.900
   37PVPG   HO238859   4.113   4.122   7.910
   37PVPG   C1138860   4.222   4.005   7.741
   37PVPG  H11A38861   4.262   3.980   7.640
   37PVPG  H11B38862   4.112   3.989   7.742
   37PVPG     P38863   4.223   3.797   7.900
   37PVPG   O1338864   4.199   3.694   7.797
   37PVPG   O1438865   4.105   3.837   7.980
   37PVPG   O1238866   4.290   3.925   7.836
   37PVPG   O1138867   4.336   3.750   7.993
   37PVPG    C138868   4.461   3.741   7.925
   37PVPG    HA38869   4.503   3.845   7.899
   37PVPG    HB38870   4.467   3.671   7.842
   37PVPG    C238871   4.553   3.667   8.015
   37PVPG    HS38872   4.640   3.616   7.960
   37PVPG   O2138873   4.501   3.598   8.125
   37PVPG   C2138874   4.487   3.480   8.101
   37PVPG   O2238875   4.542   3.414   8.013
   37PVPG   C2238876   4.396   3.432   8.212
   37PVPG   H2R38877   4.369   3.330   8.184
   37PVPG   H2S38878   4.306   3.497   8.213
   37PVPG    C338879   4.606   3.769   8.062
   37PVPG    HX38880   4.714   3.721   8.092
   37PVPG    HY38881   4.686   3.814   8.005
   37PVPG   O3138882   4.494   3.858   8.150
   37PVPG   C3138883   4.456   4.009   8.157
   37PVPG   O3238884   4.478   4.093   8.076
   37PVPG   C3238885   4.438   4.065   8.293
   37PVPG   H2X38886   4.475   4.174   8.291
   37PVPG   H2Y38887   4.494   4.005   8.367
   37PVPG   C2338888   4.464   3.443   8.348
   37PVPG   H3R38889   4.504   3.540   8.365
   37PVPG   H3S38890   4.543   3.366   8.364
   37PVPG   C2438891   4.372   3.466   8.465
   37PVPG   H4R38892   4.365   3.366   8.472
   37PVPG   H4S38893   4.271   3.510   8.451
   37PVPG   C2538894   4.429   3.470   8.605
   37PVPG   H5R38895   4.348   3.455   8.674
   37PVPG   H5S38896   4.436   3.575   8.612
   37PVPG   C2638897   4.555   3.380   8.625
   37PVPG   H6R38898   4.634   3.417   8.557
   37PVPG   H6S38899   4.536   3.273   8.604
   37PVPG   C2738900   4.618   3.382   8.762
   37PVPG   H7R38901   4.609   3.488   8.798
   37PVPG   H7S38902   4.721   3.350   8.780
   37PVPG   C2838903   4.551   3.279   8.846
   37PVPG   H8R38904   4.571   3.174   8.866
   37PVPG   H8S38905   4.446   3.278   8.810
   37PVPG   C2938906   4.556   3.327   8.983
   37PVPG   H9R38907   4.504   3.249   9.042
   37PVPG   H9S38908   4.509   3.422   8.939
   37PVPG  C21038909   4.634   3.399   9.088
   37PVPG  H10R38910   4.575   3.455   9.164
   37PVPG  H10S38911   4.690   3.472   9.030
   37PVPG  C21138912   4.691   3.295   9.173
   37PVPG  H11138913   4.620   3.227   9.225
   37PVPG  C21238914   4.818   3.297   9.194
   37PVPG  H12138915   4.863   3.215   9.250
   37PVPG  C21338916   4.909   3.399   9.137
   37PVPG  H13R38917   4.870   3.481   9.073
   37PVPG  H13S38918   4.996   3.353   9.085
   37PVPG  C21438919   4.971   3.459   9.255
   37PVPG  H14R38920   5.043   3.523   9.205
   37PVPG  H14S38921   5.021   3.369   9.295
   37PVPG  C21538922   4.893   3.520   9.370
   37PVPG  H15R38923   4.945   3.569   9.458
   37PVPG  H15S38924   4.815   3.453   9.407
   37PVPG  C21638925   4.817   3.624   9.308
   37PVPG  H16R38926   4.784   3.599   9.208
   37PVPG  H16S38927   4.897   3.702   9.283
   37PVPG  C21738928   4.693   3.662   9.398
   37PVPG  H17R38929   4.645   3.758   9.413
   37PVPG  H17S38930   4.784   3.691   9.435
   37PVPG  C21838931   4.598   3.614   9.497
   37PVPG  H18R38932   4.666   3.566   9.569
   37PVPG  H18S38933   4.542   3.701   9.546
   37PVPG  H18T38934   4.537   3.566   9.417
   37PVPG   C3338935   4.297   4.029   8.271
   37PVPG   H3X38936   4.281   3.918   8.245
   37PVPG   H3Y38937   4.247   4.092   8.190
   37PVPG   C3438938   4.235   4.046   8.405
   37PVPG   H4X38939   4.130   4.028   8.380
   37PVPG   H4Y38940   4.253   4.151   8.434
   37PVPG   C3538941   4.296   3.956   8.516
   37PVPG   H5X38942   4.391   4.001   8.552
   37PVPG   H5Y38943   4.322   3.855   8.476
   37PVPG   C3638944   4.200   3.940   8.635
   37PVPG   H6X38945   4.110   3.883   8.603
   37PVPG   H6Y38946   4.169   4.040   8.671
   37PVPG   C3738947   4.264   3.869   8.754
   37PVPG   H7X38948   4.329   3.940   8.809
   37PVPG   H7Y38949   4.328   3.785   8.718
   37PVPG   C3838950   4.160   3.815   8.852
   37PVPG   H8X38951   4.075   3.771   8.799
   37PVPG   H8Y38952   4.128   3.886   8.930
   37PVPG   C3938953   4.218   3.702   8.925
   37PVPG   H9X38954   4.316   3.725   8.970
   37PVPG   H9Y38955   4.236   3.633   8.836
   37PVPG  C31038956   4.129   3.633   9.031
   37PVPG  H10X38957   4.189   3.565   9.087
   37PVPG  H10Y38958   4.051   3.568   8.988
   37PVPG  C31138959   4.088   3.703   9.157
   37PVPG  H11X38960   4.048   3.624   9.226
   37PVPG  H11Y38961   4.004   3.767   9.127
   37PVPG  C31238962   4.202   3.773   9.230
   37PVPG  H12X38963   4.285   3.809   9.165
   37PVPG  H12Y38964   4.250   3.703   9.303
   37PVPG  C31338965   4.145   3.895   9.299
   37PVPG  H13X38966   4.060   3.867   9.366
   37PVPG  H13Y38967   4.105   3.962   9.220
   37PVPG  C31438968   4.250   3.965   9.382
   37PVPG  H14X38969   4.236   4.075   9.369
   37PVPG  H14Y38970   4.352   3.940   9.343
   37PVPG  C31538971   4.234   3.924   9.528
   37PVPG  H15X38972   4.129   3.932   9.562
   37PVPG  H15Y38973   4.281   4.003   9.584
   37PVPG  C31638974   4.298   3.791   9.568
   37PVPG  H16X38975   4.366   3.802   9.655
   37PVPG  H16Y38976   4.224   3.712   9.593
   37PVPG  H16Z38977   4.358   3.757   9.482
   38PVPG   C1338978   4.396   5.075   7.746
   38PVPG  H13A38979   4.364   5.038   7.649
   38PVPG  H13B38980   4.324   5.052   7.828
   38PVPG   OC338981   4.383   5.211   7.703
   38PVPG   HO338982   4.329   5.261   7.767
   38PVPG   C1238983   4.535   5.003   7.777
   38PVPG  H12A38984   4.565   5.023   7.882
   38PVPG   OC238985   4.642   5.045   7.691
   38PVPG   HO238986   4.715   4.987   7.714
   38PVPG   C1138987   4.519   4.848   7.769
   38PVPG  H11A38988   4.615   4.796   7.795
   38PVPG  H11B38989   4.502   4.827   7.662
   38PVPG     P38990   4.399   4.659   7.917
   38PVPG   O1338991   4.536   4.607   7.928
   38PVPG   O1438992   4.290   4.581   7.853
   38PVPG   O1238993   4.407   4.804   7.848
   38PVPG   O1138994   4.346   4.694   8.062
   38PVPG    C138995   4.336   4.823   8.119
   38PVPG    HA38996   4.231   4.858   8.109
   38PVPG    HB38997   4.402   4.898   8.069
   38PVPG    C238998   4.372   4.820   8.270
   38PVPG    HS38999   4.353   4.923   8.309
   38PVPG   O2139000   4.507   4.776   8.293
   38PVPG   C2139001   4.595   4.874   8.283
   38PVPG   O2239002   4.567   4.992   8.268
   38PVPG   C2239003   4.736   4.815   8.286
   38PVPG   H2R39004   4.801   4.876   8.220
   38PVPG   H2S39005   4.735   4.713   8.243
   38PVPG    C339006   4.278   4.722   8.345
   38PVPG    HX39007   4.176   4.757   8.322
   38PVPG    HY39008   4.290   4.620   8.302
   38PVPG   O3139009   4.292   4.725   8.488
   38PVPG   C3139010   4.365   4.640   8.558
   38PVPG   O3239011   4.440   4.554   8.517
   38PVPG   C3239012   4.337   4.669   8.707
   38PVPG   H2X39013   4.405   4.609   8.771
   38PVPG   H2Y39014   4.231   4.645   8.729
   38PVPG   C2339015   4.798   4.808   8.427
   38PVPG   H3R39016   4.788   4.904   8.483
   38PVPG   H3S39017   4.906   4.783   8.416
   38PVPG   C2439018   4.735   4.699   8.511
   38PVPG   H4R39019   4.750   4.602   8.460
   38PVPG   H4S39020   4.626   4.716   8.519
   38PVPG   C2539021   4.794   4.713   8.652
   38PVPG   H5R39022   4.742   4.798   8.700
   38PVPG   H5S39023   4.904   4.728   8.648
   38PVPG   C2639024   4.765   4.599   8.741
   38PVPG   H6R39025   4.854   4.535   8.714
   38PVPG   H6S39026   4.665   4.554   8.718
   38PVPG   C2739027   4.784   4.604   8.889
   38PVPG   H7R39028   4.889   4.632   8.912
   38PVPG   H7S39029   4.764   4.505   8.932
   38PVPG   C2839030   4.680   4.664   8.970
   38PVPG   H8R39031   4.582   4.636   8.926
   38PVPG   H8S39032   4.708   4.770   8.955
   38PVPG   C2939033   4.691   4.609   9.112
   38PVPG   H9R39034   4.700   4.498   9.125
   38PVPG   H9S39035   4.591   4.632   9.152
   38PVPG  C21039036   4.810   4.664   9.191
   38PVPG  H10R39037   4.907   4.639   9.147
   38PVPG  H10S39038   4.801   4.622   9.293
   38PVPG  C21139039   4.799   4.809   9.196
   38PVPG  H11139040   4.853   4.872   9.121
   38PVPG  C21239041   4.727   4.863   9.293
   38PVPG  H12139042   4.686   4.953   9.258
   38PVPG  C21339043   4.646   4.820   9.412
   38PVPG  H13R39044   4.620   4.715   9.408
   38PVPG  H13S39045   4.559   4.888   9.423
   38PVPG  C21439046   4.702   4.837   9.549
   38PVPG  H14R39047   4.646   4.836   9.645
   38PVPG  H14S39048   4.711   4.946   9.540
   38PVPG  C21539049   4.824   4.753   9.567
   38PVPG  H15R39050   4.841   4.813   9.659
   38PVPG  H15S39051   4.907   4.758   9.492
   38PVPG  C21639052   4.814   4.612   9.612
   38PVPG  H16R39053   4.726   4.589   9.548
   38PVPG  H16S39054   4.794   4.608   9.722
   38PVPG  C21739055   4.920   4.512   9.568
   38PVPG  H17R39056   4.941   4.530   9.460
   38PVPG  H17S39057   4.877   4.411   9.584
   38PVPG  C21839058   5.051   4.511   9.641
   38PVPG  H18R39059   5.103   4.606   9.644
   38PVPG  H18S39060   5.041   4.466   9.741
   38PVPG  H18T39061   5.125   4.457   9.588
   38PVPG   C3339062   4.370   4.816   8.738
   38PVPG   H3X39063   4.320   4.879   8.661
   38PVPG   H3Y39064   4.481   4.826   8.731
   38PVPG   C3439065   4.329   4.861   8.878
   38PVPG   H4X39066   4.352   4.784   8.955
   38PVPG   H4Y39067   4.221   4.867   8.878
   38PVPG   C3539068   4.384   4.997   8.921
   38PVPG   H5X39069   4.370   5.071   8.838
   38PVPG   H5Y39070   4.492   4.978   8.939
   38PVPG   C3639071   4.319   5.057   9.047
   38PVPG   H6X39072   4.217   5.020   9.044
   38PVPG   H6Y39073   4.321   5.168   9.037
   38PVPG   C3739074   4.373   5.008   9.184
   38PVPG   H7X39075   4.458   5.059   9.221
   38PVPG   H7Y39076   4.407   4.904   9.180
   38PVPG   C3839077   4.315   5.056   9.314
   38PVPG   H8X39078   4.299   5.164   9.311
   38PVPG   H8Y39079   4.389   5.044   9.397
   38PVPG   C3939080   4.187   4.987   9.337
   38PVPG   H9X39081   4.125   5.004   9.247
   38PVPG   H9Y39082   4.138   5.030   9.425
   38PVPG  C31039083   4.194   4.837   9.347
   38PVPG  H10X39084   4.210   4.789   9.249
   38PVPG  H10Y39085   4.092   4.813   9.384
   38PVPG  C31139086   4.296   4.787   9.444
   38PVPG  H11X39087   4.336   4.868   9.510
   38PVPG  H11Y39088   4.384   4.738   9.395
   38PVPG  C31239089   4.226   4.691   9.533
   38PVPG  H12X39090   4.222   4.588   9.485
   38PVPG  H12Y39091   4.129   4.716   9.579
   38PVPG  C31339092   4.319   4.685   9.649
   38PVPG  H13X39093   4.414   4.681   9.600
   38PVPG  H13Y39094   4.286   4.585   9.665
   38PVPG  C31439095   4.330   4.790   9.764
   38PVPG  H14X39096   4.223   4.815   9.753
   38PVPG  H14Y39097   4.407   4.860   9.731
   38PVPG  C31539098   4.349   4.765   9.918
   38PVPG  H15X39099   4.372   4.837   9.997
   38PVPG  H15Y39100   4.434   4.696   9.936
   38PVPG  C31639101   4.212   4.712   9.947
   38PVPG  H16X39102   4.175   4.638   9.879
   38PVPG  H16Y39103   4.230   4.699  10.055
   38PVPG  H16Z39104   4.131   4.695  10.016
   39PVPG   C1339105   2.931   5.046   7.550
   39PVPG  H13A39106   2.908   5.147   7.511
   39PVPG  H13B39107   2.988   4.994   7.470
   39PVPG   OC339108   2.810   4.974   7.580
   39PVPG   HO339109   2.735   5.032   7.567
   39PVPG   C1239110   3.021   5.064   7.675
   39PVPG  H12A39111   3.095   5.142   7.652
   39PVPG   OC239112   3.097   4.946   7.697
   39PVPG   HO239113   3.127   4.949   7.791
   39PVPG   C1139114   2.948   5.115   7.803
   39PVPG  H11A39115   2.884   5.036   7.848
   39PVPG  H11B39116   2.880   5.196   7.769
   39PVPG     P39117   3.101   5.083   8.012
   39PVPG   O1339118   3.193   5.165   8.093
   39PVPG   O1439119   3.156   4.961   7.948
   39PVPG   O1239120   3.040   5.173   7.896
   39PVPG   O1139121   2.969   5.047   8.091
   39PVPG    C139122   2.932   4.913   8.117
   39PVPG    HA39123   2.945   4.847   8.029
   39PVPG    HB39124   2.825   4.913   8.146
   39PVPG    C239125   3.008   4.867   8.242
   39PVPG    HS39126   2.996   4.951   8.315
   39PVPG   O2139127   3.143   4.834   8.212
   39PVPG   C2139128   3.226   4.881   8.301
   39PVPG   O2239129   3.200   4.940   8.404
   39PVPG   C2239130   3.358   4.828   8.270
   39PVPG   H2R39131   3.438   4.899   8.299
   39PVPG   H2S39132   3.371   4.798   8.164
   39PVPG    C339133   2.947   4.750   8.311
   39PVPG    HX39134   2.836   4.762   8.306
   39PVPG    HY39135   2.974   4.656   8.256
   39PVPG   O3139136   2.998   4.751   8.446
   39PVPG   C3139137   2.912   4.787   8.540
   39PVPG   O3239138   2.795   4.814   8.525
   39PVPG   C3239139   2.971   4.765   8.677
   39PVPG   H2X39140   3.077   4.743   8.690
   39PVPG   H2Y39141   2.969   4.664   8.674
   39PVPG   C2339142   3.364   4.714   8.369
   39PVPG   H3R39143   3.407   4.642   8.303
   39PVPG   H3S39144   3.281   4.645   8.390
   39PVPG   C2439145   3.436   4.760   8.496
   39PVPG   H4R39146   3.377   4.838   8.546
   39PVPG   H4S39147   3.538   4.797   8.469
   39PVPG   C2539148   3.459   4.662   8.606
   39PVPG   H5R39149   3.552   4.629   8.560
   39PVPG   H5S39150   3.391   4.575   8.619
   39PVPG   C2639151   3.518   4.720   8.729
   39PVPG   H6R39152   3.597   4.790   8.700
   39PVPG   H6S39153   3.566   4.643   8.786
   39PVPG   C2739154   3.407   4.757   8.819
   39PVPG   H7R39155   3.368   4.659   8.834
   39PVPG   H7S39156   3.339   4.824   8.766
   39PVPG   C2839157   3.426   4.767   8.968
   39PVPG   H8R39158   3.508   4.827   8.982
   39PVPG   H8S39159   3.480   4.687   9.019
   39PVPG   C2939160   3.298   4.818   9.034
   39PVPG   H9R39161   3.223   4.743   9.016
   39PVPG   H9S39162   3.254   4.907   8.985
   39PVPG  C21039163   3.304   4.847   9.183
   39PVPG  H10R39164   3.229   4.919   9.221
   39PVPG  H10S39165   3.375   4.908   9.222
   39PVPG  C21139166   3.381   4.758   9.265
   39PVPG  H11139167   3.471   4.789   9.324
   39PVPG  C21239168   3.296   4.674   9.308
   39PVPG  H12139169   3.318   4.599   9.375
   39PVPG  C21339170   3.156   4.671   9.274
   39PVPG  H13R39171   3.113   4.574   9.297
   39PVPG  H13S39172   3.150   4.676   9.167
   39PVPG  C21439173   3.058   4.759   9.334
   39PVPG  H14R39174   2.970   4.727   9.281
   39PVPG  H14S39175   3.086   4.865   9.326
   39PVPG  C21539176   3.035   4.741   9.475
   39PVPG  H15R39177   2.981   4.822   9.526
   39PVPG  H15S39178   3.140   4.740   9.485
   39PVPG  C21639179   3.023   4.613   9.544
   39PVPG  H16R39180   3.060   4.528   9.495
   39PVPG  H16S39181   2.938   4.619   9.497
   39PVPG  C21739182   2.955   4.622   9.678
   39PVPG  H17R39183   2.860   4.666   9.690
   39PVPG  H17S39184   3.010   4.640   9.768
   39PVPG  C21839185   2.948   4.517   9.730
   39PVPG  H18R39186   2.865   4.474   9.671
   39PVPG  H18S39187   3.037   4.456   9.720
   39PVPG  H18T39188   2.913   4.515   9.836
   39PVPG   C3339189   2.862   4.745   8.783
   39PVPG   H3X39190   2.763   4.696   8.759
   39PVPG   H3Y39191   2.845   4.849   8.805
   39PVPG   C3439192   2.912   4.685   8.906
   39PVPG   H4X39193   3.020   4.701   8.935
   39PVPG   H4Y39194   2.899   4.573   8.906
   39PVPG   C3539195   2.828   4.743   9.004
   39PVPG   H5X39196   2.901   4.679   9.064
   39PVPG   H5Y39197   2.718   4.727   9.008
   39PVPG   C3639198   2.846   4.850   9.090
   39PVPG   H6X39199   2.835   4.919   9.005
   39PVPG   H6Y39200   2.946   4.836   9.134
   39PVPG   C3739201   2.742   4.858   9.199
   39PVPG   H7X39202   2.730   4.782   9.272
   39PVPG   H7Y39203   2.635   4.849   9.172
   39PVPG   C3839204   2.803   4.973   9.275
   39PVPG   H8X39205   2.773   5.066   9.222
   39PVPG   H8Y39206   2.910   4.966   9.302
   39PVPG   C3939207   2.752   4.981   9.408
   39PVPG   H9X39208   2.719   4.886   9.453
   39PVPG   H9Y39209   2.657   4.972   9.359
   39PVPG  C31039210   2.768   5.121   9.486
   39PVPG  H10X39211   2.696   5.146   9.567
   39PVPG  H10Y39212   2.739   5.196   9.410
   39PVPG  C31139213   2.896   5.141   9.570
   39PVPG  H11X39214   2.917   5.247   9.591
   39PVPG  H11Y39215   2.967   5.084   9.507
   39PVPG  C31239216   2.904   5.083   9.712
   39PVPG  H12X39217   2.933   4.977   9.694
   39PVPG  H12Y39218   2.810   5.100   9.771
   39PVPG  C31339219   3.017   5.103   9.804
   39PVPG  H13X39220   2.986   5.064   9.905
   39PVPG  H13Y39221   3.038   5.206   9.781
   39PVPG  C31439222   3.143   5.045   9.758
   39PVPG  H14X39223   3.135   5.061   9.653
   39PVPG  H14Y39224   3.092   4.958   9.771
   39PVPG  C31539225   3.267   5.058   9.851
   39PVPG  H15X39226   3.228   5.050   9.950
   39PVPG  H15Y39227   3.285   5.163   9.834
   39PVPG  C31639228   3.401   4.973   9.862
   39PVPG  H16X39229   3.389   4.868   9.841
   39PVPG  H16Y39230   3.477   4.997   9.790
   39PVPG  H16Z39231   3.481   4.995   9.930
   40PVPG   C1339232   3.836   2.292   7.800
   40PVPG  H13A39233   3.919   2.358   7.833
   40PVPG  H13B39234   3.811   2.318   7.696
   40PVPG   OC339235   3.720   2.319   7.878
   40PVPG   HO339236   3.676   2.233   7.886
   40PVPG   C1239237   3.878   2.142   7.809
   40PVPG  H12A39238   3.794   2.081   7.770
   40PVPG   OC239239   3.895   2.103   7.945
   40PVPG   HO239240   3.938   2.017   7.944
   40PVPG   C1139241   4.007   2.110   7.728
   40PVPG  H11A39242   3.986   2.119   7.619
   40PVPG  H11B39243   4.037   2.004   7.744
   40PVPG     P39244   4.244   2.160   7.834
   40PVPG   O1339245   4.357   2.180   7.741
   40PVPG   O1439246   4.225   2.023   7.888
   40PVPG   O1239247   4.110   2.204   7.760
   40PVPG   O1139248   4.256   2.265   7.954
   40PVPG    C139249   4.136   2.281   8.030
   40PVPG    HA39250   4.121   2.193   8.097
   40PVPG    HB39251   4.049   2.302   7.967
   40PVPG    C239252   4.140   2.398   8.125
   40PVPG    HS39253   4.145   2.491   8.062
   40PVPG   O2139254   4.258   2.374   8.204
   40PVPG   C2139255   4.271   2.477   8.280
   40PVPG   O2239256   4.200   2.577   8.272
   40PVPG   C2239257   4.394   2.453   8.370
   40PVPG   H2R39258   4.481   2.448   8.298
   40PVPG   H2S39259   4.392   2.363   8.431
   40PVPG    C339260   4.011   2.398   8.214
   40PVPG    HX39261   4.000   2.491   8.275
   40PVPG    HY39262   3.922   2.398   8.148
   40PVPG   O3139263   4.021   2.282   8.301
   40PVPG   C3139264   3.923   2.275   8.386
   40PVPG   O3239265   3.828   2.351   8.389
   40PVPG   C3239266   3.950   2.166   8.488
   40PVPG   H2X39267   4.052   2.187   8.527
   40PVPG   H2Y39268   3.945   2.066   8.440
   40PVPG   C2339269   4.432   2.554   8.473
   40PVPG   H3R39270   4.406   2.656   8.448
   40PVPG   H3S39271   4.541   2.532   8.487
   40PVPG   C2439272   4.377   2.584   8.606
   40PVPG   H4R39273   4.456   2.624   8.676
   40PVPG   H4S39274   4.353   2.485   8.638
   40PVPG   C2539275   4.264   2.692   8.586
   40PVPG   H5R39276   4.193   2.664   8.511
   40PVPG   H5S39277   4.301   2.796   8.561
   40PVPG   C2639278   4.178   2.697   8.705
   40PVPG   H6R39279   4.139   2.795   8.737
   40PVPG   H6S39280   4.276   2.708   8.732
   40PVPG   C2739281   4.149   2.567   8.780
   40PVPG   H7R39282   4.230   2.491   8.797
   40PVPG   H7S39283   4.079   2.529   8.705
   40PVPG   C2839284   4.078   2.591   8.911
   40PVPG   H8R39285   4.007   2.673   8.895
   40PVPG   H8S39286   4.139   2.623   8.995
   40PVPG   C2939287   4.013   2.464   8.960
   40PVPG   H9R39288   4.093   2.387   8.975
   40PVPG   H9S39289   3.946   2.433   8.876
   40PVPG  C21039290   3.930   2.484   9.084
   40PVPG  H10R39291   3.843   2.549   9.058
   40PVPG  H10S39292   3.974   2.518   9.179
   40PVPG  C21139293   3.877   2.349   9.099
   40PVPG  H11139294   3.812   2.325   9.015
   40PVPG  C21239295   3.900   2.253   9.189
   40PVPG  H12139296   3.829   2.182   9.215
   40PVPG  C21339297   3.978   2.235   9.303
   40PVPG  H13R39298   4.039   2.313   9.265
   40PVPG  H13S39299   4.040   2.147   9.294
   40PVPG  C21439300   3.927   2.225   9.451
   40PVPG  H14R39301   3.897   2.125   9.449
   40PVPG  H14S39302   3.843   2.295   9.471
   40PVPG  C21539303   4.024   2.181   9.569
   40PVPG  H15R39304   4.124   2.219   9.560
   40PVPG  H15S39305   4.067   2.082   9.558
   40PVPG  C21639306   4.001   2.205   9.717
   40PVPG  H16R39307   4.082   2.189   9.779
   40PVPG  H16S39308   3.938   2.147   9.774
   40PVPG  C21739309   3.985   2.328   9.785
   40PVPG  H17R39310   3.880   2.331   9.826
   40PVPG  H17S39311   3.909   2.365   9.697
   40PVPG  C21839312   4.155   2.500   9.853
   40PVPG  H18R39313   4.116   2.590   9.915
   40PVPG  H18S39314   4.183   2.410   9.870
   40PVPG  H18T39315   4.150   2.595   9.777
   40PVPG   C3339316   3.841   2.170   8.596
   40PVPG   H3X39317   3.746   2.144   8.544
   40PVPG   H3Y39318   3.831   2.274   8.636
   40PVPG   C3439319   3.859   2.074   8.714
   40PVPG   H4X39320   3.863   1.971   8.675
   40PVPG   H4Y39321   3.769   2.082   8.779
   40PVPG   C3539322   3.985   2.106   8.795
   40PVPG   H5X39323   3.969   2.203   8.847
   40PVPG   H5Y39324   4.073   2.118   8.728
   40PVPG   C3639325   4.023   2.001   8.896
   40PVPG   H6X39326   4.059   1.905   8.851
   40PVPG   H6Y39327   3.938   1.978   8.964
   40PVPG   C3739328   4.134   2.052   8.982
   40PVPG   H7X39329   4.089   2.124   9.053
   40PVPG   H7Y39330   4.216   2.106   8.927
   40PVPG   C3839331   4.185   1.941   9.066
   40PVPG   H8X39332   4.244   1.869   9.008
   40PVPG   H8Y39333   4.124   1.875   9.127
   40PVPG   C3939334   4.279   2.003   9.158
   40PVPG   H9X39335   4.348   2.006   9.070
   40PVPG   H9Y39336   4.323   1.919   9.220
   40PVPG  C31039337   4.276   2.159   9.212
   40PVPG  H10X39338   4.225   2.136   9.308
   40PVPG  H10Y39339   4.220   2.220   9.142
   40PVPG  C31139340   4.399   2.273   9.222
   40PVPG  H11X39341   4.466   2.287   9.136
   40PVPG  H11Y39342   4.501   2.260   9.255
   40PVPG  C31239343   4.412   2.371   9.330
   40PVPG  H12X39344   4.516   2.415   9.348
   40PVPG  H12Y39345   4.380   2.327   9.426
   40PVPG  C31339346   4.331   2.454   9.244
   40PVPG  H13X39347   4.231   2.412   9.223
   40PVPG  H13Y39348   4.380   2.467   9.144
   40PVPG  C31439349   4.334   2.576   9.312
   40PVPG  H14X39350   4.288   2.654   9.250
   40PVPG  H14Y39351   4.435   2.583   9.359
   40PVPG  C31539352   4.272   2.613   9.430
   40PVPG  H15X39353   4.302   2.551   9.520
   40PVPG  H15Y39354   4.166   2.620   9.386
   40PVPG  C31639355   4.265   2.729   9.486
   40PVPG  H16X39356   4.207   2.696   9.579
   40PVPG  H16Y39357   4.349   2.782   9.519
   40PVPG  H16Z39358   4.194   2.788   9.427
   41PVPG   C1339359   2.502   4.815   7.932
   41PVPG  H13A39360   2.545   4.759   8.018
   41PVPG  H13B39361   2.584   4.864   7.875
   41PVPG   OC339362   2.415   4.914   7.986
   41PVPG   HO339363   2.471   4.974   8.036
   41PVPG   C1239364   2.430   4.718   7.836
   41PVPG  H12A39365   2.505   4.647   7.795
   41PVPG   OC239366   2.379   4.791   7.725
   41PVPG   HO239367   2.317   4.727   7.683
   41PVPG   C1139368   2.322   4.638   7.914
   41PVPG  H11A39369   2.253   4.710   7.965
   41PVPG  H11B39370   2.378   4.582   7.992
   41PVPG     P39371   2.105   4.567   7.788
   41PVPG   O1339372   2.070   4.452   7.702
   41PVPG   O1439373   2.096   4.703   7.730
   41PVPG   O1239374   2.253   4.542   7.834
   41PVPG   O1139375   2.026   4.558   7.924
   41PVPG    C139376   2.006   4.433   7.989
   41PVPG    HA39377   2.095   4.366   7.982
   41PVPG    HB39378   1.918   4.383   7.943
   41PVPG    C239379   1.974   4.456   8.139
   41PVPG    HS39380   1.891   4.388   8.171
   41PVPG   O2139381   1.945   4.594   8.165
   41PVPG   C2139382   1.823   4.622   8.127
   41PVPG   O2239383   1.730   4.543   8.124
   41PVPG   C2239384   1.811   4.775   8.115
   41PVPG   H2R39385   1.715   4.794   8.061
   41PVPG   H2S39386   1.898   4.818   8.067
   41PVPG    C339387   2.097   4.421   8.222
   41PVPG    HX39388   2.134   4.320   8.192
   41PVPG    HY39389   2.175   4.497   8.203
   41PVPG   O3139390   2.066   4.430   8.360
   41PVPG   C3139391   2.066   4.322   8.427
   41PVPG   O3239392   2.060   4.206   8.387
   41PVPG   C3239393   2.058   4.363   8.569
   41PVPG   H2X39394   1.974   4.292   8.579
   41PVPG   H2Y39395   2.019   4.466   8.586
   41PVPG   C2339396   1.792   4.847   8.247
   41PVPG   H3R39397   1.726   4.766   8.271
   41PVPG   H3S39398   1.736   4.943   8.239
   41PVPG   C2439399   1.883   4.839   8.369
   41PVPG   H4R39400   1.905   4.735   8.400
   41PVPG   H4S39401   1.825   4.888   8.448
   41PVPG   C2539402   1.995   4.938   8.360
   41PVPG   H5R39403   1.979   4.980   8.259
   41PVPG   H5S39404   2.092   4.886   8.364
   41PVPG   C2639405   1.985   5.052   8.463
   41PVPG   H6R39406   1.880   5.069   8.496
   41PVPG   H6S39407   2.013   5.146   8.412
   41PVPG   C2739408   2.085   5.044   8.579
   41PVPG   H7R39409   2.069   5.137   8.640
   41PVPG   H7S39410   2.189   5.038   8.544
   41PVPG   C2839411   2.071   4.931   8.676
   41PVPG   H8R39412   2.150   4.937   8.754
   41PVPG   H8S39413   2.070   4.828   8.634
   41PVPG   C2939414   1.946   4.959   8.745
   41PVPG   H9R39415   1.856   4.941   8.682
   41PVPG   H9S39416   1.928   5.064   8.773
   41PVPG  C21039417   1.958   4.883   8.872
   41PVPG  H10R39418   1.945   4.774   8.865
   41PVPG  H10S39419   1.867   4.942   8.901
   41PVPG  C21139420   2.041   4.888   8.992
   41PVPG  H11139421   2.049   4.992   9.017
   41PVPG  C21239422   2.070   4.789   9.081
   41PVPG  H12139423   2.125   4.823   9.169
   41PVPG  C21339424   2.031   4.641   9.085
   41PVPG  H13R39425   2.095   4.587   9.158
   41PVPG  H13S39426   2.053   4.596   8.985
   41PVPG  C21439427   1.894   4.577   9.127
   41PVPG  H14R39428   1.892   4.474   9.137
   41PVPG  H14S39429   1.833   4.567   9.040
   41PVPG  C21539430   1.804   4.628   9.238
   41PVPG  H15R39431   1.699   4.595   9.240
   41PVPG  H15S39432   1.783   4.714   9.192
   41PVPG  C21639433   1.862   4.678   9.366
   41PVPG  H16R39434   1.781   4.723   9.429
   41PVPG  H16S39435   1.944   4.753   9.357
   41PVPG  C21739436   1.926   4.565   9.427
   41PVPG  H17R39437   1.999   4.523   9.353
   41PVPG  H17S39438   1.840   4.495   9.439
   41PVPG  C21839439   1.983   4.624   9.554
   41PVPG  H18R39440   2.015   4.555   9.631
   41PVPG  H18S39441   2.077   4.678   9.541
   41PVPG  H18T39442   1.900   4.676   9.607
   41PVPG   C3339443   2.192   4.341   8.644
   41PVPG   H3X39444   2.265   4.411   8.598
   41PVPG   H3Y39445   2.225   4.234   8.638
   41PVPG   C3439446   2.214   4.390   8.786
   41PVPG   H4X39447   2.172   4.490   8.807
   41PVPG   H4Y39448   2.314   4.367   8.831
   41PVPG   C3539449   2.162   4.299   8.877
   41PVPG   H5X39450   2.124   4.209   8.821
   41PVPG   H5Y39451   2.088   4.358   8.934
   41PVPG   C3639452   2.185   4.311   9.016
   41PVPG   H6X39453   2.117   4.237   9.052
   41PVPG   H6Y39454   2.161   4.400   9.083
   41PVPG   C3739455   2.240   4.200   9.061
   41PVPG   H7X39456   2.324   4.216   8.993
   41PVPG   H7Y39457   2.208   4.093   9.030
   41PVPG   C3839458   2.242   4.249   9.211
   41PVPG   H8X39459   2.235   4.155   9.258
   41PVPG   H8Y39460   2.183   4.234   9.300
   41PVPG   C3939461   2.343   4.354   9.233
   41PVPG   H9X39462   2.269   4.434   9.225
   41PVPG   H9Y39463   2.417   4.362   9.152
   41PVPG  C31039464   2.405   4.357   9.368
   41PVPG  H10X39465   2.497   4.293   9.375
   41PVPG  H10Y39466   2.333   4.333   9.448
   41PVPG  C31139467   2.455   4.484   9.406
   41PVPG  H11X39468   2.528   4.483   9.333
   41PVPG  H11Y39469   2.493   4.462   9.507
   41PVPG  C31239470   2.366   4.599   9.393
   41PVPG  H12X39471   2.294   4.576   9.474
   41PVPG  H12Y39472   2.318   4.597   9.293
   41PVPG  C31339473   2.442   4.728   9.410
   41PVPG  H13X39474   2.518   4.736   9.329
   41PVPG  H13Y39475   2.498   4.726   9.506
   41PVPG  C31439476   2.349   4.849   9.405
   41PVPG  H14X39477   2.298   4.861   9.504
   41PVPG  H14Y39478   2.279   4.844   9.321
   41PVPG  C31539479   2.424   4.975   9.386
   41PVPG  H15X39480   2.373   5.070   9.367
   41PVPG  H15Y39481   2.489   4.959   9.296
   41PVPG  C31639482   2.479   5.003   9.524
   41PVPG  H16X39483   2.563   5.044   9.487
   41PVPG  H16Y39484   2.496   5.105   9.561
   41PVPG  H16Z39485   2.527   4.916   9.571
   42PVPG   C1339486   4.005   6.070   7.638
   42PVPG  H13A39487   4.114   6.076   7.627
   42PVPG  H13B39488   3.976   5.973   7.589
   42PVPG   OC339489   3.948   6.182   7.569
   42PVPG   HO339490   3.956   6.259   7.628
   42PVPG   C1239491   3.963   6.062   7.788
   42PVPG  H12A39492   4.010   5.970   7.830
   42PVPG   OC239493   3.825   6.040   7.800
   42PVPG   HO239494   3.807   6.053   7.893
   42PVPG   C1139495   4.003   6.181   7.881
   42PVPG  H11A39496   4.114   6.189   7.875
   42PVPG  H11B39497   3.977   6.150   7.986
   42PVPG     P39498   3.990   6.433   7.936
   42PVPG   O1339499   3.947   6.560   7.873
   42PVPG   O1439500   4.135   6.416   7.961
   42PVPG   O1239501   3.938   6.307   7.852
   42PVPG   O1139502   3.912   6.413   8.072
   42PVPG    C139503   3.771   6.434   8.077
   42PVPG    HA39504   3.720   6.394   7.985
   42PVPG    HB39505   3.746   6.542   8.081
   42PVPG    C239506   3.721   6.373   8.210
   42PVPG    HS39507   3.610   6.373   8.206
   42PVPG   O2139508   3.765   6.447   8.322
   42PVPG   C2139509   3.715   6.565   8.344
   42PVPG   O2239510   3.628   6.620   8.280
   42PVPG   C2239511   3.775   6.617   8.476
   42PVPG   H2R39512   3.705   6.594   8.558
   42PVPG   H2S39513   3.783   6.727   8.465
   42PVPG    C339514   3.774   6.231   8.237
   42PVPG    HX39515   3.768   6.178   8.146
   42PVPG    HY39516   3.880   6.207   8.238
   42PVPG   O3139517   3.699   6.165   8.340
   42PVPG   C3139518   3.768   6.154   8.450
   42PVPG   O3239519   3.882   6.194   8.465
   42PVPG   C3239520   3.688   6.071   8.551
   42PVPG   H2X39521   3.628   5.997   8.493
   42PVPG   H2Y39522   3.622   6.135   8.612
   42PVPG   C2339523   3.914   6.557   8.510
   42PVPG   H3R39524   3.989   6.593   8.436
   42PVPG   H3S39525   3.910   6.446   8.500
   42PVPG   C2439526   3.957   6.585   8.655
   42PVPG   H4R39527   3.879   6.539   8.721
   42PVPG   H4S39528   3.961   6.693   8.677
   42PVPG   C2539529   4.090   6.520   8.694
   42PVPG   H5R39530   4.177   6.571   8.644
   42PVPG   H5S39531   4.086   6.414   8.659
   42PVPG   C2639532   4.113   6.521   8.844
   42PVPG   H6R39533   4.021   6.485   8.895
   42PVPG   H6S39534   4.132   6.625   8.880
   42PVPG   C2739535   4.229   6.433   8.890
   42PVPG   H7R39536   4.208   6.431   8.997
   42PVPG   H7S39537   4.325   6.488   8.873
   42PVPG   C2839538   4.237   6.289   8.835
   42PVPG   H8R39539   4.302   6.290   8.744
   42PVPG   H8S39540   4.135   6.256   8.810
   42PVPG   C2939541   4.289   6.174   8.922
   42PVPG   H9R39542   4.290   6.074   8.873
   42PVPG   H9S39543   4.243   6.165   9.022
   42PVPG  C21039544   4.432   6.190   8.933
   42PVPG  H10R39545   4.463   6.296   8.940
   42PVPG  H10S39546   4.472   6.201   8.827
   42PVPG  C21139547   4.492   6.089   9.038
   42PVPG  H11139548   4.551   6.030   8.967
   42PVPG  C21239549   4.521   6.091   9.178
   42PVPG  H12139550   4.611   6.048   9.221
   42PVPG  C21339551   4.510   6.187   9.301
   42PVPG  H13R39552   4.473   6.292   9.319
   42PVPG  H13S39553   4.594   6.228   9.362
   42PVPG  C21439554   4.378   6.139   9.317
   42PVPG  H14R39555   4.309   6.086   9.249
   42PVPG  H14S39556   4.304   6.201   9.271
   42PVPG  C21539557   4.402   6.082   9.448
   42PVPG  H15R39558   4.476   6.127   9.518
   42PVPG  H15S39559   4.436   5.982   9.413
   42PVPG  C21639560   4.280   6.072   9.514
   42PVPG  H16R39561   4.240   6.020   9.427
   42PVPG  H16S39562   4.211   6.159   9.522
   42PVPG  C21739563   4.314   5.996   9.638
   42PVPG  H17R39564   4.371   6.046   9.719
   42PVPG  H17S39565   4.332   5.887   9.618
   42PVPG  C21839566   4.203   6.000   9.721
   42PVPG  H18R39567   4.141   5.974   9.640
   42PVPG  H18S39568   4.193   5.917   9.793
   42PVPG  H18T39569   4.138   6.086   9.733
   42PVPG   C3339570   3.783   5.999   8.647
   42PVPG   H3X39571   3.865   5.952   8.590
   42PVPG   H3Y39572   3.723   5.921   8.700
   42PVPG   C3439573   3.835   6.089   8.759
   42PVPG   H4X39574   3.746   6.114   8.821
   42PVPG   H4Y39575   3.875   6.183   8.715
   42PVPG   C3539576   3.944   6.025   8.845
   42PVPG   H5X39577   3.980   6.099   8.919
   42PVPG   H5Y39578   4.030   6.001   8.779
   42PVPG   C3639579   3.901   5.898   8.920
   42PVPG   H6X39580   3.988   5.866   8.981
   42PVPG   H6Y39581   3.879   5.817   8.850
   42PVPG   C3739582   3.772   5.904   9.002
   42PVPG   H7X39583   3.747   5.803   9.042
   42PVPG   H7Y39584   3.689   5.930   8.933
   42PVPG   C3839585   3.770   6.009   9.111
   42PVPG   H8X39586   3.672   6.008   9.164
   42PVPG   H8Y39587   3.790   6.109   9.068
   42PVPG   C3939588   3.867   5.992   9.222
   42PVPG   H9X39589   3.969   5.968   9.180
   42PVPG   H9Y39590   3.839   5.901   9.280
   42PVPG  C31039591   3.862   6.113   9.320
   42PVPG  H10X39592   3.895   6.091   9.421
   42PVPG  H10Y39593   3.762   6.137   9.357
   42PVPG  C31139594   3.965   6.222   9.299
   42PVPG  H11X39595   4.056   6.176   9.252
   42PVPG  H11Y39596   3.997   6.259   9.400
   42PVPG  C31239597   3.917   6.337   9.213
   42PVPG  H12X39598   3.882   6.291   9.118
   42PVPG  H12Y39599   4.003   6.404   9.191
   42PVPG  C31339600   3.804   6.421   9.272
   42PVPG  H13X39601   3.719   6.354   9.298
   42PVPG  H13Y39602   3.770   6.495   9.195
   42PVPG  C31439603   3.851   6.502   9.393
   42PVPG  H14X39604   3.931   6.569   9.352
   42PVPG  H14Y39605   3.892   6.435   9.471
   42PVPG  C31539606   3.746   6.595   9.454
   42PVPG  H15X39607   3.659   6.596   9.385
   42PVPG  H15Y39608   3.794   6.695   9.456
   42PVPG  C31639609   3.698   6.560   9.595
   42PVPG  H16X39610   3.769   6.599   9.671
   42PVPG  H16Y39611   3.598   6.604   9.614
   42PVPG  H16Z39612   3.690   6.450   9.605
   43PVPG   C1339613   4.957   1.694   7.635
   43PVPG  H13A39614   4.967   1.771   7.555
   43PVPG  H13B39615   5.027   1.718   7.717
   43PVPG   OC339616   4.989   1.565   7.583
   43PVPG   HO339617   4.935   1.503   7.632
   43PVPG   C1239618   4.813   1.699   7.688
   43PVPG  H12A39619   4.743   1.668   7.607
   43PVPG   OC239620   4.778   1.832   7.725
   43PVPG   HO239621   4.694   1.818   7.771
   43PVPG   C1139622   4.791   1.604   7.806
   43PVPG  H11A39623   4.859   1.634   7.890
   43PVPG  H11B39624   4.818   1.500   7.780
   43PVPG     P39625   4.613   1.601   7.989
   43PVPG   O1339626   4.467   1.615   8.001
   43PVPG   O1439627   4.701   1.691   8.066
   43PVPG   O1239628   4.653   1.605   7.838
   43PVPG   O1139629   4.661   1.449   8.004
   43PVPG    C139630   4.572   1.339   8.018
   43PVPG    HA39631   4.615   1.249   7.973
   43PVPG    HB39632   4.468   1.355   7.976
   43PVPG    C239633   4.552   1.320   8.164
   43PVPG    HS39634   4.482   1.241   8.179
   43PVPG   O2139635   4.500   1.450   8.197
   43PVPG   C2139636   4.479   1.479   8.317
   43PVPG   O2239637   4.523   1.418   8.406
   43PVPG   C2239638   4.396   1.584   8.375
   43PVPG   H2R39639   4.287   1.588   8.355
   43PVPG   H2S39640   4.469   1.662   8.394
   43PVPG    C339641   4.676   1.275   8.240
   43PVPG    HX39642   4.644   1.216   8.332
   43PVPG    HY39643   4.736   1.206   8.175
   43PVPG   O3139644   4.746   1.395   8.266
   43PVPG   C3139645   4.838   1.364   8.348
   43PVPG   O3239646   4.853   1.249   8.391
   43PVPG   C3239647   4.917   1.493   8.377
   43PVPG   H2X39648   4.876   1.576   8.316
   43PVPG   H2Y39649   5.023   1.493   8.346
   43PVPG   C2339650   4.369   1.545   8.520
   43PVPG   H3R39651   4.452   1.504   8.586
   43PVPG   H3S39652   4.300   1.459   8.495
   43PVPG   C2439653   4.304   1.656   8.605
   43PVPG   H4R39654   4.230   1.627   8.677
   43PVPG   H4S39655   4.231   1.717   8.553
   43PVPG   C2539656   4.403   1.708   8.708
   43PVPG   H5R39657   4.482   1.747   8.646
   43PVPG   H5S39658   4.457   1.629   8.765
   43PVPG   C2639659   4.341   1.805   8.807
   43PVPG   H6R39660   4.269   1.754   8.875
   43PVPG   H6S39661   4.269   1.871   8.756
   43PVPG   C2739662   4.455   1.888   8.874
   43PVPG   H7R39663   4.412   1.990   8.882
   43PVPG   H7S39664   4.540   1.893   8.804
   43PVPG   C2839665   4.517   1.838   9.007
   43PVPG   H8R39666   4.559   1.736   8.991
   43PVPG   H8S39667   4.434   1.820   9.077
   43PVPG   C2939668   4.630   1.922   9.079
   43PVPG   H9R39669   4.717   1.923   9.013
   43PVPG   H9S39670   4.660   1.868   9.173
   43PVPG  C21039671   4.614   2.070   9.103
   43PVPG  H10R39672   4.567   2.119   9.007
   43PVPG  H10S39673   4.683   2.144   9.142
   43PVPG  C21139674   4.529   2.043   9.219
   43PVPG  H11139675   4.471   2.092   9.149
   43PVPG  C21239676   4.504   2.058   9.354
   43PVPG  H12139677   4.401   2.092   9.393
   43PVPG  C21339678   4.597   2.142   9.427
   43PVPG  H13R39679   4.600   2.252   9.418
   43PVPG  H13S39680   4.692   2.110   9.385
   43PVPG  C21439681   4.564   2.122   9.569
   43PVPG  H14R39682   4.458   2.143   9.599
   43PVPG  H14S39683   4.629   2.198   9.618
   43PVPG  C21539684   4.614   1.982   9.597
   43PVPG  H15R39685   4.643   1.990   9.702
   43PVPG  H15S39686   4.705   1.964   9.535
   43PVPG  C21639687   4.516   1.869   9.571
   43PVPG  H16R39688   4.566   1.776   9.602
   43PVPG  H16S39689   4.487   1.848   9.465
   43PVPG  C21739690   4.392   1.896   9.652
   43PVPG  H17R39691   4.336   1.989   9.632
   43PVPG  H17S39692   4.414   1.897   9.759
   43PVPG  C21839693   4.298   1.789   9.630
   43PVPG  H18R39694   4.348   1.701   9.605
   43PVPG  H18S39695   4.251   1.756   9.724
   43PVPG  H18T39696   4.228   1.808   9.545
   43PVPG   C3339697   4.905   1.515   8.527
   43PVPG   H3X39698   4.961   1.606   8.555
   43PVPG   H3Y39699   4.954   1.429   8.577
   43PVPG   C3439700   4.760   1.535   8.574
   43PVPG   H4X39701   4.697   1.446   8.552
   43PVPG   H4Y39702   4.711   1.619   8.518
   43PVPG   C3539703   4.754   1.563   8.723
   43PVPG   H5X39704   4.651   1.589   8.756
   43PVPG   H5Y39705   4.815   1.652   8.750
   43PVPG   C3639706   4.805   1.448   8.806
   43PVPG   H6X39707   4.909   1.420   8.776
   43PVPG   H6Y39708   4.745   1.355   8.795
   43PVPG   C3739709   4.789   1.498   8.947
   43PVPG   H7X39710   4.684   1.492   8.982
   43PVPG   H7Y39711   4.844   1.593   8.968
   43PVPG   C3839712   4.849   1.414   9.045
   43PVPG   H8X39713   4.953   1.422   9.008
   43PVPG   H8Y39714   4.806   1.311   9.042
   43PVPG   C3939715   4.849   1.472   9.186
   43PVPG   H9X39716   4.926   1.547   9.203
   43PVPG   H9Y39717   4.875   1.402   9.266
   43PVPG  C31039718   4.720   1.450   9.245
   43PVPG  H10X39719   4.686   1.354   9.197
   43PVPG  H10Y39720   4.671   1.540   9.210
   43PVPG  C31139721   4.706   1.436   9.396
   43PVPG  H11X39722   4.717   1.334   9.427
   43PVPG  H11Y39723   4.602   1.436   9.431
   43PVPG  C31239724   4.794   1.528   9.475
   43PVPG  H12X39725   4.788   1.629   9.431
   43PVPG  H12Y39726   4.899   1.492   9.468
   43PVPG  C31339727   4.748   1.519   9.619
   43PVPG  H13X39728   4.732   1.412   9.645
   43PVPG  H13Y39729   4.649   1.568   9.626
   43PVPG  C31439730   4.849   1.567   9.720
   43PVPG  H14X39731   4.879   1.671   9.691
   43PVPG  H14Y39732   4.937   1.500   9.723
   43PVPG  C31539733   4.789   1.555   9.857
   43PVPG  H15X39734   4.858   1.592   9.937
   43PVPG  H15Y39735   4.743   1.458   9.884
   43PVPG  C31639736   4.671   1.636   9.861
   43PVPG  H16X39737   4.662   1.649   9.973
   43PVPG  H16Y39738   4.699   1.728   9.801
   43PVPG  H16Z39739   4.567   1.615   9.830
   44PVPG   C1339740   1.423   4.978   7.577
   44PVPG  H13A39741   1.432   4.883   7.521
   44PVPG  H13B39742   1.321   4.996   7.614
   44PVPG   OC339743   1.450   5.085   7.487
   44PVPG   HO339744   1.379   5.149   7.500
   44PVPG   C1239745   1.514   4.970   7.703
   44PVPG  H12A39746   1.622   4.963   7.673
   44PVPG   OC239747   1.482   4.850   7.774
   44PVPG   HO239748   1.529   4.863   7.860
   44PVPG   C1139749   1.496   5.093   7.794
   44PVPG  H11A39750   1.388   5.107   7.820
   44PVPG  H11B39751   1.529   5.183   7.736
   44PVPG     P39752   1.572   5.202   8.013
   44PVPG   O1339753   1.600   5.323   7.932
   44PVPG   O1439754   1.661   5.165   8.125
   44PVPG   O1239755   1.571   5.076   7.914
   44PVPG   O1139756   1.419   5.213   8.058
   44PVPG    C139757   1.350   5.106   8.123
   44PVPG    HA39758   1.407   5.011   8.116
   44PVPG    HB39759   1.253   5.087   8.072
   44PVPG    C239760   1.316   5.135   8.272
   44PVPG    HS39761   1.231   5.207   8.272
   44PVPG   O2139762   1.428   5.191   8.345
   44PVPG   C2139763   1.393   5.253   8.457
   44PVPG   O2239764   1.278   5.266   8.496
   44PVPG   C2239765   1.516   5.310   8.529
   44PVPG   H2R39766   1.529   5.414   8.493
   44PVPG   H2S39767   1.606   5.250   8.501
   44PVPG    C339768   1.268   5.004   8.339
   44PVPG    HX39769   1.250   5.016   8.448
   44PVPG    HY39770   1.173   4.973   8.290
   44PVPG   O3139771   1.357   4.898   8.315
   44PVPG   C3139772   1.444   4.884   8.406
   44PVPG   O3239773   1.465   4.949   8.507
   44PVPG   C3239774   1.531   4.788   8.353
   44PVPG   H2X39775   1.621   4.836   8.399
   44PVPG   H2Y39776   1.531   4.778   8.241
   44PVPG   C2339777   1.504   5.315   8.683
   44PVPG   H3R39778   1.408   5.361   8.712
   44PVPG   H3S39779   1.587   5.382   8.716
   44PVPG   C2439780   1.521   5.175   8.746
   44PVPG   H4R39781   1.610   5.129   8.700
   44PVPG   H4S39782   1.433   5.111   8.720
   44PVPG   C2539783   1.525   5.165   8.899
   44PVPG   H5R39784   1.537   5.059   8.923
   44PVPG   H5S39785   1.426   5.193   8.938
   44PVPG   C2639786   1.629   5.250   8.973
   44PVPG   H6R39787   1.622   5.229   9.081
   44PVPG   H6S39788   1.598   5.356   8.959
   44PVPG   C2739789   1.775   5.231   8.929
   44PVPG   H7R39790   1.792   5.295   8.840
   44PVPG   H7S39791   1.793   5.127   8.898
   44PVPG   C2839792   1.876   5.247   9.043
   44PVPG   H8R39793   1.869   5.166   9.113
   44PVPG   H8S39794   1.857   5.340   9.101
   44PVPG   C2939795   2.022   5.228   9.004
   44PVPG   H9R39796   2.042   5.303   8.935
   44PVPG   H9S39797   2.045   5.151   8.930
   44PVPG  C21039798   2.124   5.251   9.115
   44PVPG  H10R39799   2.105   5.346   9.166
   44PVPG  H10S39800   2.224   5.262   9.067
   44PVPG  C21139801   2.119   5.157   9.224
   44PVPG  H11139802   2.160   5.062   9.193
   44PVPG  C21239803   2.061   5.181   9.343
   44PVPG  H12139804   2.059   5.099   9.413
   44PVPG  C21339805   1.988   5.306   9.389
   44PVPG  H13R39806   1.931   5.359   9.309
   44PVPG  H13S39807   2.054   5.382   9.439
   44PVPG  C21439808   1.886   5.256   9.492
   44PVPG  H14R39809   1.940   5.187   9.561
   44PVPG  H14S39810   1.804   5.200   9.442
   44PVPG  C21539811   1.830   5.366   9.579
   44PVPG  H15R39812   1.916   5.411   9.634
   44PVPG  H15S39813   1.760   5.324   9.655
   44PVPG  C21639814   1.759   5.476   9.502
   44PVPG  H16R39815   1.661   5.438   9.462
   44PVPG  H16S39816   1.818   5.510   9.414
   44PVPG  C21739817   1.742   5.597   9.590
   44PVPG  H17R39818   1.713   5.677   9.517
   44PVPG  H17S39819   1.831   5.634   9.643
   44PVPG  C21839820   1.639   5.566   9.696
   44PVPG  H18R39821   1.561   5.526   9.630
   44PVPG  H18S39822   1.660   5.503   9.779
   44PVPG  H18T39823   1.604   5.646   9.763
   44PVPG   C3339824   1.540   4.652   8.408
   44PVPG   H3X39825   1.616   4.597   8.348
   44PVPG   H3Y39826   1.443   4.599   8.399
   44PVPG   C3439827   1.593   4.659   8.546
   44PVPG   H4X39828   1.608   4.551   8.559
   44PVPG   H4Y39829   1.524   4.716   8.612
   44PVPG   C3539830   1.730   4.694   8.583
   44PVPG   H5X39831   1.735   4.798   8.562
   44PVPG   H5Y39832   1.803   4.623   8.535
   44PVPG   C3639833   1.771   4.740   8.720
   44PVPG   H6X39834   1.880   4.720   8.705
   44PVPG   H6Y39835   1.789   4.685   8.801
   44PVPG   C3739836   1.685   4.811   8.837
   44PVPG   H7X39837   1.587   4.772   8.871
   44PVPG   H7Y39838   1.678   4.908   8.796
   44PVPG   C3839839   1.728   4.794   8.987
   44PVPG   H8X39840   1.816   4.834   9.033
   44PVPG   H8Y39841   1.804   4.724   8.984
   44PVPG   C3939842   1.680   4.884   9.095
   44PVPG   H9X39843   1.606   4.813   9.138
   44PVPG   H9Y39844   1.646   4.969   9.038
   44PVPG  C31039845   1.777   4.937   9.207
   44PVPG  H10X39846   1.858   5.002   9.178
   44PVPG  H10Y39847   1.851   4.871   9.249
   44PVPG  C31139848   1.688   4.960   9.322
   44PVPG  H11X39849   1.748   4.976   9.414
   44PVPG  H11Y39850   1.620   4.872   9.335
   44PVPG  C31239851   1.604   5.074   9.278
   44PVPG  H12X39852   1.546   5.054   9.186
   44PVPG  H12Y39853   1.675   5.158   9.261
   44PVPG  C31339854   1.504   5.111   9.380
   44PVPG  H13X39855   1.580   5.130   9.455
   44PVPG  H13Y39856   1.436   5.029   9.411
   44PVPG  C31439857   1.428   5.229   9.325
   44PVPG  H14X39858   1.390   5.195   9.228
   44PVPG  H14Y39859   1.491   5.319   9.307
   44PVPG  C31539860   1.309   5.270   9.403
   44PVPG  H15X39861   1.231   5.193   9.419
   44PVPG  H15Y39862   1.266   5.361   9.360
   44PVPG  C31639863   1.358   5.302   9.531
   44PVPG  H16X39864   1.384   5.226   9.594
   44PVPG  H16Y39865   1.439   5.375   9.544
   44PVPG  H16Z39866   1.269   5.328   9.584
   45PVPG   C1339867   3.955   1.144   7.626
   45PVPG  H13A39868   3.859   1.094   7.646
   45PVPG  H13B39869   3.969   1.155   7.517
   45PVPG   OC339870   4.060   1.062   7.679
   45PVPG   HO339871   4.039   1.049   7.771
   45PVPG   C1239872   3.942   1.285   7.689
   45PVPG  H12A39873   3.861   1.340   7.638
   45PVPG   OC239874   4.058   1.360   7.659
   45PVPG   HO239875   4.065   1.427   7.732
   45PVPG   C1139876   3.903   1.282   7.840
   45PVPG  H11A39877   3.967   1.208   7.894
   45PVPG  H11B39878   3.801   1.239   7.843
   45PVPG     P39879   4.027   1.472   7.974
   45PVPG   O1339880   3.984   1.587   8.057
   45PVPG   O1439881   4.125   1.494   7.867
   45PVPG   O1239882   3.899   1.412   7.901
   45PVPG   O1139883   4.067   1.349   8.065
   45PVPG    C139884   3.981   1.310   8.171
   45PVPG    HA39885   3.982   1.200   8.173
   45PVPG    HB39886   3.876   1.344   8.155
   45PVPG    C239887   4.026   1.358   8.313
   45PVPG    HS39888   4.053   1.467   8.301
   45PVPG   O2139889   4.133   1.278   8.365
   45PVPG   C2139890   4.248   1.309   8.318
   45PVPG   O2239891   4.260   1.389   8.227
   45PVPG   C2239892   4.363   1.227   8.410
   45PVPG   H2R39893   4.450   1.193   8.356
   45PVPG   H2S39894   4.305   1.161   8.465
   45PVPG    C339895   3.920   1.345   8.422
   45PVPG    HX39896   3.972   1.369   8.520
   45PVPG    HY39897   3.841   1.420   8.406
   45PVPG   O3139898   3.862   1.213   8.418
   45PVPG   C3139899   3.875   1.138   8.526
   45PVPG   O3239900   3.935   1.166   8.628
   45PVPG   C3239901   3.796   1.009   8.504
   45PVPG   H2X39902   3.855   0.936   8.445
   45PVPG   H2Y39903   3.707   1.028   8.445
   45PVPG   C2339904   4.439   1.236   8.553
   45PVPG   H3R39905   4.531   1.296   8.564
   45PVPG   H3S39906   4.510   1.147   8.556
   45PVPG   C2439907   4.332   1.259   8.664
   45PVPG   H4R39908   4.387   1.221   8.751
   45PVPG   H4S39909   4.241   1.208   8.632
   45PVPG   C2539910   4.267   1.395   8.704
   45PVPG   H5R39911   4.193   1.442   8.631
   45PVPG   H5S39912   4.357   1.452   8.736
   45PVPG   C2639913   4.169   1.434   8.805
   45PVPG   H6R39914   4.084   1.373   8.767
   45PVPG   H6S39915   4.132   1.541   8.803
   45PVPG   C2739916   4.248   1.414   8.929
   45PVPG   H7R39917   4.292   1.313   8.927
   45PVPG   H7S39918   4.163   1.436   8.994
   45PVPG   C2839919   4.365   1.508   8.962
   45PVPG   H8R39920   4.340   1.592   8.903
   45PVPG   H8S39921   4.468   1.480   8.929
   45PVPG   C2939922   4.352   1.575   9.094
   45PVPG   H9R39923   4.269   1.650   9.081
   45PVPG   H9S39924   4.443   1.631   9.119
   45PVPG  C21039925   4.312   1.478   9.201
   45PVPG  H10R39926   4.233   1.409   9.170
   45PVPG  H10S39927   4.274   1.545   9.279
   45PVPG  C21139928   4.434   1.408   9.242
   45PVPG  H11139929   4.507   1.480   9.267
   45PVPG  C21239930   4.467   1.282   9.256
   45PVPG  H12139931   4.563   1.242   9.294
   45PVPG  C21339932   4.376   1.180   9.229
   45PVPG  H13R39933   4.421   1.113   9.157
   45PVPG  H13S39934   4.276   1.211   9.187
   45PVPG  C21439935   4.389   1.144   9.381
   45PVPG  H14R39936   4.296   1.114   9.337
   45PVPG  H14S39937   4.329   1.199   9.454
   45PVPG  C21539938   4.498   1.033   9.443
   45PVPG  H15R39939   4.575   1.090   9.486
   45PVPG  H15S39940   4.548   0.960   9.377
   45PVPG  C21639941   4.465   0.916   9.538
   45PVPG  H16R39942   4.397   0.829   9.507
   45PVPG  H16S39943   4.434   0.978   9.627
   45PVPG  C21739944   4.550   0.842   9.613
   45PVPG  H17R39945   4.632   0.908   9.638
   45PVPG  H17S39946   4.561   0.743   9.557
   45PVPG  C21839947   4.471   0.822   9.735
   45PVPG  H18R39948   4.524   0.729   9.747
   45PVPG  H18S39949   4.466   0.873   9.833
   45PVPG  H18T39950   4.364   0.800   9.718
   45PVPG   C3339951   3.743   0.956   8.637
   45PVPG   H3X39952   3.649   0.902   8.620
   45PVPG   H3Y39953   3.731   1.035   8.714
   45PVPG   C3439954   3.837   0.859   8.692
   45PVPG   H4X39955   3.926   0.923   8.689
   45PVPG   H4Y39956   3.854   0.779   8.620
   45PVPG   C3539957   3.808   0.808   8.830
   45PVPG   H5X39958   3.864   0.720   8.873
   45PVPG   H5Y39959   3.707   0.767   8.828
   45PVPG   C3639960   3.797   0.918   8.929
   45PVPG   H6X39961   3.818   0.851   9.013
   45PVPG   H6Y39962   3.696   0.954   8.914
   45PVPG   C3739963   3.862   1.054   8.948
   45PVPG   H7X39964   3.907   1.088   8.855
   45PVPG   H7Y39965   3.945   1.035   8.995
   45PVPG   C3839966   3.893   1.124   9.084
   45PVPG   H8X39967   3.998   1.163   9.103
   45PVPG   H8Y39968   3.883   1.067   9.178
   45PVPG   C3939969   3.795   1.227   9.058
   45PVPG   H9X39970   3.704   1.171   9.020
   45PVPG   H9Y39971   3.837   1.285   8.974
   45PVPG  C31039972   3.764   1.303   9.184
   45PVPG  H10X39973   3.731   1.248   9.275
   45PVPG  H10Y39974   3.679   1.367   9.158
   45PVPG  C31139975   3.887   1.362   9.245
   45PVPG  H11X39976   3.948   1.406   9.163
   45PVPG  H11Y39977   3.948   1.283   9.296
   45PVPG  C31239978   3.841   1.465   9.345
   45PVPG  H12X39979   3.793   1.416   9.432
   45PVPG  H12Y39980   3.764   1.527   9.293
   45PVPG  C31339981   3.960   1.548   9.389
   45PVPG  H13X39982   3.926   1.632   9.452
   45PVPG  H13Y39983   4.007   1.589   9.297
   45PVPG  C31439984   4.065   1.464   9.465
   45PVPG  H14X39985   4.113   1.392   9.395
   45PVPG  H14Y39986   4.017   1.412   9.550
   45PVPG  C31539987   4.178   1.548   9.521
   45PVPG  H15X39988   4.128   1.598   9.603
   45PVPG  H15Y39989   4.204   1.628   9.448
   45PVPG  C31639990   4.298   1.474   9.585
   45PVPG  H16X39991   4.340   1.400   9.516
   45PVPG  H16Y39992   4.389   1.532   9.610
   45PVPG  H16Z39993   4.266   1.432   9.682
   46PVPG   C1339994   2.269   6.246   7.810
   46PVPG  H13A39995   2.253   6.353   7.836
   46PVPG  H13B39996   2.250   6.230   7.702
   46PVPG   OC339997   2.176   6.168   7.883
   46PVPG   HO339998   2.167   6.211   7.968
   46PVPG   C1239999   2.414   6.201   7.840
   46PVPG  H12A40000   2.418   6.096   7.812
   46PVPG   OC240001   2.446   6.202   7.979
   46PVPG   HO240002   2.539   6.178   7.983
   46PVPG   C1140003   2.515   6.287   7.764
   46PVPG  H11A40004   2.486   6.308   7.658
   46PVPG  H11B40005   2.615   6.239   7.765
   46PVPG     P40006   2.556   6.550   7.812
   46PVPG   O1340007   2.436   6.634   7.831
   46PVPG   O1440008   2.629   6.553   7.684
   46PVPG   O1240009   2.517   6.405   7.841
   46PVPG   O1140010   2.653   6.571   7.936
   46PVPG    C140011   2.784   6.513   7.934
   46PVPG    HA40012   2.849   6.574   7.875
   46PVPG    HB40013   2.785   6.414   7.884
   46PVPG    C240014   2.860   6.503   8.070
   46PVPG    HS40015   2.959   6.457   8.052
   46PVPG   O2140016   2.782   6.446   8.172
   46PVPG   C2140017   2.761   6.322   8.153
   46PVPG   O2240018   2.804   6.253   8.061
   46PVPG   C2240019   2.687   6.270   8.277
   46PVPG   H2R40020   2.760   6.199   8.320
   46PVPG   H2S40021   2.596   6.216   8.244
   46PVPG    C340022   2.905   6.629   8.133
   46PVPG    HX40023   2.972   6.681   8.060
   46PVPG    HY40024   2.808   6.677   8.150
   46PVPG   O3140025   2.961   6.620   8.261
   46PVPG   C3140026   2.873   6.641   8.357
   46PVPG   O3240027   2.754   6.667   8.351
   46PVPG   C3240028   2.947   6.638   8.475
   46PVPG   H2X40029   3.058   6.644   8.453
   46PVPG   H2Y40030   2.925   6.543   8.526
   46PVPG   C2340031   2.651   6.368   8.392
   46PVPG   H3R40032   2.733   6.438   8.413
   46PVPG   H3S40033   2.641   6.304   8.483
   46PVPG   C2440034   2.516   6.441   8.375
   46PVPG   H4R40035   2.436   6.365   8.368
   46PVPG   H4S40036   2.514   6.501   8.281
   46PVPG   C2540037   2.480   6.533   8.492
   46PVPG   H5R40038   2.529   6.633   8.481
   46PVPG   H5S40039   2.520   6.487   8.585
   46PVPG   C2640040   2.329   6.549   8.514
   46PVPG   H6R40041   2.286   6.447   8.506
   46PVPG   H6S40042   2.282   6.609   8.432
   46PVPG   C2740043   2.299   6.609   8.653
   46PVPG   H7R40044   2.332   6.715   8.655
   46PVPG   H7S40045   2.362   6.552   8.725
   46PVPG   C2840046   2.152   6.593   8.697
   46PVPG   H8R40047   2.135   6.484   8.710
   46PVPG   H8S40048   2.091   6.630   8.612
   46PVPG   C2940049   2.108   6.660   8.830
   46PVPG   H9R40050   1.997   6.653   8.840
   46PVPG   H9S40051   2.133   6.768   8.826
   46PVPG  C21040052   2.164   6.592   8.957
   46PVPG  H10R40053   2.275   6.597   8.949
   46PVPG  H10S40054   2.137   6.485   8.956
   46PVPG  C21140055   2.110   6.646   9.085
   46PVPG  H11140056   2.005   6.632   9.114
   46PVPG  C21240057   2.186   6.700   9.175
   46PVPG  H12140058   2.139   6.738   9.266
   46PVPG  C21340059   2.332   6.713   9.163
   46PVPG  H13R40060   2.358   6.823   9.152
   46PVPG  H13S40061   2.393   6.663   9.080
   46PVPG  C21440062   2.353   6.629   9.303
   46PVPG  H14R40063   2.452   6.678   9.264
   46PVPG  H14S40064   2.422   6.549   9.318
   46PVPG  C21540065   2.288   6.665   9.477
   46PVPG  H15R40066   2.177   6.676   9.467
   46PVPG  H15S40067   2.232   6.758   9.427
   46PVPG  C21640068   2.415   6.739   9.637
   46PVPG  H16R40069   2.476   6.668   9.688
   46PVPG  H16S40070   2.368   6.827   9.683
   46PVPG  C21740071   2.593   6.835   9.659
   46PVPG  H17R40072   2.620   6.940   9.680
   46PVPG  H17S40073   2.642   6.911   9.585
   46PVPG  C21840074   2.737   6.784   9.659
   46PVPG  H18R40075   2.834   6.832   9.625
   46PVPG  H18S40076   2.716   6.682   9.685
   46PVPG  H18T40077   2.757   6.781   9.552
   46PVPG   C3340078   2.879   6.761   8.534
   46PVPG   H3X40079   2.897   6.871   8.526
   46PVPG   H3Y40080   2.985   6.797   8.536
   46PVPG   C3440081   2.760   6.735   8.643
   46PVPG   H4X40082   2.669   6.772   8.594
   46PVPG   H4Y40083   2.771   6.815   8.717
   46PVPG   C3540084   2.720   6.592   8.714
   46PVPG   H5X40085   2.788   6.529   8.777
   46PVPG   H5Y40086   2.726   6.516   8.636
   46PVPG   C3640087   2.624   6.586   8.835
   46PVPG   H6X40088   2.548   6.654   8.801
   46PVPG   H6Y40089   2.640   6.628   8.937
   46PVPG   C3740090   2.604   6.442   8.886
   46PVPG   H7X40091   2.591   6.375   8.799
   46PVPG   H7Y40092   2.513   6.449   8.948
   46PVPG   C3840093   2.721   6.388   8.970
   46PVPG   H8X40094   2.753   6.469   9.035
   46PVPG   H8Y40095   2.809   6.363   8.906
   46PVPG   C3940096   2.690   6.266   9.056
   46PVPG   H9X40097   2.787   6.225   9.097
   46PVPG   H9Y40098   2.638   6.192   8.992
   46PVPG  C31040099   2.599   6.288   9.174
   46PVPG  H10X40100   2.497   6.326   9.157
   46PVPG  H10Y40101   2.649   6.357   9.240
   46PVPG  C31140102   2.593   6.171   9.263
   46PVPG  H11X40103   2.687   6.110   9.246
   46PVPG  H11Y40104   2.510   6.101   9.253
   46PVPG  C31240105   2.588   6.219   9.405
   46PVPG  H12X40106   2.689   6.269   9.406
   46PVPG  H12Y40107   2.572   6.123   9.458
   46PVPG  C31340108   2.526   6.341   9.475
   46PVPG  H13X40109   2.419   6.325   9.479
   46PVPG  H13Y40110   2.557   6.419   9.409
   46PVPG  C31440111   2.572   6.386   9.615
   46PVPG  H14X40112   2.529   6.483   9.647
   46PVPG  H14Y40113   2.680   6.405   9.631
   46PVPG  C31540114   2.512   6.293   9.714
   46PVPG  H15X40115   2.541   6.184   9.719
   46PVPG  H15Y40116   2.415   6.283   9.682
   46PVPG  C31640117   2.521   6.350   9.849
   46PVPG  H16X40118   2.479   6.437   9.897
   46PVPG  H16Y40119   2.494   6.254   9.901
   46PVPG  H16Z40120   2.626   6.384   9.869
   47PVPG   C1340121   5.074   7.224   8.045
   47PVPG  H13A40122   5.027   7.297   8.114
   47PVPG  H13B40123   5.058   7.124   8.088
   47PVPG   OC340124   5.215   7.248   8.040
   47PVPG   HO340125   5.249   7.189   7.970
   47PVPG   C1240126   5.004   7.237   7.906
   47PVPG  H12A40127   4.912   7.174   7.906
   47PVPG   OC240128   5.089   7.189   7.801
   47PVPG   HO240129   5.047   7.221   7.720
   47PVPG   C1140130   4.962   7.385   7.886
   47PVPG  H11A40131   5.055   7.448   7.891
   47PVPG  H11B40132   4.900   7.411   7.975
   47PVPG     P40133   4.870   7.566   7.728
   47PVPG   O1340134   4.744   7.585   7.655
   47PVPG   O1440135   4.996   7.610   7.665
   47PVPG   O1240136   4.887   7.411   7.767
   47PVPG   O1140137   4.855   7.635   7.869
   47PVPG    C140138   4.731   7.641   7.939
   47PVPG    HA40139   4.685   7.540   7.957
   47PVPG    HB40140   4.656   7.705   7.888
   47PVPG    C240141   4.760   7.705   8.074
   47PVPG    HS40142   4.787   7.813   8.061
   47PVPG   O2140143   4.850   7.621   8.147
   47PVPG   C2140144   4.968   7.675   8.152
   47PVPG   O2240145   4.998   7.786   8.112
   47PVPG   C2240146   5.066   7.574   8.210
   47PVPG   H2R40147   5.105   7.520   8.121
   47PVPG   H2S40148   5.009   7.502   8.272
   47PVPG    C340149   4.634   7.711   8.147
   47PVPG    HX40150   4.555   7.752   8.082
   47PVPG    HY40151   4.615   7.606   8.183
   47PVPG   O3140152   4.632   7.799   8.253
   47PVPG   C3140153   4.684   7.748   8.357
   47PVPG   O3240154   4.752   7.649   8.372
   47PVPG   C3240155   4.650   7.828   8.462
   47PVPG   H2X40156   4.545   7.835   8.495
   47PVPG   H2Y40157   4.590   7.914   8.420
   47PVPG   C2340158   5.178   7.640   8.294
   47PVPG   H3R40159   5.135   7.715   8.365
   47PVPG   H3S40160   5.248   7.692   8.225
   47PVPG   C2440161   5.257   7.543   8.383
   47PVPG   H4R40162   5.347   7.587   8.430
   47PVPG   H4S40163   5.292   7.469   8.315
   47PVPG   C2540164   5.167   7.462   8.475
   47PVPG   H5R40165   5.108   7.390   8.413
   47PVPG   H5S40166   5.099   7.535   8.523
   47PVPG   C2640167   5.234   7.380   8.585
   47PVPG   H6R40168   5.295   7.302   8.550
   47PVPG   H6S40169   5.160   7.312   8.631
   47PVPG   C2740170   5.334   7.451   8.676
   47PVPG   H7R40171   5.272   7.527   8.725
   47PVPG   H7S40172   5.421   7.496   8.622
   47PVPG   C2840173   5.395   7.359   8.780
   47PVPG   H8R40174   5.492   7.313   8.750
   47PVPG   H8S40175   5.319   7.280   8.788
   47PVPG   C2940176   5.438   7.427   8.907
   47PVPG   H9R40177   5.356   7.490   8.946
   47PVPG   H9S40178   5.523   7.489   8.872
   47PVPG  C21040179   5.504   7.340   9.013
   47PVPG  H10R40180   5.545   7.398   9.096
   47PVPG  H10S40181   5.586   7.279   8.965
   47PVPG  C21140182   5.413   7.244   9.071
   47PVPG  H11140183   5.450   7.153   9.032
   47PVPG  C21240184   5.311   7.249   9.155
   47PVPG  H12140185   5.249   7.161   9.180
   47PVPG  C21340186   5.261   7.370   9.216
   47PVPG  H13R40187   5.152   7.378   9.199
   47PVPG  H13S40188   5.315   7.455   9.174
   47PVPG  C21440189   5.282   7.350   9.364
   47PVPG  H14R40190   5.269   7.453   9.403
   47PVPG  H14S40191   5.389   7.323   9.384
   47PVPG  C21540192   5.178   7.250   9.423
   47PVPG  H15R40193   5.189   7.148   9.383
   47PVPG  H15S40194   5.075   7.285   9.413
   47PVPG  C21640195   5.183   7.238   9.572
   47PVPG  H16R40196   5.176   7.341   9.610
   47PVPG  H16S40197   5.284   7.197   9.574
   47PVPG  C21740198   5.100   7.136   9.650
   47PVPG  H17R40199   5.104   7.042   9.593
   47PVPG  H17S40200   5.002   7.184   9.650
   47PVPG  C21840201   5.104   7.105   9.801
   47PVPG  H18R40202   5.186   7.127   9.870
   47PVPG  H18S40203   5.057   7.024   9.849
   47PVPG  H18T40204   5.206   7.091   9.850
   47PVPG   C3340205   4.794   7.833   8.547
   47PVPG   H3X40206   4.831   7.932   8.584
   47PVPG   H3Y40207   4.889   7.845   8.497
   47PVPG   C3440208   4.800   7.748   8.674
   47PVPG   H4X40209   4.786   7.643   8.652
   47PVPG   H4Y40210   4.707   7.774   8.721
   47PVPG   C3540211   4.884   7.789   8.798
   47PVPG   H5X40212   4.839   7.878   8.846
   47PVPG   H5Y40213   4.985   7.815   8.767
   47PVPG   C3640214   4.879   7.691   8.917
   47PVPG   H6X40215   4.774   7.684   8.952
   47PVPG   H6Y40216   4.935   7.737   9.001
   47PVPG   C3740217   4.936   7.552   8.885
   47PVPG   H7X40218   5.041   7.570   8.851
   47PVPG   H7Y40219   4.884   7.502   8.800
   47PVPG   C3840220   4.946   7.459   9.006
   47PVPG   H8X40221   4.965   7.519   9.097
   47PVPG   H8Y40222   5.033   7.391   8.990
   47PVPG   C3940223   4.826   7.371   9.036
   47PVPG   H9X40224   4.796   7.316   8.943
   47PVPG   H9Y40225   4.740   7.433   9.067
   47PVPG  C31040226   4.859   7.276   9.152
   47PVPG  H10X40227   4.954   7.223   9.134
   47PVPG  H10Y40228   4.777   7.202   9.162
   47PVPG  C31140229   4.874   7.343   9.289
   47PVPG  H11X40230   4.957   7.414   9.309
   47PVPG  H11Y40231   4.882   7.260   9.363
   47PVPG  C31240232   4.751   7.415   9.321
   47PVPG  H12X40233   4.666   7.357   9.274
   47PVPG  H12Y40234   4.746   7.521   9.283
   47PVPG  C31340235   4.738   7.418   9.471
   47PVPG  H13X40236   4.726   7.327   9.531
   47PVPG  H13Y40237   4.639   7.433   9.440
   47PVPG  C31440238   4.820   7.528   9.538
   47PVPG  H14X40239   4.821   7.623   9.480
   47PVPG  H14Y40240   4.922   7.484   9.541
   47PVPG  C31540241   4.811   7.562   9.686
   47PVPG  H15X40242   4.895   7.632   9.688
   47PVPG  H15Y40243   4.802   7.476   9.757
   47PVPG  C31640244   4.714   7.659   9.730
   47PVPG  H16X40245   4.711   7.745   9.668
   47PVPG  H16Y40246   4.642   7.580   9.711
   47PVPG  H16Z40247   4.691   7.705   9.827
   48PVPG   C1340248   0.532   3.193   7.633
   48PVPG  H13A40249   0.561   3.188   7.526
   48PVPG  H13B40250   0.469   3.105   7.659
   48PVPG   OC340251   0.457   3.314   7.657
   48PVPG   HO340252   0.466   3.369   7.580
   48PVPG   C1240253   0.662   3.185   7.717
   48PVPG  H12A40254   0.725   3.274   7.694
   48PVPG   OC240255   0.739   3.071   7.679
   48PVPG   HO240256   0.805   3.064   7.748
   48PVPG   C1140257   0.637   3.183   7.869
   48PVPG  H11A40258   0.603   3.285   7.902
   48PVPG  H11B40259   0.737   3.163   7.914
   48PVPG     P40260   0.400   3.098   7.955
   48PVPG   O1340261   0.313   3.028   7.856
   48PVPG   O1440262   0.377   3.241   7.982
   48PVPG   O1240263   0.551   3.076   7.910
   48PVPG   O1140264   0.398   3.028   8.096
   48PVPG    C140265   0.473   2.911   8.123
   48PVPG    HA40266   0.505   2.909   8.230
   48PVPG    HB40267   0.562   2.896   8.056
   48PVPG    C240268   0.382   2.792   8.111
   48PVPG    HS40269   0.334   2.800   8.011
   48PVPG   O2140270   0.282   2.799   8.218
   48PVPG   C2140271   0.142   2.807   8.209
   48PVPG   O2240272   0.073   2.792   8.115
   48PVPG   C2240273   0.077   2.779   8.332
   48PVPG   H2R40274   0.035   2.674   8.338
   48PVPG   H2S40275  -0.025   2.813   8.321
   48PVPG    C340276   0.479   2.664   8.117
   48PVPG    HX40277   0.438   2.561   8.124
   48PVPG    HY40278   0.532   2.657   8.020
   48PVPG   O3140279   0.570   2.683   8.218
   48PVPG   C3140280   0.524   2.629   8.328
   48PVPG   O3240281   0.483   2.517   8.337
   48PVPG   C3240282   0.591   2.697   8.440
   48PVPG   H2X40283   0.652   2.773   8.392
   48PVPG   H2Y40284   0.636   2.610   8.489
   48PVPG   C2340285   0.180   2.845   8.422
   48PVPG   H3R40286   0.200   2.946   8.379
   48PVPG   H3S40287   0.279   2.794   8.439
   48PVPG   C2440288   0.117   2.870   8.548
   48PVPG   H4R40289   0.115   2.774   8.605
   48PVPG   H4S40290   0.014   2.901   8.515
   48PVPG   C2540291   0.181   2.983   8.623
   48PVPG   H5R40292   0.178   3.071   8.555
   48PVPG   H5S40293   0.286   2.956   8.647
   48PVPG   C2640294   0.112   3.019   8.753
   48PVPG   H6R40295   0.008   3.047   8.726
   48PVPG   H6S40296   0.156   3.109   8.793
   48PVPG   C2740297   0.132   2.917   8.865
   48PVPG   H7R40298   0.231   2.871   8.873
   48PVPG   H7S40299   0.096   2.820   8.826
   48PVPG   C2840300   0.083   2.963   9.007
   48PVPG   H8R40301  -0.025   2.963   9.028
   48PVPG   H8S40302   0.095   3.069   9.025
   48PVPG   C2940303   0.133   2.872   9.116
   48PVPG   H9R40304   0.103   2.908   9.216
   48PVPG   H9S40305   0.244   2.870   9.108
   48PVPG  C21040306   0.088   2.726   9.102
   48PVPG  H10R40307   0.133   2.690   9.192
   48PVPG  H10S40308   0.132   2.683   9.009
   48PVPG  C21140309  -0.049   2.674   9.123
   48PVPG  H11140310  -0.109   2.657   9.041
   48PVPG  C21240311  -0.112   2.624   9.220
   48PVPG  H12140312  -0.222   2.611   9.221
   48PVPG  C21340313  -0.037   2.614   9.336
   48PVPG  H13R40314   0.072   2.595   9.336
   48PVPG  H13S40315  -0.087   2.520   9.348
   48PVPG  C21440316  -0.052   2.721   9.431
   48PVPG  H14R40317  -0.163   2.723   9.439
   48PVPG  H14S40318  -0.015   2.820   9.409
   48PVPG  C21540319   0.034   2.665   9.541
   48PVPG  H15R40320   0.085   2.574   9.541
   48PVPG  H15S40321  -0.041   2.643   9.600
   48PVPG  C21640322   0.072   2.723   9.666
   48PVPG  H16R40323   0.037   2.833   9.649
   48PVPG  H16S40324   0.164   2.695   9.646
   48PVPG  C21740325   0.169   2.651   9.783
   48PVPG  H17R40326   0.255   2.707   9.827
   48PVPG  H17S40327   0.255   2.587   9.768
   48PVPG  C21840328   0.113   2.615   9.904
   48PVPG  H18R40329   0.027   2.568   9.901
   48PVPG  H18S40330   0.166   2.585   9.991
   48PVPG  H18T40331   0.055   2.695   9.927
   48PVPG   C3340332   0.531   2.756   8.559
   48PVPG   H3X40333   0.489   2.673   8.614
   48PVPG   H3Y40334   0.462   2.834   8.525
   48PVPG   C3440335   0.620   2.782   8.678
   48PVPG   H4X40336   0.682   2.691   8.702
   48PVPG   H4Y40337   0.542   2.793   8.759
   48PVPG   C3540338   0.697   2.908   8.672
   48PVPG   H5X40339   0.635   2.987   8.624
   48PVPG   H5Y40340   0.783   2.889   8.604
   48PVPG   C3640341   0.740   2.951   8.813
   48PVPG   H6X40342   0.816   3.030   8.801
   48PVPG   H6Y40343   0.788   2.864   8.863
   48PVPG   C3740344   0.628   3.006   8.908
   48PVPG   H7X40345   0.676   3.034   9.005
   48PVPG   H7Y40346   0.552   2.929   8.929
   48PVPG   C3840347   0.548   3.128   8.859
   48PVPG   H8X40348   0.503   3.102   8.760
   48PVPG   H8Y40349   0.614   3.217   8.848
   48PVPG   C3940350   0.428   3.168   8.948
   48PVPG   H9X40351   0.349   3.090   8.943
   48PVPG   H9Y40352   0.386   3.262   8.905
   48PVPG  C31040353   0.461   3.199   9.094
   48PVPG  H10X40354   0.565   3.235   9.104
   48PVPG  H10Y40355   0.451   3.106   9.155
   48PVPG  C31140356   0.369   3.306   9.148
   48PVPG  H11X40357   0.265   3.268   9.155
   48PVPG  H11Y40358   0.367   3.395   9.080
   48PVPG  C31240359   0.412   3.355   9.284
   48PVPG  H12X40360   0.315   3.388   9.325
   48PVPG  H12Y40361   0.487   3.437   9.278
   48PVPG  C31340362   0.441   3.257   9.397
   48PVPG  H13X40363   0.473   3.323   9.481
   48PVPG  H13Y40364   0.527   3.192   9.374
   48PVPG  C31440365   0.313   3.183   9.440
   48PVPG  H14X40366   0.312   3.080   9.400
   48PVPG  H14Y40367   0.223   3.232   9.398
   48PVPG  C31540368   0.292   3.179   9.592
   48PVPG  H15X40369   0.202   3.117   9.613
   48PVPG  H15Y40370   0.268   3.281   9.627
   48PVPG  C31640371   0.412   3.130   9.675
   48PVPG  H16X40372   0.441   3.026   9.654
   48PVPG  H16Y40373   0.500   3.192   9.655
   48PVPG  H16Z40374   0.387   3.135   9.783
   49PVPG   C1340375   7.033   1.506   7.597
   49PVPG  H13A40376   7.108   1.588   7.598
   49PVPG  H13B40377   7.085   1.409   7.580
   49PVPG   OC340378   6.935   1.533   7.495
   49PVPG   HO340379   6.980   1.535   7.411
   49PVPG   C1240380   6.968   1.505   7.739
   49PVPG  H12A40381   7.046   1.483   7.814
   49PVPG   OC240382   6.872   1.401   7.753
   49PVPG   HO240383   6.816   1.430   7.826
   49PVPG   C1140384   6.913   1.648   7.767
   49PVPG  H11A40385   6.846   1.676   7.684
   49PVPG  H11B40386   7.001   1.717   7.760
   49PVPG     P40387   6.899   1.768   7.994
   49PVPG   O1340388   6.805   1.786   8.099
   49PVPG   O1440389   6.949   1.892   7.929
   49PVPG   O1240390   6.843   1.661   7.890
   49PVPG   O1140391   7.003   1.690   8.075
   49PVPG    C140392   6.938   1.600   8.168
   49PVPG    HA40393   6.930   1.515   8.098
   49PVPG    HB40394   6.826   1.593   8.190
   49PVPG    C240395   7.009   1.601   8.310
   49PVPG    HS40396   6.953   1.523   8.369
   49PVPG   O2140397   7.009   1.728   8.370
   49PVPG   C2140398   6.906   1.750   8.440
   49PVPG   O2240399   6.826   1.672   8.488
   49PVPG   C2240400   6.894   1.895   8.440
   49PVPG   H2R40401   6.807   1.925   8.500
   49PVPG   H2S40402   6.875   1.913   8.331
   49PVPG    C340403   7.163   1.565   8.315
   49PVPG    HX40404   7.195   1.463   8.302
   49PVPG    HY40405   7.186   1.630   8.229
   49PVPG   O3140406   7.258   1.593   8.419
   49PVPG   C3140407   7.204   1.537   8.523
   49PVPG   O3240408   7.094   1.492   8.527
   49PVPG   C3240409   7.281   1.565   8.643
   49PVPG   H2X40410   7.224   1.655   8.675
   49PVPG   H2Y40411   7.385   1.587   8.611
   49PVPG   C2340412   7.019   1.979   8.469
   49PVPG   H3R40413   6.996   2.086   8.445
   49PVPG   H3S40414   7.106   1.948   8.407
   49PVPG   C2440415   7.059   1.971   8.611
   49PVPG   H4R40416   7.112   1.875   8.629
   49PVPG   H4S40417   6.967   1.967   8.676
   49PVPG   C2540418   7.152   2.090   8.639
   49PVPG   H5R40419   7.119   2.189   8.599
   49PVPG   H5S40420   7.257   2.071   8.613
   49PVPG   C2640421   7.161   2.097   8.784
   49PVPG   H6R40422   7.067   2.048   8.811
   49PVPG   H6S40423   7.189   2.195   8.830
   49PVPG   C2740424   7.202   1.973   8.848
   49PVPG   H7R40425   7.300   2.014   8.804
   49PVPG   H7S40426   7.192   1.878   8.799
   49PVPG   C2840427   7.171   1.940   9.005
   49PVPG   H8R40428   7.096   1.970   9.068
   49PVPG   H8S40429   7.181   2.048   9.020
   49PVPG   C2940430   7.232   1.827   9.112
   49PVPG   H9R40431   7.340   1.820   9.114
   49PVPG   H9S40432   7.211   1.737   9.063
   49PVPG  C21040433   7.226   1.805   9.268
   49PVPG  H10R40434   7.282   1.711   9.283
   49PVPG  H10S40435   7.120   1.817   9.285
   49PVPG  C21140436   7.315   1.904   9.319
   49PVPG  H11140437   7.252   1.990   9.336
   49PVPG  C21240438   7.427   1.916   9.383
   49PVPG  H12140439   7.475   2.008   9.425
   49PVPG  C21340440   7.478   1.808   9.425
   49PVPG  H13R40441   7.570   1.871   9.440
   49PVPG  H13S40442   7.496   1.743   9.338
   49PVPG  C21440443   7.412   1.752   9.564
   49PVPG  H14R40444   7.458   1.666   9.603
   49PVPG  H14S40445   7.316   1.707   9.541
   49PVPG  C21540446   7.456   1.785   9.719
   49PVPG  H15R40447   7.456   1.885   9.718
   49PVPG  H15S40448   7.559   1.808   9.752
   49PVPG  C21640449   7.368   1.745   9.840
   49PVPG  H16R40450   7.258   1.744   9.827
   49PVPG  H16S40451   7.395   1.804   9.929
   49PVPG  C21740452   7.383   1.609   9.875
   49PVPG  H17R40453   7.408   1.571   9.974
   49PVPG  H17S40454   7.493   1.610   9.846
   49PVPG  C21840455   7.269   1.523   9.810
   49PVPG  H18R40456   7.269   1.428   9.864
   49PVPG  H18S40457   7.212   1.537   9.725
   49PVPG  H18T40458   7.291   1.487   9.702
   49PVPG   C3340459   7.279   1.466   8.761
   49PVPG   H3X40460   7.333   1.371   8.738
   49PVPG   H3Y40461   7.182   1.450   8.811
   49PVPG   C3440462   7.346   1.535   8.865
   49PVPG   H4X40463   7.314   1.640   8.865
   49PVPG   H4Y40464   7.451   1.517   8.829
   49PVPG   C3540465   7.333   1.501   9.010
   49PVPG   H5X40466   7.406   1.554   9.078
   49PVPG   H5Y40467   7.345   1.395   9.012
   49PVPG   C3640468   7.202   1.491   9.077
   49PVPG   H6X40469   7.158   1.395   9.035
   49PVPG   H6Y40470   7.144   1.576   9.053
   49PVPG   C3740471   7.224   1.485   9.226
   49PVPG   H7X40472   7.305   1.520   9.293
   49PVPG   H7Y40473   7.278   1.404   9.202
   49PVPG   C3840474   7.107   1.435   9.295
   49PVPG   H8X40475   7.057   1.362   9.229
   49PVPG   H8Y40476   7.053   1.531   9.298
   49PVPG   C3940477   7.134   1.383   9.434
   49PVPG   H9X40478   7.190   1.452   9.503
   49PVPG   H9Y40479   7.163   1.279   9.416
   49PVPG  C31040480   7.042   1.331   9.531
   49PVPG  H10X40481   7.049   1.298   9.635
   49PVPG  H10Y40482   6.977   1.258   9.477
   49PVPG  C31140483   6.980   1.437   9.552
   49PVPG  H11X40484   6.889   1.353   9.574
   49PVPG  H11Y40485   6.967   1.495   9.456
   49PVPG  C31240486   7.008   1.558   9.650
   49PVPG  H12X40487   7.093   1.612   9.617
   49PVPG  H12Y40488   7.044   1.480   9.726
   49PVPG  C31340489   6.907   1.691   9.694
   49PVPG  H13X40490   6.941   1.745   9.786
   49PVPG  H13Y40491   6.798   1.672   9.722
   49PVPG  C31440492   6.837   1.785   9.597
   49PVPG  H14X40493   6.766   1.746   9.520
   49PVPG  H14Y40494   6.923   1.820   9.545
   49PVPG  C31540495   6.737   1.874   9.662
   49PVPG  H15X40496   6.646   1.837   9.705
   49PVPG  H15Y40497   6.681   1.908   9.576
   49PVPG  C31640498   6.804   1.962   9.759
   49PVPG  H16X40499   6.830   1.926   9.858
   49PVPG  H16Y40500   6.899   2.003   9.711
   49PVPG  H16Z40501   6.728   2.041   9.779
   50PVPG   C1340502   1.518   1.450   8.019
   50PVPG  H13A40503   1.467   1.401   8.100
   50PVPG  H13B40504   1.616   1.433   8.063
   50PVPG   OC340505   1.518   1.593   8.025
   50PVPG   HO340506   1.549   1.624   7.939
   50PVPG   C1240507   1.478   1.384   7.880
   50PVPG  H12A40508   1.542   1.426   7.798
   50PVPG   OC240509   1.347   1.426   7.849
   50PVPG   HO240510   1.325   1.371   7.773
   50PVPG   C1140511   1.487   1.223   7.871
   50PVPG  H11A40512   1.441   1.188   7.966
   50PVPG  H11B40513   1.586   1.172   7.880
   50PVPG     P40514   1.453   1.007   7.733
   50PVPG   O1340515   1.596   0.976   7.709
   50PVPG   O1440516   1.348   0.955   7.643
   50PVPG   O1240517   1.434   1.166   7.751
   50PVPG   O1140518   1.422   0.953   7.879
   50PVPG    C140519   1.322   0.853   7.894
   50PVPG    HA40520   1.369   0.754   7.881
   50PVPG    HB40521   1.237   0.866   7.824
   50PVPG    C240522   1.265   0.855   8.035
   50PVPG    HS40523   1.173   0.791   8.037
   50PVPG   O2140524   1.233   0.993   8.063
   50PVPG   C2140525   1.139   1.015   8.152
   50PVPG   O2240526   1.082   0.930   8.218
   50PVPG   C2240527   1.105   1.162   8.153
   50PVPG   H2R40528   0.994   1.174   8.162
   50PVPG   H2S40529   1.135   1.209   8.057
   50PVPG    C340530   1.373   0.795   8.129
   50PVPG    HX40531   1.409   0.695   8.095
   50PVPG    HY40532   1.462   0.863   8.124
   50PVPG   O3140533   1.318   0.789   8.259
   50PVPG   C3140534   1.392   0.738   8.354
   50PVPG   O3240535   1.504   0.690   8.340
   50PVPG   C3240536   1.311   0.741   8.485
   50PVPG   H2X40537   1.269   0.640   8.498
   50PVPG   H2Y40538   1.224   0.809   8.475
   50PVPG   C2340539   1.176   1.224   8.274
   50PVPG   H3R40540   1.170   1.164   8.367
   50PVPG   H3S40541   1.127   1.320   8.296
   50PVPG   C2440542   1.320   1.261   8.239
   50PVPG   H4R40543   1.347   1.355   8.293
   50PVPG   H4S40544   1.321   1.284   8.131
   50PVPG   C2540545   1.426   1.162   8.285
   50PVPG   H5R40546   1.523   1.207   8.255
   50PVPG   H5S40547   1.417   1.063   8.236
   50PVPG   C2640548   1.421   1.148   8.438
   50PVPG   H6R40549   1.362   1.059   8.471
   50PVPG   H6S40550   1.381   1.240   8.485
   50PVPG   C2740551   1.557   1.138   8.500
   50PVPG   H7R40552   1.611   1.227   8.464
   50PVPG   H7S40553   1.598   1.045   8.457
   50PVPG   C2840554   1.553   1.150   8.653
   50PVPG   H8R40555   1.503   1.060   8.696
   50PVPG   H8S40556   1.509   1.243   8.690
   50PVPG   C2940557   1.682   1.178   8.724
   50PVPG   H9R40558   1.764   1.239   8.683
   50PVPG   H9S40559   1.736   1.122   8.655
   50PVPG  C21040560   1.674   1.125   8.874
   50PVPG  H10R40561   1.685   1.216   8.934
   50PVPG  H10S40562   1.778   1.107   8.907
   50PVPG  C21140563   1.605   0.992   8.930
   50PVPG  H11140564   1.630   0.889   8.898
   50PVPG  C21240565   1.542   0.966   9.037
   50PVPG  H12140566   1.555   0.864   9.080
   50PVPG  C21340567   1.530   1.081   9.119
   50PVPG  H13R40568   1.434   1.050   9.157
   50PVPG  H13S40569   1.517   1.172   9.055
   50PVPG  C21440570   1.640   1.117   9.216
   50PVPG  H14R40571   1.596   1.201   9.272
   50PVPG  H14S40572   1.728   1.152   9.156
   50PVPG  C21540573   1.686   1.008   9.312
   50PVPG  H15R40574   1.762   1.049   9.382
   50PVPG  H15S40575   1.731   0.938   9.242
   50PVPG  C21640576   1.578   0.924   9.380
   50PVPG  H16R40577   1.538   0.858   9.299
   50PVPG  H16S40578   1.499   0.993   9.417
   50PVPG  C21740579   1.621   0.833   9.495
   50PVPG  H17R40580   1.721   0.788   9.476
   50PVPG  H17S40581   1.545   0.752   9.500
   50PVPG  C21840582   1.618   0.896   9.633
   50PVPG  H18R40583   1.650   1.001   9.627
   50PVPG  H18S40584   1.515   0.898   9.674
   50PVPG  H18T40585   1.686   0.841   9.702
   50PVPG   C3340586   1.398   0.781   8.606
   50PVPG   H3X40587   1.458   0.873   8.590
   50PVPG   H3Y40588   1.473   0.703   8.617
   50PVPG   C3440589   1.324   0.784   8.740
   50PVPG   H4X40590   1.402   0.788   8.821
   50PVPG   H4Y40591   1.269   0.688   8.750
   50PVPG   C3540592   1.226   0.897   8.757
   50PVPG   H5X40593   1.155   0.888   8.671
   50PVPG   H5Y40594   1.280   0.994   8.750
   50PVPG   C3640595   1.143   0.888   8.885
   50PVPG   H6X40596   1.115   0.781   8.900
   50PVPG   H6Y40597   1.050   0.946   8.870
   50PVPG   C3740598   1.210   0.943   9.011
   50PVPG   H7X40599   1.254   1.043   8.992
   50PVPG   H7Y40600   1.295   0.876   9.037
   50PVPG   C3840601   1.115   0.951   9.131
   50PVPG   H8X40602   1.076   0.848   9.151
   50PVPG   H8Y40603   1.026   1.016   9.115
   50PVPG   C3940604   1.193   1.005   9.251
   50PVPG   H9X40605   1.226   1.108   9.224
   50PVPG   H9Y40606   1.284   0.943   9.267
   50PVPG  C31040607   1.118   1.009   9.383
   50PVPG  H10X40608   1.141   0.915   9.439
   50PVPG  H10Y40609   1.008   1.020   9.373
   50PVPG  C31140610   1.174   1.121   9.467
   50PVPG  H11X40611   1.140   1.223   9.438
   50PVPG  H11Y40612   1.285   1.120   9.463
   50PVPG  C31240613   1.135   1.095   9.608
   50PVPG  H12X40614   1.158   0.992   9.647
   50PVPG  H12Y40615   1.026   1.112   9.626
   50PVPG  C31340616   1.212   1.193   9.692
   50PVPG  H13X40617   1.152   1.157   9.777
   50PVPG  H13Y40618   1.178   1.296   9.673
   50PVPG  C31440619   1.370   1.186   9.700
   50PVPG  H14X40620   1.413   1.242   9.613
   50PVPG  H14Y40621   1.404   1.082   9.710
   50PVPG  C31540622   1.452   1.236   9.820
   50PVPG  H15X40623   1.418   1.346   9.818
   50PVPG  H15Y40624   1.550   1.286   9.805
   50PVPG  C31640625   1.448   1.134   9.950
   50PVPG  H16X40626   1.477   1.035   9.973
   50PVPG  H16Y40627   1.510   1.174  10.033
   50PVPG  H16Z40628   1.348   1.120   9.999
   51PVPG   C1340629   7.285   6.818   7.607
   51PVPG  H13A40630   7.386   6.796   7.568
   51PVPG  H13B40631   7.226   6.725   7.602
   51PVPG   OC340632   7.223   6.916   7.522
   51PVPG   HO340633   7.184   6.872   7.446
   51PVPG   C1240634   7.285   6.861   7.757
   51PVPG  H12A40635   7.183   6.843   7.798
   51PVPG   OC240636   7.323   6.996   7.769
   51PVPG   HO240637   7.318   7.025   7.861
   51PVPG   C1140638   7.391   6.793   7.844
   51PVPG  H11A40639   7.403   6.843   7.943
   51PVPG  H11B40640   7.478   6.826   7.783
   51PVPG     P40641   7.405   6.549   7.971
   51PVPG   O1340642   7.547   6.519   7.988
   51PVPG   O1440643   7.325   6.428   7.950
   51PVPG   O1240644   7.380   6.650   7.849
   51PVPG   O1140645   7.368   6.630   8.096
   51PVPG    C140646   7.239   6.624   8.145
   51PVPG    HA40647   7.223   6.562   8.236
   51PVPG    HB40648   7.163   6.590   8.067
   51PVPG    C240649   7.224   6.765   8.186
   51PVPG    HS40650   7.250   6.843   8.110
   51PVPG   O2140651   7.259   6.795   8.324
   51PVPG   C2140652   7.324   6.909   8.335
   51PVPG   O2240653   7.328   6.996   8.250
   51PVPG   C2240654   7.403   6.913   8.467
   51PVPG   H2R40655   7.406   7.017   8.504
   51PVPG   H2S40656   7.507   6.884   8.441
   51PVPG    C340657   7.090   6.761   8.167
   51PVPG    HX40658   7.073   6.873   8.128
   51PVPG    HY40659   7.037   6.726   8.077
   51PVPG   O3140660   7.022   6.694   8.282
   51PVPG   C3140661   7.017   6.643   8.407
   51PVPG   O3240662   7.100   6.564   8.440
   51PVPG   C3240663   6.887   6.643   8.500
   51PVPG   H2X40664   6.860   6.542   8.464
   51PVPG   H2Y40665   6.795   6.708   8.504
   51PVPG   C2340666   7.347   6.822   8.579
   51PVPG   H3R40667   7.324   6.720   8.543
   51PVPG   H3S40668   7.253   6.866   8.620
   51PVPG   C2440669   7.444   6.806   8.694
   51PVPG   H4R40670   7.529   6.740   8.668
   51PVPG   H4S40671   7.390   6.758   8.778
   51PVPG   C2540672   7.501   6.937   8.739
   51PVPG   H5R40673   7.425   7.009   8.776
   51PVPG   H5S40674   7.561   6.988   8.660
   51PVPG   C2640675   7.599   6.904   8.846
   51PVPG   H6R40676   7.635   7.009   8.857
   51PVPG   H6S40677   7.683   6.845   8.806
   51PVPG   C2740678   7.550   6.839   8.976
   51PVPG   H7R40679   7.484   6.752   8.967
   51PVPG   H7S40680   7.495   6.916   9.029
   51PVPG   C2840681   7.669   6.777   9.051
   51PVPG   H8R40682   7.767   6.824   9.055
   51PVPG   H8S40683   7.677   6.710   8.970
   51PVPG   C2940684   7.648   6.682   9.166
   51PVPG   H9R40685   7.560   6.622   9.184
   51PVPG   H9S40686   7.585   6.765   9.190
   51PVPG  C21040687   7.758   6.628   9.261
   51PVPG  H10R40688   7.816   6.553   9.203
   51PVPG  H10S40689   7.715   6.555   9.334
   51PVPG  C21140690   7.865   6.702   9.338
   51PVPG  H11140691   7.862   6.798   9.263
   51PVPG  C21240692   7.875   6.790   9.454
   51PVPG  H12140693   7.914   6.875   9.458
   51PVPG  C21340694   7.863   6.788   9.608
   51PVPG  H13R40695   7.901   6.755   9.697
   51PVPG  H13S40696   7.900   6.688   9.595
   51PVPG  C21440697   7.729   6.886   9.672
   51PVPG  H14R40698   7.629   6.852   9.720
   51PVPG  H14S40699   7.661   6.917   9.594
   51PVPG  C21540700   7.756   7.003   9.733
   51PVPG  H15R40701   7.792   7.036   9.631
   51PVPG  H15S40702   7.815   6.929   9.793
   51PVPG  C21640703   7.614   7.044   9.777
   51PVPG  H16R40704   7.638   7.123   9.846
   51PVPG  H16S40705   7.558   6.968   9.841
   51PVPG  C21740706   7.539   7.105   9.657
   51PVPG  H17R40707   7.498   7.028   9.585
   51PVPG  H17S40708   7.606   7.158   9.591
   51PVPG  C21840709   7.433   7.200   9.708
   51PVPG  H18R40710   7.351   7.226   9.638
   51PVPG  H18S40711   7.393   7.133   9.785
   51PVPG  H18T40712   7.469   7.280   9.772
   51PVPG   C3340713   6.918   6.633   8.653
   51PVPG   H3X40714   6.844   6.572   8.708
   51PVPG   H3Y40715   6.897   6.733   8.686
   51PVPG   C3440716   7.063   6.596   8.685
   51PVPG   H4X40717   7.126   6.675   8.637
   51PVPG   H4Y40718   7.081   6.494   8.643
   51PVPG   C3540719   7.118   6.581   8.820
   51PVPG   H5X40720   7.224   6.548   8.803
   51PVPG   H5Y40721   7.059   6.503   8.871
   51PVPG   C3640722   7.119   6.716   8.885
   51PVPG   H6X40723   7.014   6.742   8.904
   51PVPG   H6Y40724   7.162   6.791   8.814
   51PVPG   C3740725   7.205   6.707   9.008
   51PVPG   H7X40726   7.306   6.685   8.970
   51PVPG   H7Y40727   7.170   6.621   9.068
   51PVPG   C3840728   7.206   6.833   9.090
   51PVPG   H8X40729   7.105   6.854   9.123
   51PVPG   H8Y40730   7.244   6.920   9.033
   51PVPG   C3940731   7.286   6.821   9.215
   51PVPG   H9X40732   7.312   6.925   9.246
   51PVPG   H9Y40733   7.375   6.760   9.188
   51PVPG  C31040734   7.214   6.768   9.334
   51PVPG  H10X40735   7.134   6.696   9.315
   51PVPG  H10Y40736   7.189   6.860   9.395
   51PVPG  C31140737   7.295   6.704   9.432
   51PVPG  H11X40738   7.342   6.800   9.468
   51PVPG  H11Y40739   7.361   6.620   9.400
   51PVPG  C31240740   7.242   6.670   9.555
   51PVPG  H12X40741   7.145   6.638   9.517
   51PVPG  H12Y40742   7.216   6.746   9.615
   51PVPG  C31340743   7.315   6.575   9.644
   51PVPG  H13X40744   7.356   6.501   9.583
   51PVPG  H13Y40745   7.222   6.555   9.679
   51PVPG  C31440746   7.418   6.568   9.750
   51PVPG  H14X40747   7.433   6.656   9.810
   51PVPG  H14Y40748   7.488   6.552   9.676
   51PVPG  C31540749   7.483   6.438   9.791
   51PVPG  H15X40750   7.563   6.477   9.850
   51PVPG  H15Y40751   7.499   6.353   9.716
   51PVPG  C31640752   7.432   6.389   9.907
   51PVPG  H16X40753   7.432   6.468   9.980
   51PVPG  H16Y40754   7.344   6.425   9.880
   51PVPG  H16Z40755   7.421   6.283   9.937
   52PVPG   C1340756   3.117   0.355   7.910
   52PVPG  H13A40757   3.192   0.382   7.833
   52PVPG  H13B40758   3.164   0.355   8.010
   52PVPG   OC340759   3.066   0.223   7.891
   52PVPG   HO340760   2.982   0.228   7.940
   52PVPG   C1240761   3.004   0.461   7.911
   52PVPG  H12A40762   3.051   0.559   7.928
   52PVPG   OC240763   2.917   0.441   8.022
   52PVPG   HO240764   2.835   0.484   7.995
   52PVPG   C1140765   2.927   0.484   7.778
   52PVPG  H11A40766   2.998   0.515   7.704
   52PVPG  H11B40767   2.855   0.569   7.788
   52PVPG     P40768   2.727   0.346   7.746
   52PVPG   O1340769   2.669   0.241   7.660
   52PVPG   O1440770   2.641   0.460   7.784
   52PVPG   O1240771   2.874   0.369   7.715
   52PVPG   O1140772   2.758   0.286   7.889
   52PVPG    C140773   2.651   0.214   7.935
   52PVPG    HA40774   2.701   0.113   7.930
   52PVPG    HB40775   2.591   0.195   7.857
   52PVPG    C240776   2.534   0.269   8.042
   52PVPG    HS40777   2.509   0.372   8.047
   52PVPG   O2140778   2.650   0.257   8.141
   52PVPG   C2140779   2.705   0.335   8.229
   52PVPG   O2240780   2.681   0.454   8.235
   52PVPG   C2240781   2.809   0.260   8.330
   52PVPG   H2R40782   2.832   0.342   8.401
   52PVPG   H2S40783   2.904   0.232   8.280
   52PVPG    C340784   2.361   0.185   8.072
   52PVPG    HX40785   2.290   0.140   8.001
   52PVPG    HY40786   2.348   0.071   8.060
   52PVPG   O3140787   2.286   0.219   8.190
   52PVPG   C3140788   2.301   0.150   8.283
   52PVPG   O3240789   2.277   0.032   8.264
   52PVPG   C3240790   2.383   0.230   8.467
   52PVPG   H2X40791   2.313   0.230   8.541
   52PVPG   H2Y40792   2.400   0.324   8.455
   52PVPG   C2340793   2.780   0.151   8.439
   52PVPG   H3R40794   2.767   0.055   8.391
   52PVPG   H3S40795   2.689   0.178   8.494
   52PVPG   C2440796   2.893   0.143   8.545
   52PVPG   H4R40797   2.915   0.244   8.582
   52PVPG   H4S40798   2.981   0.096   8.495
   52PVPG   C2540799   2.859   0.065   8.672
   52PVPG   H5R40800   2.846  -0.019   8.609
   52PVPG   H5S40801   2.761   0.093   8.715
   52PVPG   C2640802   2.975   0.045   8.775
   52PVPG   H6R40803   2.983   0.145   8.821
   52PVPG   H6S40804   3.068   0.022   8.719
   52PVPG   C2740805   2.961  -0.046   8.901
   52PVPG   H7R40806   3.048  -0.087   8.953
   52PVPG   H7S40807   2.933  -0.143   8.851
   52PVPG   C2840808   2.865   0.019   9.012
   52PVPG   H8R40809   2.779   0.055   8.951
   52PVPG   H8S40810   2.880   0.121   9.038
   52PVPG   C2940811   2.827  -0.075   9.136
   52PVPG   H9R40812   2.908  -0.070   9.207
   52PVPG   H9S40813   2.825  -0.183   9.104
   52PVPG  C21040814   2.698  -0.048   9.227
   52PVPG  H10R40815   2.661  -0.144   9.268
   52PVPG  H10S40816   2.596  -0.025   9.189
   52PVPG  C21140817   2.660   0.089   9.257
   52PVPG  H11140818   2.722   0.159   9.203
   52PVPG  C21240819   2.598   0.130   9.368
   52PVPG  H12140820   2.612   0.230   9.402
   52PVPG  C21340821   2.556   0.046   9.480
   52PVPG  H13R40822   2.519  -0.024   9.419
   52PVPG  H13S40823   2.477   0.093   9.538
   52PVPG  C21440824   2.631  -0.043   9.574
   52PVPG  H14R40825   2.650   0.030   9.654
   52PVPG  H14S40826   2.714  -0.101   9.525
   52PVPG  C21540827   2.560  -0.142   9.650
   52PVPG  H15R40828   2.554  -0.226   9.579
   52PVPG  H15S40829   2.469  -0.106   9.701
   52PVPG  C21640830   2.631  -0.179   9.773
   52PVPG  H16R40831   2.619  -0.100   9.848
   52PVPG  H16S40832   2.729  -0.220   9.738
   52PVPG  C21740833   2.568  -0.286   9.845
   52PVPG  H17R40834   2.507  -0.307   9.757
   52PVPG  H17S40835   2.471  -0.282   9.900
   52PVPG  C21840836   2.691  -0.373   9.888
   52PVPG  H18R40837   2.726  -0.381   9.992
   52PVPG  H18S40838   2.649  -0.466   9.899
   52PVPG  H18T40839   2.752  -0.421   9.811
   52PVPG   C3340840   2.444   0.143   8.616
   52PVPG   H3X40841   2.548   0.161   8.615
   52PVPG   H3Y40842   2.449   0.027   8.629
   52PVPG   C3440843   2.355   0.177   8.730
   52PVPG   H4X40844   2.260   0.129   8.700
   52PVPG   H4Y40845   2.343   0.285   8.721
   52PVPG   C3540846   2.395   0.130   8.864
   52PVPG   H5X40847   2.400   0.019   8.858
   52PVPG   H5Y40848   2.312   0.164   8.930
   52PVPG   C3640849   2.527   0.196   8.900
   52PVPG   H6X40850   2.597   0.188   8.814
   52PVPG   H6Y40851   2.570   0.139   8.982
   52PVPG   C3740852   2.508   0.340   8.949
   52PVPG   H7X40853   2.465   0.335   9.052
   52PVPG   H7Y40854   2.434   0.391   8.883
   52PVPG   C3840855   2.633   0.428   8.962
   52PVPG   H8X40856   2.598   0.527   8.999
   52PVPG   H8Y40857   2.681   0.445   8.863
   52PVPG   C3940858   2.737   0.372   9.061
   52PVPG   H9X40859   2.755   0.269   9.025
   52PVPG   H9Y40860   2.695   0.367   9.164
   52PVPG  C31040861   2.869   0.451   9.060
   52PVPG  H10X40862   2.852   0.548   9.113
   52PVPG  H10Y40863   2.896   0.469   8.955
   52PVPG  C31140864   2.994   0.389   9.122
   52PVPG  H11X40865   3.079   0.458   9.104
   52PVPG  H11Y40866   3.018   0.288   9.080
   52PVPG  C31240867   2.979   0.382   9.270
   52PVPG  H12X40868   2.905   0.298   9.278
   52PVPG  H12Y40869   2.932   0.477   9.304
   52PVPG  C31340870   3.112   0.375   9.347
   52PVPG  H13X40871   3.168   0.469   9.342
   52PVPG  H13Y40872   3.166   0.283   9.315
   52PVPG  C31440873   3.100   0.374   9.496
   52PVPG  H14X40874   3.072   0.463   9.555
   52PVPG  H14Y40875   3.177   0.304   9.547
   52PVPG  C31540876   2.974   0.319   9.515
   52PVPG  H15X40877   3.022   0.228   9.463
   52PVPG  H15Y40878   2.874   0.342   9.481
   52PVPG  C31640879   2.923   0.333   9.649
   52PVPG  H16X40880   2.856   0.244   9.646
   52PVPG  H16Y40881   3.018   0.295   9.694
   52PVPG  H16Z40882   2.823   0.337   9.698
   53PVPG   C1340883   0.170   5.323   7.576
   53PVPG  H13A40884   0.065   5.289   7.565
   53PVPG  H13B40885   0.215   5.330   7.475
   53PVPG   OC340886   0.237   5.220   7.649
   53PVPG   HO340887   0.204   5.227   7.739
   53PVPG   C1240888   0.166   5.464   7.644
   53PVPG  H12A40889   0.104   5.531   7.582
   53PVPG   OC240890   0.294   5.525   7.646
   53PVPG   HO240891   0.287   5.596   7.714
   53PVPG   C1140892   0.103   5.456   7.785
   53PVPG  H11A40893   0.147   5.367   7.834
   53PVPG  H11B40894  -0.007   5.439   7.778
   53PVPG     P40895   0.146   5.570   8.015
   53PVPG   O1340896   0.286   5.533   8.045
   53PVPG   O1440897   0.043   5.487   8.077
   53PVPG   O1240898   0.128   5.576   7.857
   53PVPG   O1140899   0.123   5.720   8.054
   53PVPG    C140900   0.215   5.817   8.005
   53PVPG    HA40901   0.190   5.845   7.900
   53PVPG    HB40902   0.320   5.780   8.008
   53PVPG    C240903   0.216   5.944   8.094
   53PVPG    HS40904   0.285   6.021   8.054
   53PVPG   O2140905   0.254   5.911   8.230
   53PVPG   C2140906   0.379   5.891   8.254
   53PVPG   O2240907   0.469   5.903   8.173
   53PVPG   C2240908   0.402   5.861   8.404
   53PVPG   H2R40909   0.487   5.791   8.414
   53PVPG   H2S40910   0.312   5.818   8.453
   53PVPG    C340911   0.077   6.012   8.090
   53PVPG    HX40912   0.089   6.102   8.156
   53PVPG    HY40913   0.053   6.046   7.988
   53PVPG   O3140914  -0.035   5.925   8.119
   53PVPG   C3140915  -0.039   5.890   8.243
   53PVPG   O3240916   0.039   5.929   8.328
   53PVPG   C3240917  -0.173   5.814   8.276
   53PVPG   H2X40918  -0.188   5.750   8.189
   53PVPG   H2Y40919  -0.265   5.878   8.284
   53PVPG   C2340920   0.448   5.985   8.483
   53PVPG   H3R40921   0.518   6.051   8.427
   53PVPG   H3S40922   0.496   5.948   8.577
   53PVPG   C2440923   0.334   6.070   8.525
   53PVPG   H4R40924   0.250   6.005   8.560
   53PVPG   H4S40925   0.296   6.133   8.442
   53PVPG   C2540926   0.380   6.151   8.642
   53PVPG   H5R40927   0.461   6.226   8.628
   53PVPG   H5S40928   0.404   6.089   8.730
   53PVPG   C2640929   0.260   6.220   8.677
   53PVPG   H6R40930   0.198   6.257   8.591
   53PVPG   H6S40931   0.290   6.294   8.744
   53PVPG   C2740932   0.173   6.143   8.769
   53PVPG   H7R40933   0.158   6.049   8.720
   53PVPG   H7S40934   0.086   6.217   8.762
   53PVPG   C2840935   0.206   6.055   8.887
   53PVPG   H8R40936   0.311   6.031   8.907
   53PVPG   H8S40937   0.132   5.995   8.945
   53PVPG   C2940938   0.172   6.149   8.987
   53PVPG   H9R40939   0.068   6.185   8.951
   53PVPG   H9S40940   0.242   6.216   8.949
   53PVPG  C21040941   0.236   6.130   9.130
   53PVPG  H10R40942   0.162   6.095   9.205
   53PVPG  H10S40943   0.240   6.230   9.160
   53PVPG  C21140944   0.385   6.090   9.149
   53PVPG  H11140945   0.410   6.009   9.082
   53PVPG  C21240946   0.488   6.109   9.240
   53PVPG  H12140947   0.589   6.074   9.234
   53PVPG  C21340948   0.516   6.179   9.363
   53PVPG  H13R40949   0.448   6.255   9.343
   53PVPG  H13S40950   0.599   6.254   9.376
   53PVPG  C21440951   0.503   6.082   9.489
   53PVPG  H14R40952   0.524   6.119   9.586
   53PVPG  H14S40953   0.602   6.049   9.520
   53PVPG  C21540954   0.362   6.034   9.543
   53PVPG  H15R40955   0.306   6.001   9.458
   53PVPG  H15S40956   0.278   6.102   9.575
   53PVPG  C21640957   0.374   5.945   9.664
   53PVPG  H16R40958   0.406   5.968   9.767
   53PVPG  H16S40959   0.468   5.897   9.637
   53PVPG  C21740960   0.243   5.874   9.676
   53PVPG  H17R40961   0.188   5.885   9.579
   53PVPG  H17S40962   0.179   5.918   9.756
   53PVPG  C21840963   0.279   5.733   9.706
   53PVPG  H18R40964   0.195   5.665   9.691
   53PVPG  H18S40965   0.359   5.704   9.636
   53PVPG  H18T40966   0.317   5.729   9.811
   53PVPG   C3340967  -0.163   5.740   8.412
   53PVPG   H3X40968  -0.250   5.686   8.443
   53PVPG   H3Y40969  -0.163   5.803   8.502
   53PVPG   C3440970  -0.051   5.638   8.410
   53PVPG   H4X40971   0.040   5.690   8.445
   53PVPG   H4Y40972  -0.040   5.604   8.305
   53PVPG   C3540973  -0.080   5.516   8.496
   53PVPG   H5X40974   0.005   5.446   8.495
   53PVPG   H5Y40975  -0.166   5.465   8.449
   53PVPG   C3640976  -0.115   5.544   8.640
   53PVPG   H6X40977  -0.188   5.464   8.665
   53PVPG   H6Y40978  -0.165   5.643   8.646
   53PVPG   C3740979  -0.001   5.537   8.740
   53PVPG   H7X40980   0.071   5.617   8.713
   53PVPG   H7Y40981   0.050   5.439   8.732
   53PVPG   C3840982  -0.046   5.559   8.886
   53PVPG   H8X40983  -0.084   5.464   8.930
   53PVPG   H8Y40984  -0.127   5.636   8.890
   53PVPG   C3940985   0.072   5.599   8.973
   53PVPG   H9X40986   0.093   5.706   8.949
   53PVPG   H9Y40987   0.156   5.535   8.938
   53PVPG  C31040988   0.047   5.576   9.124
   53PVPG  H10X40989   0.041   5.466   9.145
   53PVPG  H10Y40990  -0.053   5.617   9.148
   53PVPG  C31140991   0.150   5.637   9.220
   53PVPG  H11X40992   0.112   5.624   9.324
   53PVPG  H11Y40993   0.157   5.747   9.204
   53PVPG  C31240994   0.290   5.573   9.210
   53PVPG  H12X40995   0.327   5.586   9.106
   53PVPG  H12Y40996   0.279   5.464   9.228
   53PVPG  C31340997   0.397   5.638   9.300
   53PVPG  H13X40998   0.356   5.653   9.403
   53PVPG  H13Y40999   0.419   5.741   9.265
   53PVPG  C31441000   0.533   5.564   9.305
   53PVPG  H14X41001   0.606   5.588   9.227
   53PVPG  H14Y41002   0.521   5.453   9.315
   53PVPG  C31541003   0.602   5.608   9.430
   53PVPG  H15X41004   0.690   5.545   9.457
   53PVPG  H15Y41005   0.512   5.579   9.490
   53PVPG  C31641006   0.629   5.755   9.462
   53PVPG  H16X41007   0.695   5.798   9.385
   53PVPG  H16Y41008   0.532   5.806   9.474
   53PVPG  H16Z41009   0.681   5.771   9.558
   54PVPG   C1341010   1.278   7.361   7.707
   54PVPG  H13A41011   1.381   7.322   7.696
   54PVPG  H13B41012   1.247   7.356   7.814
   54PVPG   OC341013   1.188   7.278   7.633
   54PVPG   HO341014   1.246   7.222   7.581
   54PVPG   C1241015   1.281   7.511   7.662
   54PVPG  H12A41016   1.180   7.555   7.678
   54PVPG   OC241017   1.329   7.533   7.531
   54PVPG   HO241018   1.339   7.628   7.530
   54PVPG   C1141019   1.373   7.591   7.747
   54PVPG  H11A41020   1.376   7.700   7.718
   54PVPG  H11B41021   1.476   7.549   7.747
   54PVPG     P41022   1.374   7.667   7.970
   54PVPG   O1341023   1.290   7.785   7.980
   54PVPG   O1441024   1.513   7.692   7.921
   54PVPG   O1241025   1.314   7.569   7.873
   54PVPG   O1141026   1.362   7.579   8.095
   54PVPG    C141027   1.257   7.510   8.153
   54PVPG    HA41028   1.238   7.424   8.091
   54PVPG    HB41029   1.184   7.591   8.141
   54PVPG    C241030   1.262   7.442   8.306
   54PVPG    HS41031   1.166   7.433   8.362
   54PVPG   O2141032   1.349   7.501   8.398
   54PVPG   C2141033   1.328   7.616   8.428
   54PVPG   O2241034   1.230   7.641   8.376
   54PVPG   C2241035   1.420   7.708   8.522
   54PVPG   H2R41036   1.383   7.805   8.553
   54PVPG   H2S41037   1.518   7.737   8.481
   54PVPG    C341038   1.308   7.299   8.315
   54PVPG    HX41039   1.248   7.245   8.243
   54PVPG    HY41040   1.414   7.294   8.285
   54PVPG   O3141041   1.306   7.244   8.450
   54PVPG   C3141042   1.196   7.198   8.491
   54PVPG   O3241043   1.093   7.208   8.431
   54PVPG   C3241044   1.209   7.138   8.629
   54PVPG   H2X41045   1.311   7.095   8.645
   54PVPG   H2Y41046   1.128   7.065   8.643
   54PVPG   C2341047   1.427   7.646   8.653
   54PVPG   H3R41048   1.435   7.547   8.639
   54PVPG   H3S41049   1.333   7.640   8.706
   54PVPG   C2441050   1.564   7.638   8.710
   54PVPG   H4R41051   1.495   7.699   8.771
   54PVPG   H4S41052   1.643   7.681   8.648
   54PVPG   C2541053   1.636   7.569   8.824
   54PVPG   H5R41054   1.549   7.569   8.874
   54PVPG   H5S41055   1.677   7.605   8.912
   54PVPG   C2641056   1.742   7.468   8.800
   54PVPG   H6R41057   1.794   7.504   8.709
   54PVPG   H6S41058   1.726   7.394   8.737
   54PVPG   C2741059   1.761   7.331   8.874
   54PVPG   H7R41060   1.807   7.375   8.961
   54PVPG   H7S41061   1.809   7.261   8.803
   54PVPG   C2841062   1.677   7.199   8.889
   54PVPG   H8R41063   1.601   7.148   8.829
   54PVPG   H8S41064   1.598   7.251   8.912
   54PVPG   C2941065   1.705   7.108   9.003
   54PVPG   H9R41066   1.780   7.050   8.954
   54PVPG   H9S41067   1.606   7.052   9.022
   54PVPG  C21041068   1.795   7.149   9.134
   54PVPG  H10R41069   1.851   7.233   9.113
   54PVPG  H10S41070   1.786   7.085   9.204
   54PVPG  C21141071   1.685   7.234   9.165
   54PVPG  H11141072   1.601   7.177   9.155
   54PVPG  C21241073   1.682   7.313   9.284
   54PVPG  H12141074   1.577   7.354   9.241
   54PVPG  C21341075   1.749   7.456   9.319
   54PVPG  H13R41076   1.786   7.516   9.254
   54PVPG  H13S41077   1.793   7.353   9.342
   54PVPG  C21441078   1.733   7.551   9.467
   54PVPG  H14R41079   1.659   7.631   9.468
   54PVPG  H14S41080   1.811   7.625   9.469
   54PVPG  C21541081   1.665   7.504   9.602
   54PVPG  H15R41082   1.700   7.400   9.601
   54PVPG  H15S41083   1.570   7.487   9.608
   54PVPG  C21641084   1.651   7.589   9.730
   54PVPG  H16R41085   1.553   7.637   9.717
   54PVPG  H16S41086   1.721   7.672   9.712
   54PVPG  C21741087   1.676   7.512   9.868
   54PVPG  H17R41088   1.606   7.430   9.862
   54PVPG  H17S41089   1.646   7.590   9.937
   54PVPG  C21841090   1.805   7.443   9.929
   54PVPG  H18R41091   1.828   7.342   9.886
   54PVPG  H18S41092   1.894   7.509   9.919
   54PVPG  H18T41093   1.840   7.441  10.026
   54PVPG   C3341094   1.172   7.244   8.727
   54PVPG   H3X41095   1.071   7.284   8.729
   54PVPG   H3Y41096   1.206   7.339   8.682
   54PVPG   C3441097   1.210   7.206   8.870
   54PVPG   H4X41098   1.318   7.176   8.873
   54PVPG   H4Y41099   1.157   7.119   8.910
   54PVPG   C3541100   1.175   7.329   8.951
   54PVPG   H5X41101   1.198   7.420   8.892
   54PVPG   H5Y41102   1.225   7.336   9.045
   54PVPG   C3641103   1.050   7.355   9.021
   54PVPG   H6X41104   1.037   7.274   9.094
   54PVPG   H6Y41105   0.984   7.360   8.933
   54PVPG   C3741106   1.062   7.483   9.103
   54PVPG   H7X41107   0.963   7.524   9.122
   54PVPG   H7Y41108   1.120   7.557   9.052
   54PVPG   C3841109   1.134   7.479   9.238
   54PVPG   H8X41110   1.237   7.459   9.225
   54PVPG   H8Y41111   1.090   7.402   9.301
   54PVPG   C3941112   1.134   7.616   9.298
   54PVPG   H9X41113   1.027   7.629   9.320
   54PVPG   H9Y41114   1.185   7.682   9.223
   54PVPG  C31041115   1.212   7.656   9.417
   54PVPG  H10X41116   1.177   7.752   9.458
   54PVPG  H10Y41117   1.309   7.687   9.384
   54PVPG  C31141118   1.198   7.554   9.521
   54PVPG  H11X41119   1.224   7.450   9.489
   54PVPG  H11Y41120   1.090   7.550   9.541
   54PVPG  C31241121   1.269   7.601   9.646
   54PVPG  H12X41122   1.285   7.709   9.662
   54PVPG  H12Y41123   1.378   7.584   9.625
   54PVPG  C31341124   1.206   7.519   9.765
   54PVPG  H13X41125   1.150   7.580   9.835
   54PVPG  H13Y41126   1.294   7.530   9.834
   54PVPG  C31441127   1.145   7.362   9.733
   54PVPG  H14X41128   1.066   7.377   9.656
   54PVPG  H14Y41129   1.106   7.334   9.830
   54PVPG  C31541130   1.225   7.211   9.706
   54PVPG  H15X41131   1.249   7.232   9.597
   54PVPG  H15Y41132   1.198   7.120   9.665
   54PVPG  C31641133   1.339   7.140   9.808
   54PVPG  H16X41134   1.339   7.161   9.914
   54PVPG  H16Y41135   1.423   7.090   9.750
   54PVPG  H16Z41136   1.431   7.195   9.838
   55PVPG   C1341137   7.182   0.090   7.685
   55PVPG  H13A41138   7.172   0.028   7.777
   55PVPG  H13B41139   7.097   0.067   7.618
   55PVPG   OC341140   7.304   0.050   7.625
   55PVPG   HO341141   7.373   0.102   7.670
   55PVPG   C1241142   7.182   0.239   7.728
   55PVPG  H12A41143   7.076   0.268   7.748
   55PVPG   OC241144   7.226   0.325   7.623
   55PVPG   HO241145   7.242   0.410   7.664
   55PVPG   C1141146   7.262   0.256   7.861
   55PVPG  H11A41147   7.211   0.191   7.935
   55PVPG  H11B41148   7.255   0.360   7.901
   55PVPG     P41149   7.496   0.236   7.972
   55PVPG   O1341150   7.426   0.312   8.079
   55PVPG   O1441151   7.625   0.285   7.923
   55PVPG   O1241152   7.399   0.214   7.848
   55PVPG   O1141153   7.523   0.093   8.021
   55PVPG    C141154   7.452  -0.024   7.995
   55PVPG    HA41155   7.520  -0.092   7.938
   55PVPG    HB41156   7.359  -0.012   7.937
   55PVPG    C241157   7.425  -0.080   8.133
   55PVPG    HS41158   7.373  -0.178   8.119
   55PVPG   O2141159   7.350   0.003   8.218
   55PVPG   C2141160   7.222  -0.001   8.222
   55PVPG   O2241161   7.146  -0.072   8.159
   55PVPG   C2241162   7.183   0.120   8.304
   55PVPG   H2R41163   7.178   0.203   8.230
   55PVPG   H2S41164   7.266   0.144   8.374
   55PVPG    C341165   7.560  -0.094   8.203
   55PVPG    HX41166   7.610  -0.168   8.135
   55PVPG    HY41167   7.636  -0.016   8.203
   55PVPG   O3141168   7.524  -0.139   8.338
   55PVPG   C3141169   7.570  -0.077   8.441
   55PVPG   O3241170   7.660   0.005   8.441
   55PVPG   C3241171   7.484  -0.116   8.562
   55PVPG   H2X41172   7.527  -0.202   8.617
   55PVPG   H2Y41173   7.383  -0.146   8.526
   55PVPG   C2341174   7.054   0.100   8.382
   55PVPG   H3R41175   7.056   0.007   8.442
   55PVPG   H3S41176   6.967   0.098   8.312
   55PVPG   C2441177   7.031   0.216   8.477
   55PVPG   H4R41178   6.932   0.197   8.525
   55PVPG   H4S41179   7.022   0.304   8.409
   55PVPG   C2541180   7.135   0.233   8.593
   55PVPG   H5R41181   7.236   0.249   8.555
   55PVPG   H5S41182   7.127   0.136   8.649
   55PVPG   C2641183   7.118   0.339   8.705
   55PVPG   H6R41184   7.181   0.333   8.795
   55PVPG   H6S41185   7.035   0.287   8.750
   55PVPG   C2741186   7.113   0.490   8.671
   55PVPG   H7R41187   7.062   0.543   8.752
   55PVPG   H7S41188   7.055   0.525   8.586
   55PVPG   C2841189   7.236   0.546   8.606
   55PVPG   H8R41190   7.213   0.644   8.557
   55PVPG   H8S41191   7.254   0.473   8.523
   55PVPG   C2941192   7.356   0.549   8.698
   55PVPG   H9R41193   7.441   0.588   8.639
   55PVPG   H9S41194   7.373   0.442   8.721
   55PVPG  C21041195   7.344   0.622   8.833
   55PVPG  H10R41196   7.266   0.570   8.894
   55PVPG  H10S41197   7.313   0.726   8.814
   55PVPG  C21141198   7.472   0.627   8.909
   55PVPG  H11141199   7.528   0.720   8.894
   55PVPG  C21241200   7.527   0.528   8.982
   55PVPG  H12141201   7.621   0.549   9.035
   55PVPG  C21341202   7.472   0.388   9.002
   55PVPG  H13R41203   7.552   0.314   8.983
   55PVPG  H13S41204   7.392   0.365   8.928
   55PVPG  C21441205   7.413   0.371   9.144
   55PVPG  H14R41206   7.355   0.276   9.153
   55PVPG  H14S41207   7.341   0.454   9.158
   55PVPG  C21541208   7.516   0.369   9.258
   55PVPG  H15R41209   7.596   0.444   9.242
   55PVPG  H15S41210   7.567   0.270   9.263
   55PVPG  C21641211   7.456   0.387   9.397
   55PVPG  H16R41212   7.543   0.380   9.467
   55PVPG  H16S41213   7.387   0.303   9.421
   55PVPG  C21741214   7.391   0.523   9.425
   55PVPG  H17R41215   7.300   0.538   9.362
   55PVPG  H17S41216   7.464   0.604   9.402
   55PVPG  C21841217   7.355   0.530   9.572
   55PVPG  H18R41218   7.284   0.447   9.593
   55PVPG  H18S41219   7.450   0.514   9.629
   55PVPG  H18T41220   7.309   0.626   9.603
   55PVPG   C3341221   7.469   0.010   8.650
   55PVPG   H3X41222   7.430   0.094   8.587
   55PVPG   H3Y41223   7.570   0.039   8.688
   55PVPG   C3441224   7.381  -0.007   8.773
   55PVPG   H4X41225   7.278  -0.039   8.746
   55PVPG   H4Y41226   7.376   0.096   8.816
   55PVPG   C3541227   7.446  -0.104   8.872
   55PVPG   H5X41228   7.557  -0.090   8.871
   55PVPG   H5Y41229   7.424  -0.209   8.843
   55PVPG   C3641230   7.402  -0.091   9.017
   55PVPG   H6X41231   7.291  -0.080   9.023
   55PVPG   H6Y41232   7.449  -0.001   9.063
   55PVPG   C3741233   7.443  -0.219   9.089
   55PVPG   H7X41234   7.548  -0.247   9.065
   55PVPG   H7Y41235   7.377  -0.303   9.061
   55PVPG   C3841236   7.439  -0.207   9.237
   55PVPG   H8X41237   7.451  -0.304   9.289
   55PVPG   H8Y41238   7.344  -0.158   9.271
   55PVPG   C3941239   7.553  -0.129   9.285
   55PVPG   H9X41240   7.553  -0.023   9.244
   55PVPG   H9Y41241   7.654  -0.171   9.258
   55PVPG  C31041242   7.520  -0.135   9.435
   55PVPG  H10X41243   7.594  -0.072   9.421
   55PVPG  H10Y41244   7.589  -0.184   9.506
   55PVPG  C31141245   7.394  -0.050   9.488
   55PVPG  H11X41246   7.336  -0.141   9.512
   55PVPG  H11Y41247   7.360   0.022   9.412
   55PVPG  C31241248   7.364   0.027   9.622
   55PVPG  H12X41249   7.296   0.112   9.632
   55PVPG  H12Y41250   7.428   0.109   9.644
   55PVPG  C31341251   7.357  -0.069   9.737
   55PVPG  H13X41252   7.453  -0.127   9.745
   55PVPG  H13Y41253   7.260  -0.108   9.739
   55PVPG  C31441254   7.327  -0.022   9.875
   55PVPG  H14X41255   7.282   0.076   9.886
   55PVPG  H14Y41256   7.395   0.053   9.883
   55PVPG  C31541257   7.340  -0.126   9.988
   55PVPG  H15X41258   7.343  -0.099  10.094
   55PVPG  H15Y41259   7.436  -0.175   9.996
   55PVPG  C31641260   7.208  -0.173  10.022
   55PVPG  H16X41261   7.206  -0.264   9.969
   55PVPG  H16Y41262   7.190  -0.197  10.129
   55PVPG  H16Z41263   7.145  -0.088   9.984
   56PVPG   C1341264   8.058   0.897   7.867
   56PVPG  H13A41265   8.033   0.886   7.974
   56PVPG  H13B41266   8.132   0.979   7.850
   56PVPG   OC341267   7.941   0.930   7.790
   56PVPG   HO341268   7.887   0.852   7.779
   56PVPG   C1241269   8.132   0.770   7.821
   56PVPG  H12A41270   8.240   0.772   7.842
   56PVPG   OC241271   8.137   0.781   7.683
   56PVPG   HO241272   8.129   0.688   7.656
   56PVPG   C1141273   8.076   0.634   7.874
   56PVPG  H11A41274   7.965   0.628   7.869
   56PVPG  H11B41275   8.103   0.639   7.982
   56PVPG     P41276   8.248   0.437   7.882
   56PVPG   O1341277   8.332   0.527   7.961
   56PVPG   O1441278   8.309   0.340   7.788
   56PVPG   O1241279   8.137   0.522   7.806
   56PVPG   O1141280   8.154   0.358   7.976
   56PVPG    C141281   8.198   0.277   8.083
   56PVPG    HA41282   8.309   0.267   8.089
   56PVPG    HB41283   8.160   0.174   8.066
   56PVPG    C241284   8.134   0.323   8.217
   56PVPG    HS41285   8.151   0.242   8.283
   56PVPG   O2141286   7.995   0.354   8.202
   56PVPG   C2141287   7.899   0.286   8.264
   56PVPG   O2241288   7.904   0.194   8.339
   56PVPG   C2241289   7.765   0.323   8.235
   56PVPG   H2R41290   7.699   0.248   8.287
   56PVPG   H2S41291   7.757   0.308   8.127
   56PVPG    C341292   8.205   0.445   8.283
   56PVPG    HX41293   8.309   0.414   8.310
   56PVPG    HY41294   8.209   0.524   8.204
   56PVPG   O3141295   8.137   0.488   8.405
   56PVPG   C3141296   8.190   0.606   8.441
   56PVPG   O3241297   8.282   0.657   8.383
   56PVPG   C3241298   8.116   0.674   8.554
   56PVPG   H2X41299   8.022   0.713   8.509
   56PVPG   H2Y41300   8.179   0.761   8.583
   56PVPG   C2341301   7.742   0.463   8.289
   56PVPG   H3R41302   7.640   0.479   8.250
   56PVPG   H3S41303   7.812   0.534   8.239
   56PVPG   C2441304   7.748   0.484   8.443
   56PVPG   H4R41305   7.719   0.590   8.462
   56PVPG   H4S41306   7.851   0.467   8.480
   56PVPG   C2541307   7.654   0.399   8.530
   56PVPG   H5R41308   7.631   0.304   8.479
   56PVPG   H5S41309   7.558   0.454   8.537
   56PVPG   C2641310   7.707   0.369   8.671
   56PVPG   H6R41311   7.623   0.333   8.734
   56PVPG   H6S41312   7.751   0.456   8.723
   56PVPG   C2741313   7.818   0.267   8.676
   56PVPG   H7R41314   7.890   0.294   8.596
   56PVPG   H7S41315   7.781   0.162   8.664
   56PVPG   C2841316   7.897   0.283   8.804
   56PVPG   H8R41317   7.833   0.236   8.883
   56PVPG   H8S41318   7.924   0.386   8.825
   56PVPG   C2941319   8.034   0.226   8.813
   56PVPG   H9R41320   8.122   0.244   8.748
   56PVPG   H9S41321   8.015   0.133   8.770
   56PVPG  C21041322   8.067   0.209   8.961
   56PVPG  H10R41323   8.093   0.299   9.005
   56PVPG  H10S41324   8.170   0.176   8.925
   56PVPG  C21141325   7.986   0.131   9.072
   56PVPG  H11141326   7.987   0.022   9.073
   56PVPG  C21241327   7.964   0.138   9.198
   56PVPG  H12141328   7.930   0.045   9.250
   56PVPG  C21341329   8.029   0.248   9.265
   56PVPG  H13R41330   8.091   0.309   9.197
   56PVPG  H13S41331   8.096   0.232   9.349
   56PVPG  C21441332   7.919   0.305   9.340
   56PVPG  H14R41333   7.817   0.271   9.306
   56PVPG  H14S41334   7.927   0.410   9.314
   56PVPG  C21541335   7.947   0.288   9.492
   56PVPG  H15R41336   8.046   0.327   9.519
   56PVPG  H15S41337   7.955   0.177   9.516
   56PVPG  C21641338   7.833   0.354   9.570
   56PVPG  H16R41339   7.733   0.310   9.561
   56PVPG  H16S41340   7.807   0.452   9.529
   56PVPG  C21741341   7.856   0.341   9.718
   56PVPG  H17R41342   7.942   0.402   9.747
   56PVPG  H17S41343   7.887   0.236   9.735
   56PVPG  C21841344   7.730   0.376   9.796
   56PVPG  H18R41345   7.675   0.463   9.756
   56PVPG  H18S41346   7.660   0.298   9.776
   56PVPG  H18T41347   7.745   0.381   9.905
   56PVPG   C3341348   8.088   0.586   8.677
   56PVPG   H3X41349   8.180   0.532   8.708
   56PVPG   H3Y41350   8.011   0.510   8.651
   56PVPG   C3441351   8.042   0.673   8.795
   56PVPG   H4X41352   7.940   0.709   8.772
   56PVPG   H4Y41353   8.110   0.761   8.798
   56PVPG   C3541354   8.036   0.604   8.933
   56PVPG   H5X41355   7.944   0.543   8.937
   56PVPG   H5Y41356   8.020   0.679   9.014
   56PVPG   C3641357   8.157   0.520   8.976
   56PVPG   H6X41358   8.181   0.437   8.904
   56PVPG   H6Y41359   8.129   0.471   9.072
   56PVPG   C3741360   8.281   0.601   9.001
   56PVPG   H7X41361   8.308   0.653   8.908
   56PVPG   H7Y41362   8.364   0.533   9.031
   56PVPG   C3841363   8.261   0.700   9.115
   56PVPG   H8X41364   8.178   0.771   9.094
   56PVPG   H8Y41365   8.354   0.761   9.122
   56PVPG   C3941366   8.231   0.624   9.244
   56PVPG   H9X41367   8.320   0.560   9.269
   56PVPG   H9Y41368   8.136   0.568   9.248
   56PVPG  C31041369   8.199   0.715   9.358
   56PVPG  H10X41370   8.121   0.791   9.348
   56PVPG  H10Y41371   8.289   0.766   9.331
   56PVPG  C31141372   8.209   0.636   9.486
   56PVPG  H11X41373   8.303   0.580   9.465
   56PVPG  H11Y41374   8.142   0.553   9.504
   56PVPG  C31241375   8.196   0.717   9.616
   56PVPG  H12X41376   8.252   0.811   9.593
   56PVPG  H12Y41377   8.237   0.677   9.711
   56PVPG  C31341378   8.054   0.717   9.653
   56PVPG  H13X41379   8.000   0.627   9.630
   56PVPG  H13Y41380   8.040   0.777   9.559
   56PVPG  C31441381   8.018   0.761   9.800
   56PVPG  H14X41382   8.112   0.807   9.845
   56PVPG  H14Y41383   8.012   0.682   9.875
   56PVPG  C31541384   7.884   0.845   9.810
   56PVPG  H15X41385   7.874   0.935   9.751
   56PVPG  H15Y41386   7.885   0.920   9.887
   56PVPG  C31641387   7.751   0.791   9.762
   56PVPG  H16X41388   7.753   0.781   9.652
   56PVPG  H16Y41389   7.734   0.707   9.828
   56PVPG  H16Z41390   7.665   0.861   9.775
   57PPPE     N41391   3.946   4.637   7.797
   57PPPE   HN141392   3.973   4.679   7.887
   57PPPE   HN241393   4.027   4.637   7.730
   57PPPE   HN341394   3.863   4.683   7.753
   57PPPE   C1241395   3.918   4.491   7.807
   57PPPE  H12A41396   3.997   4.448   7.871
   57PPPE  H12B41397   3.932   4.458   7.703
   57PPPE   C1141398   3.779   4.458   7.863
   57PPPE  H11A41399   3.781   4.485   7.971
   57PPPE  H11B41400   3.760   4.348   7.854
   57PPPE     P41401   3.524   4.509   7.837
   57PPPE   O1341402   3.439   4.582   7.743
   57PPPE   O1441403   3.492   4.367   7.863
   57PPPE   O1141404   3.527   4.587   7.973
   57PPPE   O1241405   3.677   4.530   7.795
   57PPPE    C141406   3.578   4.719   7.989
   57PPPE    HA41407   3.490   4.787   7.991
   57PPPE    HB41408   3.643   4.752   7.905
   57PPPE    C241409   3.660   4.725   8.121
   57PPPE    HS41410   3.756   4.673   8.104
   57PPPE   O2141411   3.587   4.652   8.220
   57PPPE   C2141412   3.646   4.567   8.305
   57PPPE   O2241413   3.767   4.561   8.317
   57PPPE   C2241414   3.549   4.472   8.387
   57PPPE   H2R41415   3.478   4.418   8.324
   57PPPE   H2S41416   3.466   4.520   8.433
   57PPPE    C341417   3.687   4.873   8.165
   57PPPE    HX41418   3.697   4.932   8.072
   57PPPE    HY41419   3.602   4.922   8.214
   57PPPE   O3141420   3.812   4.883   8.237
   57PPPE   C3141421   3.816   4.888   8.371
   57PPPE   O3241422   3.723   4.910   8.445
   57PPPE   C3241423   3.959   4.860   8.418
   57PPPE   H2X41424   4.032   4.932   8.376
   57PPPE   H2Y41425   3.987   4.757   8.390
   57PPPE   C2341426   3.613   4.392   8.507
   57PPPE   H3R41427   3.685   4.326   8.457
   57PPPE   H3S41428   3.532   4.334   8.557
   57PPPE   C2441429   3.694   4.462   8.619
   57PPPE   H4R41430   3.627   4.517   8.680
   57PPPE   H4S41431   3.771   4.532   8.582
   57PPPE   C2541432   3.731   4.384   8.745
   57PPPE   H5R41433   3.792   4.305   8.701
   57PPPE   H5S41434   3.641   4.342   8.798
   57PPPE   C2641435   3.814   4.466   8.846
   57PPPE   H6R41436   3.884   4.532   8.791
   57PPPE   H6S41437   3.872   4.391   8.903
   57PPPE   C2741438   3.736   4.545   8.952
   57PPPE   H7R41439   3.660   4.481   9.001
   57PPPE   H7S41440   3.689   4.631   8.906
   57PPPE   C2841441   3.822   4.616   9.055
   57PPPE   H8R41442   3.907   4.664   9.001
   57PPPE   H8S41443   3.861   4.541   9.125
   57PPPE   C2941444   3.743   4.723   9.125
   57PPPE   H9141445   3.719   4.813   9.066
   57PPPE  C21041446   3.696   4.711   9.248
   57PPPE  H10141447   3.651   4.800   9.293
   57PPPE  C21141448   3.711   4.592   9.339
   57PPPE  H11R41449   3.727   4.631   9.441
   57PPPE  H11S41450   3.792   4.522   9.312
   57PPPE  C21241451   3.596   4.498   9.346
   57PPPE  H12R41452   3.625   4.395   9.377
   57PPPE  H12S41453   3.536   4.495   9.250
   57PPPE  C21341454   3.513   4.546   9.458
   57PPPE  H13R41455   3.438   4.483   9.425
   57PPPE  H13S41456   3.484   4.650   9.452
   57PPPE  C21441457   3.536   4.526   9.602
   57PPPE  H14R41458   3.598   4.613   9.630
   57PPPE  H14S41459   3.565   4.422   9.625
   57PPPE  C21541460   3.414   4.547   9.679
   57PPPE  H15R41461   3.334   4.501   9.625
   57PPPE  H15S41462   3.356   4.623   9.635
   57PPPE  C21641463   3.422   4.518   9.835
   57PPPE  H16R41464   3.467   4.423   9.863
   57PPPE  H16S41465   3.461   4.608   9.886
   57PPPE  H16T41466   3.321   4.499   9.882
   57PPPE   C3341467   3.967   4.858   8.569
   57PPPE   H3X41468   4.059   4.803   8.601
   57PPPE   H3Y41469   3.881   4.807   8.617
   57PPPE   C3441470   3.984   4.995   8.621
   57PPPE   H4X41471   3.907   5.072   8.596
   57PPPE   H4Y41472   4.082   5.039   8.588
   57PPPE   C3541473   3.986   4.974   8.769
   57PPPE   H5X41474   4.019   5.074   8.775
   57PPPE   H5Y41475   4.067   4.919   8.810
   57PPPE   C3641476   3.857   4.934   8.842
   57PPPE   H6X41477   3.866   4.948   8.953
   57PPPE   H6Y41478   3.852   4.825   8.826
   57PPPE   C3741479   3.736   5.013   8.789
   57PPPE   H7X41480   3.718   4.971   8.688
   57PPPE   H7Y41481   3.741   5.124   8.783
   57PPPE   C3841482   3.609   4.985   8.862
   57PPPE   H8X41483   3.627   4.879   8.863
   57PPPE   H8Y41484   3.520   5.017   8.802
   57PPPE   C3941485   3.593   5.042   9.003
   57PPPE   H9X41486   3.620   5.132   8.957
   57PPPE   H9Y41487   3.660   5.014   9.086
   57PPPE  C31041488   3.448   5.049   9.052
   57PPPE  H10X41489   3.480   4.958   9.096
   57PPPE  H10Y41490   3.376   5.043   8.969
   57PPPE  C31141491   3.386   5.120   9.173
   57PPPE  H11X41492   3.276   5.106   9.187
   57PPPE  H11Y41493   3.378   5.220   9.148
   57PPPE  C31241494   3.473   5.095   9.296
   57PPPE  H12X41495   3.571   5.134   9.269
   57PPPE  H12Y41496   3.493   4.993   9.328
   57PPPE  C31341497   3.414   5.133   9.426
   57PPPE  H13X41498   3.369   5.214   9.393
   57PPPE  H13Y41499   3.488   5.163   9.503
   57PPPE  C31441500   3.272   5.102   9.470
   57PPPE  H14X41501   3.187   5.105   9.399
   57PPPE  H14Y41502   3.248   5.173   9.555
   57PPPE  C31541503   3.285   4.962   9.502
   57PPPE  H15X41504   3.315   4.899   9.426
   57PPPE  H15Y41505   3.192   4.924   9.541
   57PPPE  C31641506   3.397   4.950   9.590
   57PPPE  H16X41507   3.501   4.972   9.573
   57PPPE  H16Y41508   3.368   5.040   9.650
   57PPPE  H16Z41509   3.398   4.853   9.642
   58PPPE     N41510   3.810   3.565   7.785
   58PPPE   HN141511   3.853   3.646   7.831
   58PPPE   HN241512   3.737   3.521   7.847
   58PPPE   HN341513   3.883   3.496   7.756
   58PPPE   C1241514   3.727   3.619   7.673
   58PPPE  H12A41515   3.707   3.538   7.606
   58PPPE  H12B41516   3.783   3.693   7.615
   58PPPE   C1141517   3.597   3.672   7.733
   58PPPE  H11A41518   3.532   3.711   7.652
   58PPPE  H11B41519   3.626   3.755   7.802
   58PPPE     P41520   3.409   3.596   7.902
   58PPPE   O1341521   3.312   3.686   7.837
   58PPPE   O1441522   3.362   3.468   7.956
   58PPPE   O1141523   3.490   3.678   8.010
   58PPPE   O1241524   3.530   3.566   7.802
   58PPPE    C141525   3.613   3.626   8.061
   58PPPE    HA41526   3.697   3.676   8.009
   58PPPE    HB41527   3.623   3.516   8.046
   58PPPE    C241528   3.626   3.657   8.211
   58PPPE    HS41529   3.723   3.614   8.246
   58PPPE   O2141530   3.511   3.606   8.283
   58PPPE   C2141531   3.524   3.488   8.342
   58PPPE   O2241532   3.628   3.425   8.349
   58PPPE   C2241533   3.390   3.441   8.403
   58PPPE   H2R41534   3.347   3.365   8.334
   58PPPE   H2S41535   3.317   3.523   8.410
   58PPPE    C341536   3.637   3.810   8.228
   58PPPE    HX41537   3.697   3.844   8.141
   58PPPE    HY41538   3.539   3.863   8.223
   58PPPE   O3141539   3.711   3.845   8.345
   58PPPE   C3141540   3.647   3.843   8.460
   58PPPE   O3241541   3.530   3.818   8.478
   58PPPE   C3241542   3.749   3.872   8.571
   58PPPE   H2X41543   3.765   3.981   8.583
   58PPPE   H2Y41544   3.844   3.823   8.539
   58PPPE   C2341545   3.413   3.378   8.544
   58PPPE   H3R41546   3.513   3.329   8.547
   58PPPE   H3S41547   3.337   3.300   8.565
   58PPPE   C2441548   3.400   3.481   8.658
   58PPPE   H4R41549   3.316   3.548   8.630
   58PPPE   H4S41550   3.492   3.543   8.666
   58PPPE   C2541551   3.369   3.422   8.798
   58PPPE   H5R41552   3.277   3.359   8.793
   58PPPE   H5S41553   3.346   3.509   8.864
   58PPPE   C2641554   3.487   3.346   8.861
   58PPPE   H6R41555   3.576   3.413   8.862
   58PPPE   H6S41556   3.515   3.258   8.799
   58PPPE   C2741557   3.465   3.301   9.007
   58PPPE   H7R41558   3.390   3.221   9.011
   58PPPE   H7S41559   3.422   3.383   9.067
   58PPPE   C2841560   3.591   3.242   9.074
   58PPPE   H8R41561   3.631   3.161   9.012
   58PPPE   H8S41562   3.556   3.199   9.171
   58PPPE   C2941563   3.706   3.335   9.092
   58PPPE   H9141564   3.750   3.370   8.997
   58PPPE  C21041565   3.763   3.367   9.208
   58PPPE  H10141566   3.840   3.446   9.207
   58PPPE  C21141567   3.724   3.316   9.344
   58PPPE  H11R41568   3.813   3.310   9.408
   58PPPE  H11S41569   3.672   3.218   9.345
   58PPPE  C21241570   3.629   3.412   9.409
   58PPPE  H12R41571   3.532   3.410   9.354
   58PPPE  H12S41572   3.674   3.515   9.402
   58PPPE  C21341573   3.596   3.386   9.557
   58PPPE  H13R41574   3.550   3.288   9.573
   58PPPE  H13S41575   3.516   3.447   9.601
   58PPPE  C21441576   3.708   3.428   9.646
   58PPPE  H14R41577   3.710   3.538   9.669
   58PPPE  H14S41578   3.804   3.402   9.597
   58PPPE  C21541579   3.695   3.350   9.772
   58PPPE  H15R41580   3.675   3.244   9.746
   58PPPE  H15S41581   3.607   3.388   9.831
   58PPPE  C21641582   3.826   3.368   9.842
   58PPPE  H16R41583   3.811   3.355   9.943
   58PPPE  H16S41584   3.902   3.291   9.819
   58PPPE  H16T41585   3.858   3.472   9.854
   58PPPE   C3341586   3.705   3.808   8.703
   58PPPE   H3X41587   3.654   3.711   8.679
   58PPPE   H3Y41588   3.632   3.874   8.754
   58PPPE   C3441589   3.823   3.780   8.797
   58PPPE   H4X41590   3.867   3.876   8.832
   58PPPE   H4Y41591   3.900   3.727   8.738
   58PPPE   C3541592   3.787   3.692   8.919
   58PPPE   H5X41593   3.879   3.680   8.978
   58PPPE   H5Y41594   3.752   3.592   8.886
   58PPPE   C3641595   3.678   3.751   9.007
   58PPPE   H6X41596   3.585   3.755   8.945
   58PPPE   H6Y41597   3.705   3.856   9.033
   58PPPE   C3741598   3.651   3.680   9.140
   58PPPE   H7X41599   3.744   3.651   9.194
   58PPPE   H7Y41600   3.593   3.586   9.127
   58PPPE   C3841601   3.583   3.780   9.234
   58PPPE   H8X41602   3.646   3.869   9.245
   58PPPE   H8Y41603   3.592   3.739   9.336
   58PPPE   C3941604   3.439   3.814   9.187
   58PPPE   H9X41605   3.390   3.723   9.142
   58PPPE   H9Y41606   3.446   3.890   9.107
   58PPPE  C31041607   3.339   3.859   9.295
   58PPPE  H10X41608   3.308   3.774   9.350
   58PPPE  H10Y41609   3.237   3.883   9.260
   58PPPE  C31141610   3.389   3.965   9.390
   58PPPE  H11X41611   3.410   4.051   9.324
   58PPPE  H11Y41612   3.485   3.943   9.441
   58PPPE  C31241613   3.281   4.003   9.491
   58PPPE  H12X41614   3.176   3.991   9.458
   58PPPE  H12Y41615   3.304   4.106   9.506
   58PPPE  C31341616   3.306   3.957   9.630
   58PPPE  H13X41617   3.413   3.968   9.656
   58PPPE  H13Y41618   3.274   3.855   9.628
   58PPPE  C31441619   3.206   3.982   9.738
   58PPPE  H14X41620   3.114   3.949   9.696
   58PPPE  H14Y41621   3.210   4.082   9.777
   58PPPE  C31541622   3.210   3.905   9.865
   58PPPE  H15X41623   3.141   3.945   9.943
   58PPPE  H15Y41624   3.312   3.942   9.892
   58PPPE  C31641625   3.185   3.754   9.876
   58PPPE  H16X41626   3.185   3.718   9.980
   58PPPE  H16Y41627   3.139   3.689   9.804
   58PPPE  H16Z41628   3.248   3.681   9.841
   59PPPE     N41629   4.344   2.766   7.675
   59PPPE   HN141630   4.375   2.713   7.759
   59PPPE   HN241631   4.242   2.782   7.679
   59PPPE   HN341632   4.371   2.708   7.592
   59PPPE   C1241633   4.407   2.903   7.669
   59PPPE  H12A41634   4.365   2.953   7.580
   59PPPE  H12B41635   4.517   2.892   7.657
   59PPPE   C1141636   4.374   2.990   7.790
   59PPPE  H11A41637   4.425   3.087   7.771
   59PPPE  H11B41638   4.422   2.942   7.879
   59PPPE     P41639   4.176   3.126   7.904
   59PPPE   O1341640   4.189   3.260   7.842
   59PPPE   O1441641   4.043   3.084   7.954
   59PPPE   O1141642   4.280   3.117   8.023
   59PPPE   O1241643   4.232   3.010   7.805
   59PPPE    C141644   4.296   2.995   8.096
   59PPPE    HA41645   4.404   2.981   8.120
   59PPPE    HB41646   4.266   2.905   8.037
   59PPPE    C241647   4.220   2.988   8.230
   59PPPE    HS41648   4.111   3.003   8.217
   59PPPE   O2141649   4.270   3.085   8.321
   59PPPE   C2141650   4.202   3.080   8.434
   59PPPE   O2241651   4.109   3.010   8.465
   59PPPE   C2241652   4.243   3.199   8.503
   59PPPE   H2R41653   4.213   3.277   8.426
   59PPPE   H2S41654   4.354   3.191   8.516
   59PPPE    C341655   4.252   2.850   8.284
   59PPPE    HX41656   4.188   2.818   8.369
   59PPPE    HY41657   4.222   2.785   8.198
   59PPPE   O3141658   4.394   2.853   8.316
   59PPPE   C3141659   4.467   2.754   8.265
   59PPPE   O3241660   4.425   2.670   8.190
   59PPPE   C3241661   4.600   2.732   8.330
   59PPPE   H2X41662   4.677   2.785   8.274
   59PPPE   H2Y41663   4.632   2.622   8.326
   59PPPE   C2341664   4.172   3.242   8.631
   59PPPE   H3R41665   4.064   3.228   8.616
   59PPPE   H3S41666   4.189   3.352   8.646
   59PPPE   C2441667   4.217   3.162   8.752
   59PPPE   H4R41668   4.325   3.155   8.760
   59PPPE   H4S41669   4.191   3.056   8.734
   59PPPE   C2541670   4.152   3.202   8.885
   59PPPE   H5R41671   4.205   3.144   8.964
   59PPPE   H5S41672   4.047   3.169   8.886
   59PPPE   C2641673   4.146   3.351   8.918
   59PPPE   H6R41674   4.097   3.369   9.016
   59PPPE   H6S41675   4.103   3.414   8.838
   59PPPE   C2741676   4.277   3.410   8.936
   59PPPE   H7R41677   4.307   3.509   8.936
   59PPPE   H7S41678   4.331   3.408   8.845
   59PPPE   C2841679   4.328   3.391   9.075
   59PPPE   H8R41680   4.409   3.472   9.073
   59PPPE   H8S41681   4.335   3.281   9.063
   59PPPE   C2941682   4.323   3.423   9.213
   59PPPE   H9141683   4.369   3.521   9.239
   59PPPE  C21041684   4.294   3.329   9.297
   59PPPE  H10141685   4.260   3.374   9.389
   59PPPE  C21141686   4.260   3.183   9.265
   59PPPE  H11R41687   4.351   3.125   9.237
   59PPPE  H11S41688   4.186   3.169   9.183
   59PPPE  C21241689   4.198   3.129   9.393
   59PPPE  H12R41690   4.132   3.207   9.436
   59PPPE  H12S41691   4.277   3.108   9.467
   59PPPE  C21341692   4.109   3.007   9.377
   59PPPE  H13R41693   4.165   2.928   9.326
   59PPPE  H13S41694   4.027   3.023   9.304
   59PPPE  C21441695   4.040   2.981   9.514
   59PPPE  H14R41696   3.954   2.912   9.493
   59PPPE  H14S41697   4.002   3.075   9.555
   59PPPE  C21541698   4.124   2.940   9.638
   59PPPE  H15R41699   4.231   2.964   9.648
   59PPPE  H15S41700   4.135   2.858   9.584
   59PPPE  C21641701   4.067   2.848   9.744
   59PPPE  H16R41702   4.002   2.914   9.802
   59PPPE  H16S41703   4.008   2.768   9.690
   59PPPE  H16T41704   4.143   2.797   9.807
   59PPPE   C3341705   4.592   2.768   8.478
   59PPPE   H3X41706   4.692   2.717   8.482
   59PPPE   H3Y41707   4.580   2.700   8.560
   59PPPE   C3441708   4.544   2.914   8.533
   59PPPE   H4X41709   4.438   2.919   8.522
   59PPPE   H4Y41710   4.589   2.990   8.467
   59PPPE   C3541711   4.561   2.966   8.684
   59PPPE   H5X41712   4.525   3.067   8.703
   59PPPE   H5Y41713   4.664   3.006   8.702
   59PPPE   C3641714   4.516   2.854   8.787
   59PPPE   H6X41715   4.525   2.865   8.898
   59PPPE   H6Y41716   4.556   2.749   8.781
   59PPPE   C3741717   4.388   2.872   8.828
   59PPPE   H7X41718   4.369   2.868   8.721
   59PPPE   H7Y41719   4.368   2.973   8.863
   59PPPE   C3841720   4.356   2.752   8.917
   59PPPE   H8X41721   4.389   2.653   8.872
   59PPPE   H8Y41722   4.248   2.775   8.912
   59PPPE   C3941723   4.362   2.744   9.058
   59PPPE   H9X41724   4.296   2.656   9.072
   59PPPE   H9Y41725   4.317   2.837   9.095
   59PPPE  C31041726   4.496   2.699   9.102
   59PPPE  H10X41727   4.570   2.742   9.041
   59PPPE  H10Y41728   4.510   2.590   9.082
   59PPPE  C31141729   4.534   2.751   9.238
   59PPPE  H11X41730   4.603   2.680   9.289
   59PPPE  H11Y41731   4.444   2.749   9.293
   59PPPE  C31241732   4.500   2.890   9.290
   59PPPE  H12X41733   4.393   2.922   9.293
   59PPPE  H12Y41734   4.554   2.957   9.225
   59PPPE  C31341735   4.543   2.899   9.436
   59PPPE  H13X41736   4.633   2.846   9.426
   59PPPE  H13Y41737   4.515   2.827   9.513
   59PPPE  C31441738   4.555   3.041   9.489
   59PPPE  H14X41739   4.466   3.086   9.445
   59PPPE  H14Y41740   4.640   3.094   9.441
   59PPPE  C31541741   4.536   3.057   9.643
   59PPPE  H15X41742   4.453   2.991   9.674
   59PPPE  H15Y41743   4.518   3.164   9.666
   59PPPE  C31641744   4.639   3.021   9.745
   59PPPE  H16X41745   4.730   3.085   9.728
   59PPPE  H16Y41746   4.630   3.008   9.852
   59PPPE  H16Z41747   4.654   2.911   9.729
   60PPPE     N41748   4.962   3.347   8.128
   60PPPE   HN141749   5.024   3.281   8.185
   60PPPE   HN241750   4.985   3.445   8.151
   60PPPE   HN341751   4.864   3.321   8.148
   60PPPE   C1241752   4.987   3.320   7.983
   60PPPE  H12A41753   4.935   3.224   7.957
   60PPPE  H12B41754   5.099   3.321   7.989
   60PPPE   C1141755   4.997   3.401   7.863
   60PPPE  H11A41756   5.024   3.327   7.780
   60PPPE  H11B41757   5.078   3.477   7.879
   60PPPE     P41758   4.851   3.535   7.724
   60PPPE   O1341759   4.922   3.463   7.617
   60PPPE   O1441760   4.706   3.556   7.714
   60PPPE   O1141761   4.932   3.664   7.765
   60PPPE   O1241762   4.868   3.450   7.855
   60PPPE    C141763   4.871   3.776   7.823
   60PPPE    HA41764   4.779   3.747   7.870
   60PPPE    HB41765   4.839   3.845   7.741
   60PPPE    C241766   4.974   3.845   7.918
   60PPPE    HS41767   5.059   3.850   7.848
   60PPPE   O2141768   5.018   3.769   8.031
   60PPPE   C2141769   5.145   3.782   8.068
   60PPPE   O2241770   5.225   3.864   8.035
   60PPPE   C2241771   5.191   3.659   8.131
   60PPPE   H2R41772   5.290   3.642   8.082
   60PPPE   H2S41773   5.122   3.580   8.102
   60PPPE    C341774   4.926   3.984   7.972
   60PPPE    HX41775   4.994   4.055   8.019
   60PPPE    HY41776   4.888   4.043   7.885
   60PPPE   O3141777   4.860   3.986   8.089
   60PPPE   C3141778   4.748   4.024   8.060
   60PPPE   O3241779   4.696   4.031   7.945
   60PPPE   C3241780   4.709   3.962   8.202
   60PPPE   H2X41781   4.649   3.963   8.109
   60PPPE   H2Y41782   4.671   4.027   8.273
   60PPPE   C2341783   5.219   3.674   8.280
   60PPPE   H3R41784   5.149   3.731   8.344
   60PPPE   H3S41785   5.312   3.731   8.277
   60PPPE   C2441786   5.250   3.538   8.337
   60PPPE   H4R41787   5.314   3.481   8.267
   60PPPE   H4S41788   5.155   3.482   8.349
   60PPPE   C2541789   5.313   3.545   8.475
   60PPPE   H5R41790   5.401   3.613   8.481
   60PPPE   H5S41791   5.353   3.443   8.498
   60PPPE   C2641792   5.204   3.586   8.574
   60PPPE   H6R41793   5.104   3.557   8.534
   60PPPE   H6S41794   5.205   3.697   8.583
   60PPPE   C2741795   5.224   3.520   8.709
   60PPPE   H7R41796   5.331   3.538   8.734
   60PPPE   H7S41797   5.208   3.410   8.696
   60PPPE   C2841798   5.127   3.563   8.820
   60PPPE   H8R41799   5.140   3.491   8.903
   60PPPE   H8S41800   5.021   3.551   8.790
   60PPPE   C2941801   5.149   3.703   8.866
   60PPPE   H9141802   5.111   3.782   8.800
   60PPPE  C21041803   5.211   3.737   8.978
   60PPPE  H10141804   5.226   3.842   9.003
   60PPPE  C21141805   5.270   3.647   9.077
   60PPPE  H11R41806   5.378   3.662   9.066
   60PPPE  H11S41807   5.247   3.541   9.063
   60PPPE  C21241808   5.233   3.679   9.218
   60PPPE  H12R41809   5.297   3.627   9.289
   60PPPE  H12S41810   5.136   3.659   9.255
   60PPPE  C21341811   5.251   3.818   9.251
   60PPPE  H13R41812   5.212   3.899   9.190
   60PPPE  H13S41813   5.353   3.800   9.246
   60PPPE  C21441814   5.248   3.853   9.389
   60PPPE  H14R41815   5.141   3.821   9.403
   60PPPE  H14S41816   5.279   3.959   9.408
   60PPPE  C21541817   5.324   3.791   9.485
   60PPPE  H15R41818   5.431   3.785   9.490
   60PPPE  H15S41819   5.264   3.707   9.471
   60PPPE  C21641820   5.283   3.814   9.610
   60PPPE  H16R41821   5.246   3.731   9.664
   60PPPE  H16S41822   5.286   3.913   9.652
   60PPPE  H16T41823   5.221   3.882   9.661
   60PPPE   C3341824   4.718   3.819   8.291
   60PPPE   H3X41825   4.820   3.790   8.284
   60PPPE   H3Y41826   4.677   3.725   8.255
   60PPPE   C3441827   4.620   3.739   8.387
   60PPPE   H4X41828   4.656   3.628   8.397
   60PPPE   H4Y41829   4.508   3.736   8.369
   60PPPE   C3541830   4.661   3.796   8.513
   60PPPE   H5X41831   4.625   3.900   8.509
   60PPPE   H5Y41832   4.771   3.787   8.505
   60PPPE   C3641833   4.610   3.717   8.628
   60PPPE   H6X41834   4.621   3.612   8.595
   60PPPE   H6Y41835   4.503   3.745   8.641
   60PPPE   C3741836   4.678   3.730   8.760
   60PPPE   H7X41837   4.769   3.665   8.760
   60PPPE   H7Y41838   4.610   3.691   8.839
   60PPPE   C3841839   4.706   3.875   8.795
   60PPPE   H8X41840   4.611   3.921   8.831
   60PPPE   H8Y41841   4.736   3.931   8.704
   60PPPE   C3941842   4.824   3.886   8.890
   60PPPE   H9X41843   4.838   3.993   8.917
   60PPPE   H9Y41844   4.912   3.848   8.837
   60PPPE  C31041845   4.812   3.807   9.020
   60PPPE  H10X41846   4.904   3.825   9.080
   60PPPE  H10Y41847   4.807   3.697   9.000
   60PPPE  C31141848   4.689   3.869   9.085
   60PPPE  H11X41849   4.592   3.820   9.052
   60PPPE  H11Y41850   4.693   3.978   9.094
   60PPPE  C31241851   4.676   3.858   9.228
   60PPPE  H12X41852   4.674   3.751   9.204
   60PPPE  H12Y41853   4.575   3.849   9.269
   60PPPE  C31341854   4.780   3.924   9.324
   60PPPE  H13X41855   4.773   4.032   9.330
   60PPPE  H13Y41856   4.883   3.897   9.279
   60PPPE  C31441857   4.789   3.900   9.482
   60PPPE  H14X41858   4.879   3.850   9.450
   60PPPE  H14Y41859   4.773   3.813   9.551
   60PPPE  C31541860   4.722   3.959   9.603
   60PPPE  H15X41861   4.624   3.976   9.560
   60PPPE  H15Y41862   4.785   4.046   9.589
   60PPPE  C31641863   4.705   3.887   9.747
   60PPPE  H16X41864   4.786   3.824   9.767
   60PPPE  H16Y41865   4.728   3.943   9.841
   60PPPE  H16Z41866   4.682   3.784   9.767
   61PPPE     N41867   5.175   4.050   7.891
   61PPPE   HN141868   5.106   4.044   7.970
   61PPPE   HN241869   5.209   3.952   7.907
   61PPPE   HN341870   5.246   4.115   7.926
   61PPPE   C1241871   5.103   4.067   7.760
   61PPPE  H12A41872   5.019   3.997   7.740
   61PPPE  H12B41873   5.177   4.041   7.685
   61PPPE   C1141874   5.025   4.194   7.764
   61PPPE  H11A41875   4.966   4.207   7.860
   61PPPE  H11B41876   4.950   4.190   7.683
   61PPPE     P41877   5.101   4.423   7.844
   61PPPE   O1341878   5.190   4.525   7.793
   61PPPE   O1441879   4.957   4.448   7.859
   61PPPE   O1141880   5.158   4.353   7.977
   61PPPE   O1241881   5.117   4.297   7.748
   61PPPE    C141882   5.099   4.372   8.106
   61PPPE    HA41883   5.011   4.304   8.115
   61PPPE    HB41884   5.067   4.477   8.122
   61PPPE    C241885   5.202   4.339   8.218
   61PPPE    HS41886   5.295   4.395   8.194
   61PPPE   O2141887   5.220   4.197   8.220
   61PPPE   C2141888   5.329   4.153   8.275
   61PPPE   O2241889   5.429   4.218   8.303
   61PPPE   C2241890   5.309   4.005   8.290
   61PPPE   H2R41891   5.314   3.961   8.193
   61PPPE   H2S41892   5.222   3.979   8.355
   61PPPE    C341893   5.153   4.385   8.357
   61PPPE    HX41894   5.227   4.350   8.434
   61PPPE    HY41895   5.155   4.497   8.358
   61PPPE   O3141896   5.021   4.334   8.383
   61PPPE   C3141897   4.980   4.364   8.506
   61PPPE   O3241898   5.043   4.437   8.582
   61PPPE   C3241899   4.853   4.281   8.538
   61PPPE   H2X41900   4.879   4.188   8.588
   61PPPE   H2Y41901   4.795   4.267   8.444
   61PPPE   C2341902   5.423   3.942   8.348
   61PPPE   H3R41903   5.516   3.965   8.290
   61PPPE   H3S41904   5.433   3.830   8.356
   61PPPE   C2441905   5.412   4.007   8.484
   61PPPE   H4R41906   5.474   4.098   8.496
   61PPPE   H4S41907   5.450   3.913   8.511
   61PPPE   C2541908   5.309   3.994   8.591
   61PPPE   H5R41909   5.274   3.887   8.584
   61PPPE   H5S41910   5.246   4.076   8.560
   61PPPE   C2641911   5.352   4.018   8.734
   61PPPE   H6R41912   5.425   4.099   8.754
   61PPPE   H6S41913   5.378   3.915   8.756
   61PPPE   C2741914   5.247   4.041   8.836
   61PPPE   H7R41915   5.191   3.947   8.834
   61PPPE   H7S41916   5.191   4.123   8.791
   61PPPE   C2841917   5.290   4.080   8.981
   61PPPE   H8R41918   5.330   3.993   9.035
   61PPPE   H8S41919   5.191   4.099   9.024
   61PPPE   C2941920   5.379   4.204   8.991
   61PPPE   H9141921   5.337   4.282   8.928
   61PPPE  C21041922   5.483   4.245   9.071
   61PPPE  H10141923   5.546   4.328   9.042
   61PPPE  C21141924   5.560   4.189   9.184
   61PPPE  H11R41925   5.672   4.189   9.183
   61PPPE  H11S41926   5.588   4.097   9.155
   61PPPE  C21241927   5.466   4.181   9.306
   61PPPE  H12R41928   5.489   4.119   9.390
   61PPPE  H12S41929   5.369   4.129   9.299
   61PPPE  C21341930   5.460   4.305   9.373
   61PPPE  H13R41931   5.375   4.342   9.312
   61PPPE  H13S41932   5.561   4.347   9.352
   61PPPE  C21441933   5.439   4.277   9.519
   61PPPE  H14R41934   5.537   4.252   9.565
   61PPPE  H14S41935   5.369   4.190   9.537
   61PPPE  C21541936   5.376   4.400   9.570
   61PPPE  H15R41937   5.273   4.382   9.538
   61PPPE  H15S41938   5.413   4.488   9.514
   61PPPE  C21641939   5.392   4.423   9.718
   61PPPE  H16R41940   5.501   4.429   9.740
   61PPPE  H16S41941   5.344   4.519   9.745
   61PPPE  H16T41942   5.346   4.341   9.779
   61PPPE   C3341943   4.755   4.345   8.634
   61PPPE   H3X41944   4.646   4.333   8.619
   61PPPE   H3Y41945   4.754   4.442   8.582
   61PPPE   C3441946   4.780   4.314   8.789
   61PPPE   H4X41947   4.758   4.208   8.807
   61PPPE   H4Y41948   4.692   4.359   8.840
   61PPPE   C3541949   4.915   4.348   8.869
   61PPPE   H5X41950   4.949   4.452   8.870
   61PPPE   H5Y41951   5.008   4.314   8.823
   61PPPE   C3641952   4.910   4.318   9.023
   61PPPE   H6X41953   4.916   4.208   9.020
   61PPPE   H6Y41954   4.815   4.345   9.073
   61PPPE   C3741955   5.027   4.381   9.105
   61PPPE   H7X41956   5.029   4.491   9.100
   61PPPE   H7Y41957   5.122   4.341   9.065
   61PPPE   C3841958   5.033   4.354   9.254
   61PPPE   H8X41959   4.945   4.389   9.313
   61PPPE   H8Y41960   5.123   4.405   9.296
   61PPPE   C3941961   5.044   4.208   9.273
   61PPPE   H9X41962   5.118   4.150   9.214
   61PPPE   H9Y41963   4.942   4.162   9.261
   61PPPE  C31041964   5.087   4.193   9.410
   61PPPE  H10X41965   5.025   4.256   9.478
   61PPPE  H10Y41966   5.193   4.198   9.441
   61PPPE  C31141967   5.061   4.047   9.412
   61PPPE  H11X41968   5.106   4.000   9.331
   61PPPE  H11Y41969   4.970   4.004   9.397
   61PPPE  C31241970   5.081   3.994   9.539
   61PPPE  H12X41971   5.008   4.077   9.549
   61PPPE  H12Y41972   5.174   4.043   9.583
   61PPPE  C31341973   5.032   3.845   9.594
   61PPPE  H13X41974   5.074   3.742   9.571
   61PPPE  H13Y41975   4.940   3.801   9.597
   61PPPE  C31441976   5.025   3.828   9.734
   61PPPE  H14X41977   4.982   3.718   9.738
   61PPPE  H14Y41978   4.927   3.910   9.734
   61PPPE  C31541979   5.162   3.833   9.870
   61PPPE  H15X41980   5.151   3.853   9.982
   61PPPE  H15Y41981   5.209   3.932   9.905
   61PPPE  C31641982   5.278   3.779   9.881
   61PPPE  H16X41983   5.246   3.689   9.860
   61PPPE  H16Y41984   5.334   3.841   9.818
   61PPPE  H16Z41985   5.351   3.761   9.958
   62PPPE     N41986   3.155   4.157   7.867
   62PPPE   HN141987   3.090   4.100   7.926
   62PPPE   HN241988   3.160   4.114   7.772
   62PPPE   HN341989   3.250   4.165   7.909
   62PPPE   C1241990   3.095   4.295   7.854
   62PPPE  H12A41991   3.152   4.348   7.775
   62PPPE  H12B41992   3.110   4.348   7.950
   62PPPE   C1141993   2.944   4.288   7.825
   62PPPE  H11A41994   2.928   4.281   7.714
   62PPPE  H11B41995   2.900   4.386   7.856
   62PPPE     P41996   2.778   4.086   7.825
   62PPPE   O1341997   2.652   4.158   7.802
   62PPPE   O1441998   2.853   4.039   7.707
   62PPPE   O1141999   2.759   3.963   7.922
   62PPPE   O1242000   2.882   4.182   7.899
   62PPPE    C142001   2.841   3.942   8.035
   62PPPE    HA42002   2.939   3.995   8.029
   62PPPE    HB42003   2.864   3.833   8.041
   62PPPE    C242004   2.770   3.991   8.161
   62PPPE    HS42005   2.661   3.964   8.157
   62PPPE   O2142006   2.792   4.133   8.165
   62PPPE   C2142007   2.700   4.206   8.223
   62PPPE   O2242008   2.593   4.169   8.267
   62PPPE   C2242009   2.759   4.345   8.244
   62PPPE   H2R42010   2.761   4.406   8.152
   62PPPE   H2S42011   2.866   4.329   8.271
   62PPPE    C342012   2.833   3.924   8.283
   62PPPE    HX42013   2.829   3.814   8.273
   62PPPE    HY42014   2.940   3.955   8.287
   62PPPE   O3142015   2.763   3.960   8.400
   62PPPE   C3142016   2.837   4.024   8.492
   62PPPE   O3242017   2.954   4.049   8.489
   62PPPE   C3242018   2.749   4.054   8.606
   62PPPE   H2X42019   2.730   3.945   8.617
   62PPPE   H2Y42020   2.670   4.112   8.557
   62PPPE   C2342021   2.682   4.417   8.356
   62PPPE   H3R42022   2.681   4.356   8.449
   62PPPE   H3S42023   2.580   4.448   8.329
   62PPPE   C2442024   2.761   4.538   8.391
   62PPPE   H4R42025   2.704   4.619   8.441
   62PPPE   H4S42026   2.792   4.573   8.290
   62PPPE   C2542027   2.881   4.486   8.469
   62PPPE   H5R42028   2.973   4.541   8.441
   62PPPE   H5S42029   2.910   4.384   8.446
   62PPPE   C2642030   2.870   4.479   8.619
   62PPPE   H6R42031   2.789   4.433   8.676
   62PPPE   H6S42032   2.815   4.576   8.621
   62PPPE   C2742033   3.021   4.452   8.663
   62PPPE   H7R42034   3.088   4.526   8.608
   62PPPE   H7S42035   3.054   4.352   8.636
   62PPPE   C2842036   3.073   4.466   8.807
   62PPPE   H8R42037   3.012   4.415   8.882
   62PPPE   H8S42038   3.069   4.573   8.811
   62PPPE   C2942039   3.208   4.494   8.852
   62PPPE   H9142040   3.260   4.543   8.770
   62PPPE  C21042041   3.263   4.476   8.972
   62PPPE  H10142042   3.363   4.516   8.998
   62PPPE  C21142043   3.191   4.417   9.087
   62PPPE  H11R42044   3.086   4.391   9.070
   62PPPE  H11S42045   3.180   4.494   9.152
   62PPPE  C21242046   3.278   4.319   9.163
   62PPPE  H12R42047   3.382   4.358   9.176
   62PPPE  H12S42048   3.279   4.233   9.095
   62PPPE  C21342049   3.220   4.274   9.298
   62PPPE  H13R42050   3.286   4.196   9.338
   62PPPE  H13S42051   3.119   4.236   9.284
   62PPPE  C21442052   3.231   4.367   9.415
   62PPPE  H14R42053   3.205   4.468   9.405
   62PPPE  H14S42054   3.332   4.357   9.433
   62PPPE  C21542055   3.214   4.326   9.559
   62PPPE  H15R42056   3.171   4.231   9.537
   62PPPE  H15S42057   3.164   4.413   9.604
   62PPPE  C21642058   3.303   4.278   9.666
   62PPPE  H16R42059   3.354   4.343   9.723
   62PPPE  H16S42060   3.248   4.251   9.756
   62PPPE  H16T42061   3.383   4.218   9.629
   62PPPE   C3342062   2.786   4.115   8.749
   62PPPE   H3X42063   2.815   4.217   8.720
   62PPPE   H3Y42064   2.857   4.043   8.796
   62PPPE   C3442065   2.685   4.154   8.864
   62PPPE   H4X42066   2.652   4.063   8.905
   62PPPE   H4Y42067   2.588   4.204   8.841
   62PPPE   C3542068   2.715   4.168   9.006
   62PPPE   H5X42069   2.774   4.081   9.043
   62PPPE   H5Y42070   2.614   4.183   9.055
   62PPPE   C3642071   2.771   4.296   8.995
   62PPPE   H6X42072   2.838   4.302   8.907
   62PPPE   H6Y42073   2.829   4.297   9.088
   62PPPE   C3742074   2.646   4.381   8.975
   62PPPE   H7X42075   2.576   4.375   9.060
   62PPPE   H7Y42076   2.596   4.385   8.874
   62PPPE   C3842077   2.687   4.511   8.989
   62PPPE   H8X42078   2.599   4.579   8.987
   62PPPE   H8Y42079   2.726   4.530   8.886
   62PPPE   C3942080   2.776   4.511   9.115
   62PPPE   H9X42081   2.783   4.609   9.159
   62PPPE   H9Y42082   2.883   4.479   9.116
   62PPPE  C31042083   2.710   4.525   9.239
   62PPPE  H10X42084   2.691   4.416   9.235
   62PPPE  H10Y42085   2.619   4.591   9.225
   62PPPE  C31142086   2.790   4.575   9.354
   62PPPE  H11X42087   2.802   4.679   9.389
   62PPPE  H11Y42088   2.897   4.551   9.324
   62PPPE  C31242089   2.733   4.522   9.489
   62PPPE  H12X42090   2.642   4.551   9.518
   62PPPE  H12Y42091   2.774   4.576   9.563
   62PPPE  C31342092   2.725   4.374   9.496
   62PPPE  H13X42093   2.830   4.417   9.463
   62PPPE  H13Y42094   2.670   4.357   9.409
   62PPPE  C31442095   2.706   4.219   9.573
   62PPPE  H14X42096   2.662   4.242   9.667
   62PPPE  H14Y42097   2.779   4.170   9.628
   62PPPE  C31542098   2.792   4.070   9.543
   62PPPE  H15X42099   2.891   4.052   9.483
   62PPPE  H15Y42100   2.718   4.024   9.485
   62PPPE  C31642101   2.868   3.997   9.646
   62PPPE  H16X42102   2.899   3.906   9.595
   62PPPE  H16Y42103   2.962   4.043   9.681
   62PPPE  H16Z42104   2.795   3.997   9.727
   63PPPE     N42105   3.670   5.266   7.682
   63PPPE   HN142106   3.752   5.313   7.637
   63PPPE   HN242107   3.613   5.221   7.609
   63PPPE   HN342108   3.617   5.341   7.734
   63PPPE   C1242109   3.726   5.169   7.782
   63PPPE  H12A42110   3.805   5.110   7.731
   63PPPE  H12B42111   3.647   5.099   7.814
   63PPPE   C1142112   3.790   5.247   7.898
   63PPPE  H11A42113   3.841   5.176   7.968
   63PPPE  H11B42114   3.712   5.300   7.958
   63PPPE     P42115   3.871   5.494   7.856
   63PPPE   O1342116   3.988   5.555   7.790
   63PPPE   O1442117   3.735   5.523   7.807
   63PPPE   O1142118   3.874   5.515   8.011
   63PPPE   O1242119   3.888   5.336   7.845
   63PPPE    C142120   3.979   5.468   8.095
   63PPPE    HA42121   4.066   5.532   8.075
   63PPPE    HB42122   4.008   5.362   8.072
   63PPPE    C242123   3.940   5.482   8.244
   63PPPE    HS42124   4.004   5.417   8.309
   63PPPE   O2142125   3.802   5.450   8.257
   63PPPE   C2142126   3.761   5.361   8.342
   63PPPE   O2242127   3.825   5.308   8.431
   63PPPE   C2242128   3.614   5.342   8.310
   63PPPE   H2R42129   3.580   5.238   8.327
   63PPPE   H2S42130   3.600   5.365   8.202
   63PPPE    C342131   3.963   5.628   8.287
   63PPPE    HX42132   4.068   5.655   8.259
   63PPPE    HY42133   3.896   5.696   8.230
   63PPPE   O3142134   3.952   5.635   8.430
   63PPPE   C3142135   3.856   5.709   8.480
   63PPPE   O3242136   3.782   5.785   8.419
   63PPPE   C3242137   3.851   5.694   8.632
   63PPPE   H2X42138   3.747   5.711   8.667
   63PPPE   H2Y42139   3.919   5.773   8.672
   63PPPE   C2342140   3.534   5.446   8.389
   63PPPE   H3R42141   3.433   5.454   8.344
   63PPPE   H3S42142   3.580   5.547   8.386
   63PPPE   C2442143   3.519   5.405   8.534
   63PPPE   H4R42144   3.617   5.391   8.584
   63PPPE   H4S42145   3.458   5.312   8.542
   63PPPE   C2542146   3.450   5.514   8.607
   63PPPE   H5R42147   3.353   5.530   8.556
   63PPPE   H5S42148   3.513   5.607   8.605
   63PPPE   C2642149   3.427   5.469   8.747
   63PPPE   H6R42150   3.390   5.541   8.812
   63PPPE   H6S42151   3.526   5.442   8.788
   63PPPE   C2742152   3.306   5.381   8.773
   63PPPE   H7R42153   3.322   5.293   8.709
   63PPPE   H7S42154   3.211   5.434   8.747
   63PPPE   C2842155   3.294   5.344   8.919
   63PPPE   H8R42156   3.208   5.272   8.928
   63PPPE   H8S42157   3.271   5.416   8.997
   63PPPE   C2942158   3.431   5.293   8.940
   63PPPE   H9142159   3.436   5.199   8.883
   63PPPE  C21042160   3.535   5.332   9.022
   63PPPE  H10142161   3.606   5.261   9.068
   63PPPE  C21142162   3.548   5.437   9.118
   63PPPE  H11R42163   3.479   5.506   9.083
   63PPPE  H11S42164   3.649   5.472   9.094
   63PPPE  C21242165   3.527   5.416   9.270
   63PPPE  H12R42166   3.574   5.502   9.319
   63PPPE  H12S42167   3.583   5.326   9.303
   63PPPE  C21342168   3.379   5.418   9.313
   63PPPE  H13R42169   3.334   5.331   9.272
   63PPPE  H13S42170   3.311   5.472   9.248
   63PPPE  C21442171   3.335   5.413   9.464
   63PPPE  H14R42172   3.382   5.335   9.528
   63PPPE  H14S42173   3.225   5.400   9.469
   63PPPE  C21542174   3.384   5.504   9.564
   63PPPE  H15R42175   3.336   5.591   9.542
   63PPPE  H15S42176   3.493   5.522   9.555
   63PPPE  C21642177   3.303   5.517   9.690
   63PPPE  H16R42178   3.329   5.604   9.750
   63PPPE  H16S42179   3.194   5.535   9.664
   63PPPE  H16T42180   3.332   5.441   9.759
   63PPPE   C3342181   3.901   5.559   8.685
   63PPPE   H3X42182   4.007   5.551   8.651
   63PPPE   H3Y42183   3.843   5.478   8.636
   63PPPE   C3442184   3.892   5.549   8.838
   63PPPE   H4X42185   3.785   5.542   8.869
   63PPPE   H4Y42186   3.939   5.636   8.887
   63PPPE   C3542187   3.969   5.434   8.895
   63PPPE   H5X42188   3.993   5.434   9.004
   63PPPE   H5Y42189   4.065   5.422   8.840
   63PPPE   C3642190   3.884   5.314   8.882
   63PPPE   H6X42191   3.860   5.298   8.773
   63PPPE   H6Y42192   3.788   5.311   8.935
   63PPPE   C3742193   3.972   5.208   8.938
   63PPPE   H7X42194   4.068   5.208   8.881
   63PPPE   H7Y42195   3.898   5.134   8.921
   63PPPE   C3842196   4.005   5.174   9.079
   63PPPE   H8X42197   4.088   5.243   9.103
   63PPPE   H8Y42198   4.043   5.069   9.084
   63PPPE   C3942199   3.885   5.177   9.168
   63PPPE   H9X42200   3.811   5.101   9.138
   63PPPE   H9Y42201   3.840   5.276   9.151
   63PPPE  C31042202   3.924   5.143   9.309
   63PPPE  H10X42203   4.032   5.169   9.318
   63PPPE  H10Y42204   3.912   5.034   9.330
   63PPPE  C31142205   3.860   5.228   9.415
   63PPPE  H11X42206   3.907   5.194   9.510
   63PPPE  H11Y42207   3.751   5.209   9.420
   63PPPE  C31242208   3.878   5.376   9.378
   63PPPE  H12X42209   3.792   5.414   9.322
   63PPPE  H12Y42210   3.973   5.387   9.318
   63PPPE  C31342211   3.877   5.472   9.492
   63PPPE  H13X42212   3.895   5.579   9.484
   63PPPE  H13Y42213   3.982   5.444   9.510
   63PPPE  C31442214   3.761   5.446   9.596
   63PPPE  H14X42215   3.770   5.341   9.636
   63PPPE  H14Y42216   3.664   5.435   9.548
   63PPPE  C31542217   3.743   5.555   9.706
   63PPPE  H15X42218   3.720   5.658   9.683
   63PPPE  H15Y42219   3.845   5.599   9.727
   63PPPE  C31642220   3.663   5.508   9.836
   63PPPE  H16X42221   3.678   5.580   9.919
   63PPPE  H16Y42222   3.561   5.481   9.810
   63PPPE  H16Z42223   3.697   5.416   9.890
   64PPPE     N42224   3.731   2.633   7.777
   64PPPE   HN142225   3.713   2.620   7.675
   64PPPE   HN242226   3.832   2.652   7.794
   64PPPE   HN342227   3.704   2.545   7.828
   64PPPE   C1242228   3.643   2.747   7.819
   64PPPE  H12A42229   3.685   2.841   7.776
   64PPPE  H12B42230   3.643   2.753   7.930
   64PPPE   C1142231   3.500   2.733   7.763
   64PPPE  H11A42232   3.461   2.630   7.781
   64PPPE  H11B42233   3.497   2.751   7.653
   64PPPE     P42234   3.268   2.803   7.857
   64PPPE   O1342235   3.208   2.915   7.932
   64PPPE   O1442236   3.204   2.750   7.734
   64PPPE   O1142237   3.285   2.687   7.959
   64PPPE   O1242238   3.421   2.833   7.825
   64PPPE    C142239   3.371   2.706   8.071
   64PPPE    HA42240   3.380   2.809   8.110
   64PPPE    HB42241   3.469   2.663   8.041
   64PPPE    C242242   3.316   2.618   8.179
   64PPPE    HS42243   3.300   2.535   8.113
   64PPPE   O2142244   3.190   2.656   8.229
   64PPPE   C2142245   3.137   2.561   8.302
   64PPPE   O2242246   3.182   2.462   8.353
   64PPPE   C2242247   3.007   2.593   8.327
   64PPPE   H2R42248   2.936   2.551   8.251
   64PPPE   H2S42249   2.997   2.704   8.318
   64PPPE    C342250   3.412   2.606   8.298
   64PPPE    HX42251   3.382   2.519   8.361
   64PPPE    HY42252   3.512   2.582   8.259
   64PPPE   O3142253   3.418   2.729   8.369
   64PPPE   C3142254   3.396   2.719   8.498
   64PPPE   O3242255   3.382   2.618   8.563
   64PPPE   C3242256   3.388   2.860   8.553
   64PPPE   H2X42257   3.301   2.909   8.505
   64PPPE   H2Y42258   3.482   2.913   8.526
   64PPPE   C2342259   2.965   2.533   8.463
   64PPPE   H3R42260   2.958   2.447   8.517
   64PPPE   H3S42261   2.866   2.509   8.453
   64PPPE   C2442262   3.002   2.573   8.589
   64PPPE   H4R42263   3.078   2.654   8.544
   64PPPE   H4S42264   3.114   2.559   8.618
   64PPPE   C2542265   2.859   2.624   8.749
   64PPPE   H5R42266   2.866   2.531   8.695
   64PPPE   H5S42267   2.759   2.632   8.746
   64PPPE   C2642268   2.957   2.725   8.912
   64PPPE   H6R42269   2.995   2.834   8.902
   64PPPE   H6S42270   3.080   2.714   8.911
   64PPPE   C2742271   2.920   2.742   9.033
   64PPPE   H7R42272   2.918   2.649   9.079
   64PPPE   H7S42273   2.835   2.766   8.970
   64PPPE   C2842274   3.030   2.813   9.105
   64PPPE   H8R42275   3.036   2.915   9.073
   64PPPE   H8S42276   3.124   2.753   9.099
   64PPPE   C2942277   2.965   2.806   9.230
   64PPPE   H9142278   2.891   2.878   9.255
   64PPPE  C21042279   2.996   2.719   9.312
   64PPPE  H10142280   2.934   2.722   9.392
   64PPPE  C21142281   3.101   2.622   9.293
   64PPPE  H11R42282   3.192   2.683   9.300
   64PPPE  H11S42283   3.099   2.556   9.207
   64PPPE  C21242284   3.101   2.538   9.405
   64PPPE  H12R42285   3.181   2.470   9.384
   64PPPE  H12S42286   3.022   2.460   9.391
   64PPPE  C21342287   3.152   2.620   9.522
   64PPPE  H13R42288   3.144   2.572   9.611
   64PPPE  H13S42289   3.115   2.655   9.616
   64PPPE  C21442290   3.203   2.758   9.534
   64PPPE  H14R42291   3.265   2.799   9.459
   64PPPE  H14S42292   3.276   2.688   9.504
   64PPPE  C21542293   3.226   2.809   9.681
   64PPPE  H15R42294   3.235   2.742   9.769
   64PPPE  H15S42295   3.128   2.833   9.726
   64PPPE  C21642296   3.350   2.898   9.688
   64PPPE  H16R42297   3.344   2.958   9.597
   64PPPE  H16S42298   3.349   2.973   9.767
   64PPPE  H16T42299   3.447   2.845   9.706
   64PPPE   C3342300   3.373   2.858   8.706
   64PPPE   H3X42301   3.458   2.803   8.751
   64PPPE   H3Y42302   3.283   2.804   8.737
   64PPPE   C3442303   3.364   3.000   8.762
   64PPPE   H4X42304   3.291   3.056   8.699
   64PPPE   H4Y42305   3.463   3.048   8.749
   64PPPE   C3542306   3.313   3.000   8.907
   64PPPE   H5X42307   3.233   2.925   8.919
   64PPPE   H5Y42308   3.266   3.098   8.933
   64PPPE   C3642309   3.417   2.962   9.013
   64PPPE   H6X42310   3.499   3.032   9.014
   64PPPE   H6Y42311   3.466   2.867   8.986
   64PPPE   C3742312   3.351   2.967   9.151
   64PPPE   H7X42313   3.276   2.886   9.156
   64PPPE   H7Y42314   3.297   3.064   9.160
   64PPPE   C3842315   3.448   2.956   9.269
   64PPPE   H8X42316   3.391   2.965   9.364
   64PPPE   H8Y42317   3.521   3.038   9.268
   64PPPE   C3942318   3.518   2.821   9.273
   64PPPE   H9X42319   3.582   2.805   9.183
   64PPPE   H9Y42320   3.437   2.745   9.275
   64PPPE  C31042321   3.606   2.803   9.396
   64PPPE  H10X42322   3.564   2.864   9.480
   64PPPE  H10Y42323   3.708   2.838   9.370
   64PPPE  C31142324   3.610   2.656   9.434
   64PPPE  H11X42325   3.632   2.587   9.350
   64PPPE  H11Y42326   3.506   2.632   9.451
   64PPPE  C31242327   3.708   2.625   9.548
   64PPPE  H12X42328   3.739   2.721   9.595
   64PPPE  H12Y42329   3.789   2.566   9.506
   64PPPE  C31342330   3.658   2.545   9.663
   64PPPE  H13X42331   3.575   2.599   9.671
   64PPPE  H13Y42332   3.673   2.575   9.768
   64PPPE  C31442333   3.634   2.400   9.652
   64PPPE  H14X42334   3.732   2.349   9.649
   64PPPE  H14Y42335   3.600   2.364   9.551
   64PPPE  C31542336   3.544   2.364   9.784
   64PPPE  H15X42337   3.582   2.369   9.884
   64PPPE  H15Y42338   3.588   2.292   9.723
   64PPPE  C31642339   3.442   2.249   9.781
   64PPPE  H16X42340   3.377   2.188   9.841
   64PPPE  H16Y42341   3.347   2.277   9.799
   64PPPE  H16Z42342   3.435   2.261   9.679
   65PPPE     N42343   2.763   3.583   7.750
   65PPPE   HN142344   2.718   3.583   7.655
   65PPPE   HN242345   2.771   3.682   7.782
   65PPPE   HN342346   2.857   3.541   7.740
   65PPPE   C1242347   2.681   3.509   7.852
   65PPPE  H12A42348   2.587   3.566   7.869
   65PPPE  H12B42349   2.741   3.508   7.945
   65PPPE   C1142350   2.652   3.365   7.810
   65PPPE  H11A42351   2.679   3.350   7.702
   65PPPE  H11B42352   2.544   3.341   7.823
   65PPPE     P42353   2.741   3.128   7.853
   65PPPE   O1342354   2.746   3.127   7.704
   65PPPE   O1442355   2.852   3.069   7.928
   65PPPE   O1142356   2.602   3.074   7.907
   65PPPE   O1242357   2.729   3.280   7.895
   65PPPE    C142358   2.600   3.027   8.043
   65PPPE    HA42359   2.676   3.079   8.105
   65PPPE    HB42360   2.621   2.919   8.045
   65PPPE    C242361   2.467   3.054   8.118
   65PPPE    HS42362   2.387   2.987   8.076
   65PPPE   O2142363   2.437   3.190   8.102
   65PPPE   C2142364   2.312   3.209   8.132
   65PPPE   O2242365   2.225   3.128   8.129
   65PPPE   C2242366   2.293   3.348   8.152
   65PPPE   H2R42367   2.211   3.361   8.077
   65PPPE   H2S42368   2.381   3.391   8.101
   65PPPE    C342369   2.475   3.031   8.270
   65PPPE    HX42370   2.376   3.051   8.317
   65PPPE    HY42371   2.497   2.922   8.287
   65PPPE   O3142372   2.570   3.129   8.321
   65PPPE   C3142373   2.678   3.077   8.372
   65PPPE   O3242374   2.685   2.965   8.413
   65PPPE   C3242375   2.795   3.171   8.375
   65PPPE   H2X42376   2.774   3.256   8.308
   65PPPE   H2Y42377   2.886   3.118   8.340
   65PPPE   C2342378   2.263   3.400   8.298
   65PPPE   H3R42379   2.167   3.370   8.343
   65PPPE   H3S42380   2.260   3.512   8.308
   65PPPE   C2442381   2.361   3.380   8.405
   65PPPE   H4R42382   2.457   3.424   8.376
   65PPPE   H4S42383   2.358   3.271   8.409
   65PPPE   C2542384   2.301   3.449   8.524
   65PPPE   H5R42385   2.205   3.395   8.541
   65PPPE   H5S42386   2.287   3.560   8.505
   65PPPE   C2642387   2.371   3.430   8.652
   65PPPE   H6R42388   2.478   3.433   8.622
   65PPPE   H6S42389   2.341   3.330   8.689
   65PPPE   C2742390   2.341   3.539   8.754
   65PPPE   H7R42391   2.236   3.537   8.785
   65PPPE   H7S42392   2.354   3.639   8.707
   65PPPE   C2842393   2.429   3.525   8.879
   65PPPE   H8R42394   2.418   3.618   8.937
   65PPPE   H8S42395   2.533   3.524   8.840
   65PPPE   C2942396   2.409   3.404   8.967
   65PPPE   H9142397   2.447   3.310   8.926
   65PPPE  C21042398   2.349   3.400   9.089
   65PPPE  H10142399   2.357   3.306   9.147
   65PPPE  C21142400   2.288   3.514   9.165
   65PPPE  H11R42401   2.178   3.498   9.170
   65PPPE  H11S42402   2.303   3.611   9.113
   65PPPE  C21242403   2.332   3.527   9.312
   65PPPE  H12R42404   2.313   3.431   9.365
   65PPPE  H12S42405   2.271   3.607   9.361
   65PPPE  C21342406   2.480   3.565   9.325
   65PPPE  H13R42407   2.490   3.669   9.286
   65PPPE  H13S42408   2.546   3.494   9.272
   65PPPE  C21442409   2.527   3.572   9.467
   65PPPE  H14R42410   2.432   3.564   9.524
   65PPPE  H14S42411   2.575   3.673   9.483
   65PPPE  C21542412   2.626   3.464   9.507
   65PPPE  H15R42413   2.707   3.462   9.431
   65PPPE  H15S42414   2.581   3.363   9.518
   65PPPE  C21642415   2.691   3.505   9.633
   65PPPE  H16R42416   2.704   3.615   9.626
   65PPPE  H16S42417   2.644   3.468   9.725
   65PPPE  H16T42418   2.793   3.475   9.648
   65PPPE   C3342419   2.827   3.208   8.520
   65PPPE   H3X42420   2.931   3.247   8.516
   65PPPE   H3Y42421   2.823   3.120   8.589
   65PPPE   C3442422   2.742   3.321   8.579
   65PPPE   H4X42423   2.645   3.279   8.613
   65PPPE   H4Y42424   2.725   3.395   8.497
   65PPPE   C3542425   2.815   3.384   8.700
   65PPPE   H5X42426   2.758   3.470   8.741
   65PPPE   H5Y42427   2.913   3.422   8.665
   65PPPE   C3642428   2.840   3.282   8.813
   65PPPE   H6X42429   2.915   3.211   8.771
   65PPPE   H6Y42430   2.746   3.228   8.839
   65PPPE   C3742431   2.900   3.347   8.939
   65PPPE   H7X42432   2.820   3.403   8.993
   65PPPE   H7Y42433   2.977   3.418   8.902
   65PPPE   C3842434   2.969   3.254   9.039
   65PPPE   H8X42435   3.021   3.313   9.119
   65PPPE   H8Y42436   3.047   3.195   8.987
   65PPPE   C3942437   2.876   3.162   9.114
   65PPPE   H9X42438   2.934   3.115   9.197
   65PPPE   H9Y42439   2.839   3.083   9.043
   65PPPE  C31042440   2.755   3.230   9.181
   65PPPE  H10X42441   2.676   3.232   9.102
   65PPPE  H10Y42442   2.778   3.328   9.223
   65PPPE  C31142443   2.704   3.158   9.301
   65PPPE  H11X42444   2.602   3.183   9.340
   65PPPE  H11Y42445   2.775   3.143   9.386
   65PPPE  C31242446   2.668   3.035   9.241
   65PPPE  H12X42447   2.757   2.985   9.196
   65PPPE  H12Y42448   2.590   3.039   9.165
   65PPPE  C31342449   2.614   2.962   9.352
   65PPPE  H13X42450   2.707   2.919   9.380
   65PPPE  H13Y42451   2.551   2.887   9.310
   65PPPE  C31442452   2.487   2.971   9.432
   65PPPE  H14X42453   2.424   2.875   9.434
   65PPPE  H14Y42454   2.427   3.047   9.381
   65PPPE  C31542455   2.535   2.990   9.571
   65PPPE  H15X42456   2.620   3.062   9.570
   65PPPE  H15Y42457   2.573   2.903   9.630
   65PPPE  C31642458   2.419   3.032   9.646
   65PPPE  H16X42459   2.484   3.060   9.727
   65PPPE  H16Y42460   2.369   3.116   9.592
   65PPPE  H16Z42461   2.347   2.953   9.678
   66PPPE     N42462   5.236   5.329   7.561
   66PPPE   HN142463   5.277   5.325   7.465
   66PPPE   HN242464   5.158   5.396   7.566
   66PPPE   HN342465   5.311   5.356   7.629
   66PPPE   C1242466   5.180   5.193   7.596
   66PPPE  H12A42467   5.249   5.117   7.555
   66PPPE  H12B42468   5.081   5.185   7.548
   66PPPE   C1142469   5.162   5.172   7.747
   66PPPE  H11A42470   5.116   5.072   7.760
   66PPPE  H11B42471   5.093   5.251   7.784
   66PPPE     P42472   5.308   5.106   7.961
   66PPPE   O1342473   5.317   4.960   7.944
   66PPPE   O1442474   5.415   5.180   8.028
   66PPPE   O1142475   5.172   5.136   8.031
   66PPPE   O1242476   5.286   5.177   7.817
   66PPPE    C142477   5.122   5.267   8.046
   66PPPE    HA42478   5.014   5.254   8.035
   66PPPE    HB42479   5.161   5.338   7.967
   66PPPE    C242480   5.153   5.328   8.185
   66PPPE    HS42481   5.254   5.375   8.164
   66PPPE   O2142482   5.157   5.240   8.295
   66PPPE   C2142483   5.240   5.285   8.387
   66PPPE   O2242484   5.317   5.379   8.379
   66PPPE   C2242485   5.220   5.204   8.511
   66PPPE   H2R42486   5.111   5.185   8.525
   66PPPE   H2S42487   5.259   5.265   8.596
   66PPPE    C342488   5.061   5.442   8.235
   66PPPE    HX42489   5.126   5.499   8.301
   66PPPE    HY42490   5.093   5.498   8.142
   66PPPE   O3142491   4.915   5.439   8.292
   66PPPE   C3142492   4.770   5.423   8.298
   66PPPE   O3242493   4.665   5.470   8.263
   66PPPE   C3242494   4.788   5.370   8.409
   66PPPE   H2X42495   4.777   5.279   8.335
   66PPPE   H2Y42496   4.875   5.426   8.470
   66PPPE   C2342497   5.295   5.071   8.495
   66PPPE   H3R42498   5.387   5.083   8.433
   66PPPE   H3S42499   5.230   5.002   8.438
   66PPPE   C2442500   5.327   5.007   8.629
   66PPPE   H4R42501   5.407   5.065   8.682
   66PPPE   H4S42502   5.364   4.904   8.612
   66PPPE   C2542503   5.205   4.993   8.719
   66PPPE   H5R42504   5.144   4.910   8.677
   66PPPE   H5S42505   5.142   5.084   8.720
   66PPPE   C2642506   5.248   4.956   8.861
   66PPPE   H6R42507   5.339   5.014   8.889
   66PPPE   H6S42508   5.277   4.848   8.856
   66PPPE   C2742509   5.142   4.981   8.969
   66PPPE   H7R42510   5.177   4.941   9.067
   66PPPE   H7S42511   5.051   4.923   8.939
   66PPPE   C2842512   5.096   5.129   8.993
   66PPPE   H8R42513   5.036   5.126   9.086
   66PPPE   H8S42514   5.025   5.156   8.912
   66PPPE   C2942515   5.196   5.243   8.999
   66PPPE   H9142516   5.269   5.247   8.917
   66PPPE  C21042517   5.201   5.341   9.092
   66PPPE  H10142518   5.276   5.419   9.079
   66PPPE  C21142519   5.113   5.365   9.212
   66PPPE  H11R42520   5.051   5.277   9.235
   66PPPE  H11S42521   5.044   5.451   9.196
   66PPPE  C21242522   5.199   5.399   9.336
   66PPPE  H12R42523   5.127   5.412   9.419
   66PPPE  H12S42524   5.248   5.498   9.325
   66PPPE  C21342525   5.298   5.286   9.374
   66PPPE  H13R42526   5.394   5.301   9.320
   66PPPE  H13S42527   5.255   5.189   9.340
   66PPPE  C21442528   5.315   5.267   9.526
   66PPPE  H14R42529   5.215   5.280   9.568
   66PPPE  H14S42530   5.384   5.348   9.559
   66PPPE  C21542531   5.347   5.129   9.587
   66PPPE  H15R42532   5.447   5.120   9.565
   66PPPE  H15S42533   5.309   5.045   9.529
   66PPPE  C21642534   5.385   5.099   9.731
   66PPPE  H16R42535   5.454   5.015   9.753
   66PPPE  H16S42536   5.406   5.185   9.798
   66PPPE  H16T42537   5.312   5.087   9.787
   66PPPE   C3342538   4.689   5.375   8.508
   66PPPE   H3X42539   4.633   5.472   8.494
   66PPPE   H3Y42540   4.718   5.460   8.578
   66PPPE   C3442541   4.796   5.272   8.566
   66PPPE   H4X42542   4.900   5.308   8.592
   66PPPE   H4Y42543   4.823   5.190   8.492
   66PPPE   C3542544   4.754   5.215   8.691
   66PPPE   H5X42545   4.805   5.119   8.709
   66PPPE   H5Y42546   4.642   5.213   8.685
   66PPPE   C3642547   4.785   5.312   8.800
   66PPPE   H6X42548   4.735   5.397   8.753
   66PPPE   H6Y42549   4.884   5.357   8.817
   66PPPE   C3742550   4.702   5.298   8.924
   66PPPE   H7X42551   4.598   5.322   8.900
   66PPPE   H7Y42552   4.733   5.367   9.001
   66PPPE   C3842553   4.683   5.167   8.987
   66PPPE   H8X42554   4.770   5.100   8.999
   66PPPE   H8Y42555   4.590   5.130   8.939
   66PPPE   C3942556   4.610   5.164   9.115
   66PPPE   H9X42557   4.610   5.053   9.126
   66PPPE   H9Y42558   4.507   5.199   9.100
   66PPPE  C31042559   4.647   5.234   9.241
   66PPPE  H10X42560   4.574   5.210   9.323
   66PPPE  H10Y42561   4.656   5.343   9.229
   66PPPE  C31142562   4.775   5.190   9.285
   66PPPE  H11X42563   4.857   5.197   9.213
   66PPPE  H11Y42564   4.770   5.088   9.304
   66PPPE  C31242565   4.795   5.217   9.426
   66PPPE  H12X42566   4.715   5.184   9.497
   66PPPE  H12Y42567   4.800   5.329   9.428
   66PPPE  C31342568   4.928   5.146   9.449
   66PPPE  H13X42569   4.940   5.233   9.507
   66PPPE  H13Y42570   5.018   5.161   9.392
   66PPPE  C31442571   4.934   5.007   9.516
   66PPPE  H14X42572   4.896   4.944   9.437
   66PPPE  H14Y42573   4.865   5.008   9.602
   66PPPE  C31542574   5.063   4.931   9.566
   66PPPE  H15X42575   5.132   5.012   9.581
   66PPPE  H15Y42576   5.103   4.872   9.483
   66PPPE  C31642577   5.060   4.842   9.695
   66PPPE  H16X42578   5.012   4.749   9.688
   66PPPE  H16Y42579   5.156   4.814   9.743
   66PPPE  H16Z42580   4.985   4.879   9.767
   67PPPE     N42581   4.849   5.688   7.590
   67PPPE   HN142582   4.861   5.628   7.506
   67PPPE   HN242583   4.845   5.787   7.561
   67PPPE   HN342584   4.930   5.676   7.655
   67PPPE   C1242585   4.715   5.654   7.655
   67PPPE  H12A42586   4.733   5.572   7.727
   67PPPE  H12B42587   4.645   5.619   7.578
   67PPPE   C1142588   4.643   5.776   7.714
   67PPPE  H11A42589   4.581   5.836   7.640
   67PPPE  H11B42590   4.719   5.817   7.785
   67PPPE     P42591   4.510   5.744   7.942
   67PPPE   O1342592   4.621   5.817   8.006
   67PPPE   O1442593   4.369   5.789   7.952
   67PPPE   O1142594   4.526   5.592   7.969
   67PPPE   O1242595   4.535   5.739   7.789
   67PPPE    C142596   4.442   5.506   7.896
   67PPPE    HA42597   4.488   5.492   7.794
   67PPPE    HB42598   4.338   5.544   7.881
   67PPPE    C242599   4.438   5.369   7.969
   67PPPE    HS42600   4.346   5.318   7.933
   67PPPE   O2142601   4.452   5.361   8.116
   67PPPE   C2142602   4.353   5.409   8.193
   67PPPE   O2242603   4.249   5.450   8.148
   67PPPE   C2242604   4.370   5.413   8.346
   67PPPE   H2R42605   4.452   5.481   8.361
   67PPPE   H2S42606   4.448   5.346   8.387
   67PPPE    C342607   4.554   5.292   7.903
   67PPPE    HX42608   4.556   5.193   7.952
   67PPPE    HY42609   4.554   5.285   7.796
   67PPPE   O3142610   4.672   5.363   7.886
   67PPPE   C3142611   4.738   5.347   7.984
   67PPPE   O3242612   4.723   5.265   8.076
   67PPPE   C3242613   4.850   5.451   7.955
   67PPPE   H2X42614   4.825   5.548   7.916
   67PPPE   H2Y42615   4.950   5.407   7.935
   67PPPE   C2342616   4.296   5.545   8.397
   67PPPE   H3R42617   4.190   5.517   8.403
   67PPPE   H3S42618   4.291   5.629   8.324
   67PPPE   C2442619   4.346   5.617   8.523
   67PPPE   H4R42620   4.259   5.677   8.563
   67PPPE   H4S42621   4.426   5.694   8.508
   67PPPE   C2542622   4.379   5.508   8.621
   67PPPE   H5R42623   4.470   5.448   8.611
   67PPPE   H5S42624   4.300   5.432   8.605
   67PPPE   C2642625   4.375   5.565   8.759
   67PPPE   H6R42626   4.267   5.580   8.779
   67PPPE   H6S42627   4.434   5.660   8.764
   67PPPE   C2742628   4.438   5.476   8.861
   67PPPE   H7R42629   4.548   5.497   8.851
   67PPPE   H7S42630   4.416   5.369   8.840
   67PPPE   C2842631   4.397   5.518   9.001
   67PPPE   H8R42632   4.288   5.512   9.005
   67PPPE   H8S42633   4.434   5.621   9.017
   67PPPE   C2942634   4.450   5.432   9.107
   67PPPE   H9142635   4.550   5.396   9.086
   67PPPE  C21042636   4.383   5.383   9.210
   67PPPE  H10142637   4.432   5.320   9.285
   67PPPE  C21142638   4.239   5.403   9.243
   67PPPE  H11R42639   4.189   5.308   9.271
   67PPPE  H11S42640   4.186   5.445   9.159
   67PPPE  C21242641   4.218   5.501   9.358
   67PPPE  H12R42642   4.130   5.469   9.413
   67PPPE  H12S42643   4.231   5.607   9.342
   67PPPE  C21342644   4.317   5.477   9.460
   67PPPE  H13R42645   4.417   5.462   9.426
   67PPPE  H13S42646   4.289   5.363   9.469
   67PPPE  C21442647   4.353   5.577   9.590
   67PPPE  H14R42648   4.245   5.550   9.627
   67PPPE  H14S42649   4.323   5.680   9.571
   67PPPE  C21542650   4.514   5.536   9.695
   67PPPE  H15R42651   4.524   5.539   9.806
   67PPPE  H15S42652   4.582   5.610   9.669
   67PPPE  C21642653   4.572   5.390   9.784
   67PPPE  H16R42654   4.602   5.311   9.716
   67PPPE  H16S42655   4.633   5.399   9.866
   67PPPE  H16T42656   4.495   5.322   9.842
   67PPPE   C3342657   4.853   5.522   8.081
   67PPPE   H3X42658   4.949   5.558   8.079
   67PPPE   H3Y42659   4.891   5.417   8.107
   67PPPE   C3442660   4.895   5.664   8.158
   67PPPE   H4X42661   4.930   5.731   8.069
   67PPPE   H4Y42662   4.793   5.696   8.172
   67PPPE   C3542663   4.943   5.680   8.327
   67PPPE   H5X42664   4.989   5.775   8.311
   67PPPE   H5Y42665   5.038   5.640   8.382
   67PPPE   C3642666   4.831   5.699   8.449
   67PPPE   H6X42667   4.736   5.642   8.440
   67PPPE   H6Y42668   4.787   5.796   8.423
   67PPPE   C3742669   4.863   5.692   8.612
   67PPPE   H7X42670   4.965   5.733   8.615
   67PPPE   H7Y42671   4.868   5.584   8.635
   67PPPE   C3842672   4.781   5.781   8.726
   67PPPE   H8X42673   4.676   5.742   8.715
   67PPPE   H8Y42674   4.793   5.856   8.649
   67PPPE   C3942675   4.824   5.824   8.882
   67PPPE   H9X42676   4.908   5.758   8.894
   67PPPE   H9Y42677   4.848   5.904   8.971
   67PPPE  C31042678   4.696   5.805   8.957
   67PPPE  H10X42679   4.607   5.746   8.932
   67PPPE  H10Y42680   4.665   5.905   8.912
   67PPPE  C31142681   4.748   5.753   9.094
   67PPPE  H11X42682   4.859   5.758   9.107
   67PPPE  H11Y42683   4.738   5.645   9.109
   67PPPE  C31242684   4.680   5.832   9.199
   67PPPE  H12X42685   4.571   5.812   9.201
   67PPPE  H12Y42686   4.694   5.926   9.141
   67PPPE  C31342687   4.734   5.809   9.342
   67PPPE  H13X42688   4.833   5.853   9.360
   67PPPE  H13Y42689   4.752   5.699   9.347
   67PPPE  C31442690   4.651   5.871   9.457
   67PPPE  H14X42691   4.549   5.828   9.460
   67PPPE  H14Y42692   4.644   5.982   9.444
   67PPPE  C31542693   4.709   5.859   9.599
   67PPPE  H15X42694   4.803   5.918   9.605
   67PPPE  H15Y42695   4.734   5.751   9.614
   67PPPE  C31642696   4.607   5.907   9.704
   67PPPE  H16X42697   4.593   6.017   9.706
   67PPPE  H16Y42698   4.513   5.851   9.696
   67PPPE  H16Z42699   4.628   5.884   9.807
   68PPPE     N42700   5.882   3.922   7.634
   68PPPE   HN142701   5.845   3.824   7.650
   68PPPE   HN242702   5.868   3.947   7.534
   68PPPE   HN342703   5.984   3.919   7.654
   68PPPE   C1242704   5.813   4.014   7.731
   68PPPE  H12A42705   5.710   4.031   7.700
   68PPPE  H12B42706   5.865   4.112   7.728
   68PPPE   C1142707   5.803   3.954   7.871
   68PPPE  H11A42708   5.757   4.030   7.938
   68PPPE  H11B42709   5.905   3.930   7.907
   68PPPE     P42710   5.767   3.693   7.887
   68PPPE   O1342711   5.656   3.605   7.928
   68PPPE   O1442712   5.843   3.667   7.764
   68PPPE   O1142713   5.871   3.705   8.007
   68PPPE   O1242714   5.716   3.842   7.873
   68PPPE    C142715   5.816   3.758   8.128
   68PPPE    HA42716   5.727   3.697   8.159
   68PPPE    HB42717   5.792   3.864   8.119
   68PPPE    C242718   5.919   3.749   8.235
   68PPPE    HS42719   6.015   3.769   8.178
   68PPPE   O2142720   5.884   3.616   8.275
   68PPPE   C2142721   5.981   3.586   8.334
   68PPPE   O2242722   6.087   3.654   8.332
   68PPPE   C2242723   5.941   3.450   8.399
   68PPPE   H2R42724   5.954   3.400   8.299
   68PPPE   H2S42725   5.843   3.404   8.399
   68PPPE    C342726   5.929   3.837   8.365
   68PPPE    HX42727   5.981   3.790   8.453
   68PPPE    HY42728   5.976   3.933   8.341
   68PPPE   O3142729   5.805   3.845   8.412
   68PPPE   C3142730   5.800   3.926   8.512
   68PPPE   O3242731   5.888   3.984   8.572
   68PPPE   C3242732   5.665   3.944   8.530
   68PPPE   H2X42733   5.620   3.902   8.437
   68PPPE   H2Y42734   5.651   4.055   8.529
   68PPPE   C2342735   6.010   3.408   8.539
   68PPPE   H3R42736   6.103   3.436   8.589
   68PPPE   H3S42737   6.077   3.333   8.516
   68PPPE   C2442738   5.944   3.400   8.663
   68PPPE   H4R42739   6.000   3.354   8.749
   68PPPE   H4S42740   5.889   3.333   8.601
   68PPPE   C2542741   5.900   3.538   8.677
   68PPPE   H5R42742   5.866   3.574   8.577
   68PPPE   H5S42743   5.985   3.601   8.708
   68PPPE   C2642744   5.785   3.540   8.771
   68PPPE   H6R42745   5.707   3.477   8.721
   68PPPE   H6S42746   5.755   3.646   8.767
   68PPPE   C2742747   5.825   3.505   8.916
   68PPPE   H7R42748   5.934   3.508   8.926
   68PPPE   H7S42749   5.809   3.408   8.963
   68PPPE   C2842750   5.746   3.571   9.025
   68PPPE   H8R42751   5.769   3.678   9.019
   68PPPE   H8S42752   5.788   3.524   9.117
   68PPPE   C2942753   5.600   3.541   9.012
   68PPPE   H9142754   5.546   3.579   8.925
   68PPPE  C21042755   5.527   3.489   9.109
   68PPPE  H10142756   5.421   3.469   9.096
   68PPPE  C21142757   5.567   3.452   9.245
   68PPPE  H11R42758   5.660   3.499   9.284
   68PPPE  H11S42759   5.558   3.341   9.246
   68PPPE  C21242760   5.472   3.492   9.352
   68PPPE  H12R42761   5.382   3.464   9.298
   68PPPE  H12S42762   5.477   3.604   9.355
   68PPPE  C21342763   5.509   3.406   9.480
   68PPPE  H13R42764   5.601   3.469   9.505
   68PPPE  H13S42765   5.541   3.310   9.446
   68PPPE  C21442766   5.445   3.372   9.622
   68PPPE  H14R42767   5.348   3.372   9.672
   68PPPE  H14S42768   5.347   3.310   9.622
   68PPPE  C21542769   5.471   3.529   9.631
   68PPPE  H15R42770   5.518   3.446   9.691
   68PPPE  H15S42771   5.384   3.585   9.647
   68PPPE  C21642772   5.519   3.646   9.708
   68PPPE  H16R42773   5.501   3.664   9.815
   68PPPE  H16S42774   5.557   3.709   9.629
   68PPPE  H16T42775   5.442   3.723   9.726
   68PPPE   C3342776   5.612   3.867   8.653
   68PPPE   H3X42777   5.630   3.761   8.659
   68PPPE   H3Y42778   5.506   3.835   8.653
   68PPPE   C3442779   5.628   3.950   8.776
   68PPPE   H4X42780   5.601   4.056   8.758
   68PPPE   H4Y42781   5.735   3.960   8.791
   68PPPE   C3542782   5.562   3.871   8.889
   68PPPE   H5X42783   5.588   3.766   8.884
   68PPPE   H5Y42784   5.452   3.864   8.905
   68PPPE   C3642785   5.594   3.933   9.016
   68PPPE   H6X42786   5.521   4.013   9.005
   68PPPE   H6Y42787   5.687   3.989   9.024
   68PPPE   C3742788   5.547   3.851   9.134
   68PPPE   H7X42789   5.603   3.764   9.158
   68PPPE   H7Y42790   5.445   3.828   9.095
   68PPPE   C3842791   5.527   3.923   9.266
   68PPPE   H8X42792   5.456   3.918   9.344
   68PPPE   H8Y42793   5.450   3.982   9.211
   68PPPE   C3942794   5.643   3.965   9.355
   68PPPE   H9X42795   5.621   4.019   9.451
   68PPPE   H9Y42796   5.716   4.029   9.304
   68PPPE  C31042797   5.694   3.844   9.413
   68PPPE  H10X42798   5.714   3.782   9.324
   68PPPE  H10Y42799   5.612   3.800   9.471
   68PPPE  C31142800   5.813   3.882   9.494
   68PPPE  H11X42801   5.782   3.917   9.595
   68PPPE  H11Y42802   5.873   3.961   9.444
   68PPPE  C31242803   5.894   3.761   9.516
   68PPPE  H12X42804   5.987   3.788   9.569
   68PPPE  H12Y42805   5.921   3.715   9.417
   68PPPE  C31342806   5.812   3.667   9.602
   68PPPE  H13X42807   5.721   3.632   9.547
   68PPPE  H13Y42808   5.781   3.697   9.703
   68PPPE  C31442809   5.896   3.552   9.621
   68PPPE  H14X42810   5.971   3.549   9.536
   68PPPE  H14Y42811   5.822   3.471   9.622
   68PPPE  C31542812   5.955   3.508   9.752
   68PPPE  H15X42813   6.001   3.405   9.754
   68PPPE  H15Y42814   5.878   3.503   9.830
   68PPPE  C31642815   6.072   3.592   9.773
   68PPPE  H16X42816   6.145   3.574   9.690
   68PPPE  H16Y42817   6.040   3.697   9.775
   68PPPE  H16Z42818   6.114   3.554   9.866
   69PPPE     N42819   5.058   2.328   7.796
   69PPPE   HN142820   5.047   2.382   7.885
   69PPPE   HN242821   5.143   2.268   7.802
   69PPPE   HN342822   5.067   2.399   7.720
   69PPPE   C1242823   4.930   2.253   7.769
   69PPPE  H12A42824   4.936   2.150   7.810
   69PPPE  H12B42825   4.923   2.243   7.659
   69PPPE   C1142826   4.809   2.326   7.831
   69PPPE  H11A42827   4.821   2.322   7.942
   69PPPE  H11B42828   4.715   2.270   7.808
   69PPPE     P42829   4.695   2.562   7.856
   69PPPE   O1342830   4.678   2.685   7.776
   69PPPE   O1442831   4.572   2.491   7.891
   69PPPE   O1142832   4.773   2.597   7.988
   69PPPE   O1242833   4.802   2.462   7.786
   69PPPE    C142834   4.894   2.671   7.999
   69PPPE    HA42835   4.873   2.765   8.054
   69PPPE    HB42836   4.936   2.704   7.900
   69PPPE    C242837   4.995   2.583   8.078
   69PPPE    HS42838   5.014   2.491   8.020
   69PPPE   O2142839   4.936   2.558   8.207
   69PPPE   C2142840   4.967   2.446   8.261
   69PPPE   O2242841   5.036   2.357   8.212
   69PPPE   C2242842   4.892   2.441   8.392
   69PPPE   H2R42843   4.784   2.450   8.367
   69PPPE   H2S42844   4.917   2.530   8.454
   69PPPE    C342845   5.129   2.647   8.098
   69PPPE    HX42846   5.213   2.581   8.133
   69PPPE    HY42847   5.161   2.696   8.011
   69PPPE   O3142848   5.092   2.753   8.176
   69PPPE   C3142849   5.127   2.726   8.287
   69PPPE   O3242850   5.218   2.654   8.330
   69PPPE   C3242851   5.067   2.837   8.345
   69PPPE   H2X42852   5.073   2.937   8.315
   69PPPE   H2Y42853   5.171   2.832   8.386
   69PPPE   C2342854   4.928   2.317   8.473
   69PPPE   H3R42855   5.033   2.328   8.508
   69PPPE   H3S42856   4.928   2.226   8.408
   69PPPE   C2442857   4.826   2.303   8.588
   69PPPE   H4R42858   4.833   2.205   8.641
   69PPPE   H4S42859   4.727   2.309   8.538
   69PPPE   C2542860   4.831   2.413   8.695
   69PPPE   H5R42861   4.734   2.414   8.750
   69PPPE   H5S42862   4.846   2.510   8.644
   69PPPE   C2642863   4.946   2.396   8.794
   69PPPE   H6R42864   5.038   2.403   8.733
   69PPPE   H6S42865   4.938   2.294   8.840
   69PPPE   C2742866   4.959   2.506   8.901
   69PPPE   H7R42867   4.870   2.505   8.968
   69PPPE   H7S42868   4.971   2.604   8.850
   69PPPE   C2842869   5.085   2.490   8.986
   69PPPE   H8R42870   5.174   2.495   8.917
   69PPPE   H8S42871   5.073   2.383   9.013
   69PPPE   C2942872   5.114   2.575   9.108
   69PPPE   H9142873   5.165   2.669   9.085
   69PPPE  C21042874   5.085   2.551   9.238
   69PPPE  H10142875   5.124   2.624   9.311
   69PPPE  C21142876   5.013   2.434   9.301
   69PPPE  H11R42877   5.084   2.355   9.334
   69PPPE  H11S42878   4.945   2.385   9.227
   69PPPE  C21242879   4.928   2.477   9.424
   69PPPE  H12R42880   4.867   2.392   9.464
   69PPPE  H12S42881   4.857   2.556   9.391
   69PPPE  C21342882   5.002   2.535   9.546
   69PPPE  H13R42883   4.926   2.592   9.604
   69PPPE  H13S42884   5.083   2.607   9.522
   69PPPE  C21442885   5.059   2.427   9.639
   69PPPE  H14R42886   5.138   2.375   9.581
   69PPPE  H14S42887   4.977   2.354   9.658
   69PPPE  C21542888   5.108   2.494   9.772
   69PPPE  H15R42889   5.013   2.532   9.817
   69PPPE  H15S42890   5.176   2.574   9.740
   69PPPE  C21642891   5.178   2.426   9.891
   69PPPE  H16R42892   5.103   2.362   9.946
   69PPPE  H16S42893   5.263   2.368   9.848
   69PPPE  H16T42894   5.228   2.478   9.972
   69PPPE   C3342895   4.939   2.917   8.359
   69PPPE   H3X42896   4.900   2.931   8.260
   69PPPE   H3Y42897   4.923   3.022   8.401
   69PPPE   C3442898   4.889   2.842   8.465
   69PPPE   H4X42899   4.931   2.883   8.557
   69PPPE   H4Y42900   4.883   2.732   8.458
   69PPPE   C3542901   4.803   2.907   8.547
   69PPPE   H5X42902   4.753   2.905   8.446
   69PPPE   H5Y42903   4.796   3.016   8.561
   69PPPE   C3642904   4.788   2.805   8.669
   69PPPE   H6X42905   4.772   2.695   8.664
   69PPPE   H6Y42906   4.690   2.793   8.674
   69PPPE   C3742907   4.832   2.863   8.800
   69PPPE   H7X42908   4.850   2.972   8.791
   69PPPE   H7Y42909   4.913   2.792   8.806
   69PPPE   C3842910   4.740   2.860   8.913
   69PPPE   H8X42911   4.702   2.754   8.919
   69PPPE   H8Y42912   4.672   2.955   8.902
   69PPPE   C3942913   4.765   2.909   9.044
   69PPPE   H9X42914   4.670   2.895   9.097
   69PPPE   H9Y42915   4.785   3.017   9.030
   69PPPE  C31042916   4.874   2.826   9.088
   69PPPE  H10X42917   4.955   2.834   9.013
   69PPPE  H10Y42918   4.844   2.719   9.101
   69PPPE  C31142919   4.917   2.890   9.211
   69PPPE  H11X42920   4.930   3.001   9.199
   69PPPE  H11Y42921   5.008   2.835   9.239
   69PPPE  C31242922   4.819   2.878   9.320
   69PPPE  H12X42923   4.775   2.777   9.325
   69PPPE  H12Y42924   4.746   2.963   9.308
   69PPPE  C31342925   4.889   2.899   9.448
   69PPPE  H13X42926   4.934   2.997   9.419
   69PPPE  H13Y42927   4.946   2.810   9.480
   69PPPE  C31442928   4.822   2.932   9.571
   69PPPE  H14X42929   4.737   2.865   9.571
   69PPPE  H14Y42930   4.794   3.039   9.553
   69PPPE  C31542931   4.887   2.902   9.709
   69PPPE  H15X42932   4.924   2.799   9.719
   69PPPE  H15Y42933   4.831   2.912   9.804
   69PPPE  C31642934   4.976   3.006   9.747
   69PPPE  H16X42935   4.951   3.114   9.731
   69PPPE  H16Y42936   5.016   2.994   9.849
   69PPPE  H16Z42937   5.051   2.975   9.676
   70PPPE     N42938   6.158   4.566   7.706
   70PPPE   HN142939   6.123   4.471   7.733
   70PPPE   HN242940   6.251   4.562   7.659
   70PPPE   HN342941   6.157   4.624   7.793
   70PPPE   C1242942   6.048   4.627   7.625
   70PPPE  H12A42943   6.055   4.592   7.520
   70PPPE  H12B42944   6.061   4.737   7.626
   70PPPE   C1142945   5.916   4.587   7.693
   70PPPE  H11A42946   5.893   4.483   7.664
   70PPPE  H11B42947   5.834   4.654   7.658
   70PPPE     P42948   5.834   4.660   7.935
   70PPPE   O1342949   5.783   4.780   7.868
   70PPPE   O1442950   5.742   4.564   7.998
   70PPPE   O1142951   5.949   4.699   8.033
   70PPPE   O1242952   5.927   4.582   7.833
   70PPPE    C142953   6.011   4.602   8.116
   70PPPE    HA42954   6.088   4.546   8.060
   70PPPE    HB42955   5.938   4.533   8.163
   70PPPE    C242956   6.084   4.678   8.225
   70PPPE    HS42957   6.146   4.610   8.286
   70PPPE   O2142958   5.989   4.747   8.310
   70PPPE   C2142959   5.911   4.674   8.385
   70PPPE   O2242960   5.918   4.554   8.401
   70PPPE   C2242961   5.823   4.764   8.473
   70PPPE   H2R42962   5.721   4.721   8.479
   70PPPE   H2S42963   5.819   4.867   8.433
   70PPPE    C342964   6.182   4.779   8.156
   70PPPE    HX42965   6.224   4.742   8.063
   70PPPE    HY42966   6.125   4.869   8.119
   70PPPE   O3142967   6.291   4.800   8.248
   70PPPE   C3142968   6.232   4.884   8.335
   70PPPE   O3242969   6.137   4.947   8.308
   70PPPE   C3242970   6.288   4.907   8.463
   70PPPE   H2X42971   6.350   4.849   8.505
   70PPPE   H2Y42972   6.378   4.855   8.423
   70PPPE   C2342973   5.887   4.760   8.612
   70PPPE   H3R42974   5.989   4.786   8.591
   70PPPE   H3S42975   5.889   4.657   8.652
   70PPPE   C2442976   5.832   4.862   8.711
   70PPPE   H4R42977   5.723   4.845   8.719
   70PPPE   H4S42978   5.849   4.963   8.666
   70PPPE   C2542979   5.888   4.848   8.854
   70PPPE   H5R42980   5.870   4.747   8.893
   70PPPE   H5S42981   5.839   4.924   8.921
   70PPPE   C2642982   6.036   4.874   8.859
   70PPPE   H6R42983   6.010   4.978   8.860
   70PPPE   H6S42984   6.092   4.861   8.768
   70PPPE   C2742985   6.123   4.826   8.972
   70PPPE   H7R42986   6.145   4.720   8.953
   70PPPE   H7S42987   6.076   4.841   9.072
   70PPPE   C2842988   6.265   4.875   8.966
   70PPPE   H8R42989   6.277   4.973   8.936
   70PPPE   H8S42990   6.325   4.881   8.884
   70PPPE   C2942991   6.336   4.864   9.086
   70PPPE   H9142992   6.395   4.787   9.117
   70PPPE  C21042993   6.307   4.903   9.199
   70PPPE  H10142994   6.391   4.979   9.189
   70PPPE  C21142995   6.197   4.971   9.254
   70PPPE  H11R42996   6.211   5.075   9.262
   70PPPE  H11S42997   6.230   5.039   9.186
   70PPPE  C21242998   6.103   4.989   9.373
   70PPPE  H12R42999   6.024   4.927   9.329
   70PPPE  H12S43000   6.067   5.094   9.384
   70PPPE  C21343001   6.135   4.950   9.513
   70PPPE  H13R43002   6.196   5.024   9.559
   70PPPE  H13S43003   6.168   4.847   9.522
   70PPPE  C21443004   6.024   4.959   9.614
   70PPPE  H14R43005   5.970   4.864   9.593
   70PPPE  H14S43006   5.962   5.048   9.593
   70PPPE  C21543007   6.088   4.969   9.755
   70PPPE  H15R43008   6.156   5.057   9.759
   70PPPE  H15S43009   6.151   4.879   9.774
   70PPPE  C21643010   5.981   4.983   9.862
   70PPPE  H16R43011   5.893   4.927   9.826
   70PPPE  H16S43012   6.014   4.943   9.960
   70PPPE  H16T43013   5.952   5.090   9.873
   70PPPE   C3343014   6.253   4.820   8.589
   70PPPE   H3X43015   6.152   4.829   8.598
   70PPPE   H3Y43016   6.285   4.878   8.680
   70PPPE   C3443017   6.321   4.675   8.570
   70PPPE   H4X43018   6.429   4.681   8.534
   70PPPE   H4Y43019   6.270   4.636   8.483
   70PPPE   C3543020   6.306   4.595   8.691
   70PPPE   H5X43021   6.256   4.652   8.771
   70PPPE   H5Y43022   6.400   4.593   8.725
   70PPPE   C3643023   6.307   4.445   8.690
   70PPPE   H6X43024   6.357   4.405   8.783
   70PPPE   H6Y43025   6.365   4.400   8.610
   70PPPE   C3743026   6.164   4.410   8.674
   70PPPE   H7X43027   6.160   4.304   8.649
   70PPPE   H7Y43028   6.125   4.465   8.585
   70PPPE   C3843029   6.088   4.459   8.799
   70PPPE   H8X43030   6.020   4.539   8.765
   70PPPE   H8Y43031   6.156   4.504   8.874
   70PPPE   C3943032   6.007   4.352   8.871
   70PPPE   H9X43033   6.071   4.263   8.889
   70PPPE   H9Y43034   5.924   4.323   8.802
   70PPPE  C31043035   5.949   4.404   9.005
   70PPPE  H10X43036   5.880   4.326   9.047
   70PPPE  H10Y43037   5.891   4.496   8.986
   70PPPE  C31143038   6.055   4.438   9.112
   70PPPE  H11X43039   6.114   4.527   9.079
   70PPPE  H11Y43040   6.123   4.351   9.124
   70PPPE  C31243041   6.002   4.474   9.251
   70PPPE  H12X43042   5.923   4.399   9.275
   70PPPE  H12Y43043   5.956   4.575   9.253
   70PPPE  C31343044   6.112   4.469   9.358
   70PPPE  H13X43045   6.192   4.544   9.338
   70PPPE  H13Y43046   6.158   4.368   9.356
   70PPPE  C31443047   6.054   4.481   9.498
   70PPPE  H14X43048   5.991   4.390   9.513
   70PPPE  H14Y43049   5.990   4.572   9.502
   70PPPE  C31543050   6.156   4.486   9.611
   70PPPE  H15X43051   6.239   4.553   9.578
   70PPPE  H15Y43052   6.202   4.387   9.631
   70PPPE  C31643053   6.088   4.537   9.738
   70PPPE  H16X43054   6.160   4.558   9.819
   70PPPE  H16Y43055   6.034   4.632   9.717
   70PPPE  H16Z43056   6.015   4.462   9.776
   71PPPE     N43057   2.020   3.969   8.067
   71PPPE   HN143058   1.986   3.964   8.165
   71PPPE   HN243059   2.114   3.924   8.058
   71PPPE   HN343060   2.026   4.068   8.034
   71PPPE   C1243061   1.918   3.904   7.977
   71PPPE  H12A43062   1.828   3.970   7.985
   71PPPE  H12B43063   1.898   3.802   8.016
   71PPPE   C1143064   1.951   3.903   7.826
   71PPPE  H11A43065   1.905   3.996   7.786
   71PPPE  H11B43066   1.898   3.817   7.777
   71PPPE     P43067   2.175   3.783   7.754
   71PPPE   O1343068   2.100   3.699   7.660
   71PPPE   O1443069   2.310   3.829   7.714
   71PPPE   O1143070   2.176   3.718   7.897
   71PPPE   O1243071   2.090   3.909   7.796
   71PPPE    C143072   2.297   3.705   7.965
   71PPPE    HA43073   2.333   3.796   8.016
   71PPPE    HB43074   2.378   3.659   7.900
   71PPPE    C243075   2.271   3.608   8.075
   71PPPE    HS43076   2.267   3.520   8.009
   71PPPE   O2143077   2.146   3.632   8.154
   71PPPE   C2143078   2.057   3.541   8.207
   71PPPE   O2243079   2.025   3.432   8.165
   71PPPE   C2243080   2.013   3.596   8.349
   71PPPE   H2R43081   1.907   3.594   8.329
   71PPPE   H2S43082   2.055   3.697   8.360
   71PPPE    C343083   2.405   3.618   8.162
   71PPPE    HX43084   2.433   3.529   8.216
   71PPPE    HY43085   2.499   3.612   8.105
   71PPPE   O3143086   2.399   3.725   8.252
   71PPPE   C3143087   2.461   3.717   8.366
   71PPPE   O3243088   2.531   3.629   8.411
   71PPPE   C3243089   2.435   3.847   8.426
   71PPPE   H2X43090   2.327   3.862   8.443
   71PPPE   H2Y43091   2.476   3.927   8.358
   71PPPE   C2343092   2.015   3.526   8.490
   71PPPE   H3R43093   2.107   3.553   8.541
   71PPPE   H3S43094   1.997   3.416   8.487
   71PPPE   C2443095   1.948   3.595   8.610
   71PPPE   H4R43096   1.846   3.613   8.579
   71PPPE   H4S43097   1.999   3.694   8.630
   71PPPE   C2543098   1.956   3.517   8.743
   71PPPE   H5R43099   2.056   3.525   8.786
   71PPPE   H5S43100   1.939   3.408   8.728
   71PPPE   C2643101   1.864   3.573   8.853
   71PPPE   H6R43102   1.878   3.510   8.944
   71PPPE   H6S43103   1.759   3.562   8.820
   71PPPE   C2743104   1.888   3.721   8.887
   71PPPE   H7R43105   1.858   3.781   8.798
   71PPPE   H7S43106   1.993   3.745   8.916
   71PPPE   C2843107   1.801   3.757   9.005
   71PPPE   H8R43108   1.829   3.694   9.092
   71PPPE   H8S43109   1.694   3.745   8.990
   71PPPE   C2943110   1.797   3.895   9.045
   71PPPE   H9143111   1.779   3.977   8.972
   71PPPE  C21043112   1.852   3.930   9.155
   71PPPE  H10143113   1.815   4.032   9.159
   71PPPE  C21143114   1.933   3.866   9.270
   71PPPE  H11R43115   2.044   3.885   9.257
   71PPPE  H11S43116   1.913   3.760   9.264
   71PPPE  C21243117   1.910   3.897   9.421
   71PPPE  H12R43118   1.803   3.921   9.437
   71PPPE  H12S43119   1.969   3.984   9.450
   71PPPE  C21343120   1.961   3.809   9.529
   71PPPE  H13R43121   1.957   3.869   9.625
   71PPPE  H13S43122   2.065   3.776   9.509
   71PPPE  C21443123   1.862   3.699   9.545
   71PPPE  H14R43124   1.828   3.664   9.445
   71PPPE  H14S43125   1.779   3.755   9.589
   71PPPE  C21543126   1.918   3.593   9.638
   71PPPE  H15R43127   2.008   3.551   9.587
   71PPPE  H15S43128   1.847   3.510   9.654
   71PPPE  C21643129   1.961   3.644   9.776
   71PPPE  H16R43130   2.057   3.700   9.773
   71PPPE  H16S43131   1.884   3.709   9.822
   71PPPE  H16T43132   1.980   3.556   9.842
   71PPPE   C3343133   2.509   3.849   8.553
   71PPPE   H3X43134   2.615   3.832   8.525
   71PPPE   H3Y43135   2.489   3.775   8.632
   71PPPE   C3443136   2.467   3.977   8.612
   71PPPE   H4X43137   2.364   3.999   8.643
   71PPPE   H4Y43138   2.490   4.064   8.543
   71PPPE   C3543139   2.534   3.974   8.742
   71PPPE   H5X43140   2.540   4.083   8.724
   71PPPE   H5Y43141   2.635   3.931   8.759
   71PPPE   C3643142   2.505   3.903   8.869
   71PPPE   H6X43143   2.597   3.891   8.938
   71PPPE   H6Y43144   2.489   3.799   8.844
   71PPPE   C3743145   2.421   3.992   8.949
   71PPPE   H7X43146   2.316   3.967   8.924
   71PPPE   H7Y43147   2.434   4.097   8.911
   71PPPE   C3843148   2.474   3.973   9.092
   71PPPE   H8X43149   2.574   4.011   9.115
   71PPPE   H8Y43150   2.453   3.876   9.135
   71PPPE   C3943151   2.413   4.057   9.186
   71PPPE   H9X43152   2.309   4.013   9.170
   71PPPE   H9Y43153   2.440   4.156   9.135
   71PPPE  C31043154   2.432   4.073   9.334
   71PPPE  H10X43155   2.365   4.145   9.389
   71PPPE  H10Y43156   2.534   4.107   9.350
   71PPPE  C31143157   2.364   3.973   9.419
   71PPPE  H11X43158   2.401   3.883   9.369
   71PPPE  H11Y43159   2.252   3.984   9.417
   71PPPE  C31243160   2.419   3.997   9.558
   71PPPE  H12X43161   2.414   4.102   9.594
   71PPPE  H12Y43162   2.526   3.970   9.551
   71PPPE  C31343163   2.346   3.912   9.658
   71PPPE  H13X43164   2.327   3.813   9.612
   71PPPE  H13Y43165   2.246   3.958   9.678
   71PPPE  C31443166   2.429   3.906   9.785
   71PPPE  H14X43167   2.359   3.881   9.869
   71PPPE  H14Y43168   2.479   4.002   9.808
   71PPPE  C31543169   2.537   3.800   9.782
   71PPPE  H15X43170   2.589   3.798   9.877
   71PPPE  H15Y43171   2.614   3.812   9.701
   71PPPE  C31643172   2.471   3.666   9.775
   71PPPE  H16X43173   2.391   3.646   9.847
   71PPPE  H16Y43174   2.430   3.657   9.675
   71PPPE  H16Z43175   2.544   3.591   9.801
   72PPPE     N43176   2.963   5.775   7.835
   72PPPE   HN143177   2.895   5.719   7.890
   72PPPE   HN243178   2.984   5.865   7.883
   72PPPE   HN343179   2.919   5.797   7.744
   72PPPE   C1243180   3.095   5.707   7.807
   72PPPE  H12A43181   3.073   5.620   7.742
   72PPPE  H12B43182   3.136   5.670   7.903
   72PPPE   C1143183   3.196   5.802   7.738
   72PPPE  H11A43184   3.145   5.863   7.660
   72PPPE  H11B43185   3.272   5.744   7.680
   72PPPE     P43186   3.222   6.032   7.865
   72PPPE   O1343187   3.113   6.064   7.770
   72PPPE   O1443188   3.187   6.039   8.008
   72PPPE   O1143189   3.352   6.116   7.835
   72PPPE   O1243190   3.262   5.881   7.836
   72PPPE    C143191   3.480   6.057   7.815
   72PPPE    HA43192   3.542   6.135   7.765
   72PPPE    HB43193   3.477   5.968   7.748
   72PPPE    C243194   3.552   6.017   7.945
   72PPPE    HS43195   3.650   5.969   7.924
   72PPPE   O2143196   3.479   5.936   8.037
   72PPPE   C2143197   3.483   5.807   8.015
   72PPPE   O2243198   3.544   5.751   7.925
   72PPPE   C2243199   3.392   5.738   8.115
   72PPPE   H2R43200   3.402   5.627   8.107
   72PPPE   H2S43201   3.290   5.767   8.084
   72PPPE    C343202   3.586   6.140   8.026
   72PPPE    HX43203   3.617   6.083   8.118
   72PPPE    HY43204   3.673   6.193   7.978
   72PPPE   O3143205   3.481   6.234   8.058
   72PPPE   C3143206   3.423   6.225   8.178
   72PPPE   O3243207   3.460   6.157   8.271
   72PPPE   C3243208   3.313   6.327   8.191
   72PPPE   H2X43209   3.255   6.324   8.097
   72PPPE   H2Y43210   3.358   6.428   8.204
   72PPPE   C2343211   3.414   5.788   8.260
   72PPPE   H3R43212   3.414   5.899   8.262
   72PPPE   H3S43213   3.514   5.754   8.294
   72PPPE   C2443214   3.300   5.737   8.350
   72PPPE   H4R43215   3.329   5.636   8.385
   72PPPE   H4S43216   3.209   5.726   8.287
   72PPPE   C2543217   3.257   5.824   8.470
   72PPPE   H5R43218   3.150   5.803   8.494
   72PPPE   H5S43219   3.265   5.931   8.442
   72PPPE   C2643220   3.335   5.793   8.599
   72PPPE   H6R43221   3.444   5.802   8.580
   72PPPE   H6S43222   3.302   5.692   8.625
   72PPPE   C2743223   3.296   5.867   8.727
   72PPPE   H7R43224   3.195   5.833   8.759
   72PPPE   H7S43225   3.292   5.972   8.694
   72PPPE   C2843226   3.399   5.865   8.843
   72PPPE   H8R43227   3.367   5.933   8.923
   72PPPE   H8S43228   3.499   5.894   8.805
   72PPPE   C2943229   3.416   5.736   8.910
   72PPPE   H9143230   3.504   5.680   8.874
   72PPPE  C21043231   3.325   5.679   8.991
   72PPPE  H10143232   3.339   5.577   9.018
   72PPPE  C21143233   3.191   5.722   9.038
   72PPPE  H11R43234   3.106   5.667   8.994
   72PPPE  H11S43235   3.182   5.828   9.012
   72PPPE  C21243236   3.187   5.704   9.189
   72PPPE  H12R43237   3.168   5.597   9.218
   72PPPE  H12S43238   3.097   5.756   9.230
   72PPPE  C21343239   3.313   5.766   9.250
   72PPPE  H13R43240   3.318   5.875   9.242
   72PPPE  H13S43241   3.411   5.725   9.211
   72PPPE  C21443242   3.316   5.735   9.393
   72PPPE  H14R43243   3.376   5.643   9.375
   72PPPE  H14S43244   3.216   5.702   9.431
   72PPPE  C21543245   3.385   5.829   9.498
   72PPPE  H15R43246   3.309   5.907   9.516
   72PPPE  H15S43247   3.481   5.864   9.458
   72PPPE  C21643248   3.424   5.788   9.641
   72PPPE  H16R43249   3.486   5.696   9.643
   72PPPE  H16S43250   3.485   5.854   9.703
   72PPPE  H16T43251   3.327   5.779   9.695
   72PPPE   C3343252   3.219   6.298   8.309
   72PPPE   H3X43253   3.205   6.189   8.329
   72PPPE   H3Y43254   3.120   6.341   8.282
   72PPPE   C3443255   3.264   6.367   8.437
   72PPPE   H4X43256   3.213   6.466   8.440
   72PPPE   H4Y43257   3.374   6.382   8.438
   72PPPE   C3543258   3.219   6.286   8.557
   72PPPE   H5X43259   3.273   6.189   8.563
   72PPPE   H5Y43260   3.111   6.263   8.539
   72PPPE   C3643261   3.224   6.368   8.684
   72PPPE   H6X43262   3.140   6.440   8.678
   72PPPE   H6Y43263   3.317   6.428   8.696
   72PPPE   C3743264   3.213   6.282   8.810
   72PPPE   H7X43265   3.306   6.222   8.820
   72PPPE   H7Y43266   3.126   6.213   8.804
   72PPPE   C3843267   3.197   6.377   8.926
   72PPPE   H8X43268   3.121   6.448   8.892
   72PPPE   H8Y43269   3.289   6.437   8.942
   72PPPE   C3943270   3.152   6.315   9.057
   72PPPE   H9X43271   3.068   6.243   9.044
   72PPPE   H9Y43272   3.119   6.395   9.123
   72PPPE  C31043273   3.263   6.253   9.139
   72PPPE  H10X43274   3.352   6.319   9.137
   72PPPE  H10Y43275   3.288   6.158   9.087
   72PPPE  C31143276   3.214   6.215   9.280
   72PPPE  H11X43277   3.284   6.134   9.312
   72PPPE  H11Y43278   3.111   6.173   9.275
   72PPPE  C31243279   3.218   6.321   9.391
   72PPPE  H12X43280   3.129   6.387   9.382
   72PPPE  H12Y43281   3.308   6.385   9.379
   72PPPE  C31343282   3.216   6.256   9.531
   72PPPE  H13X43283   3.315   6.263   9.580
   72PPPE  H13Y43284   3.194   6.147   9.515
   72PPPE  C31443285   3.103   6.308   9.620
   72PPPE  H14X43286   3.014   6.313   9.555
   72PPPE  H14Y43287   3.120   6.411   9.658
   72PPPE  C31543288   3.069   6.211   9.733
   72PPPE  H15X43289   3.043   6.111   9.692
   72PPPE  H15Y43290   2.984   6.250   9.786
   72PPPE  C31643291   3.166   6.199   9.846
   72PPPE  H16X43292   3.181   6.302   9.884
   72PPPE  H16Y43293   3.122   6.133   9.924
   72PPPE  H16Z43294   3.259   6.151   9.813
   73PPPE     N43295   2.394   5.406   7.573
   73PPPE   HN143296   2.362   5.496   7.533
   73PPPE   HN243297   2.490   5.425   7.607
   73PPPE   HN343298   2.396   5.329   7.503
   73PPPE   C1243299   2.310   5.364   7.691
   73PPPE  H12A43300   2.376   5.305   7.757
   73PPPE  H12B43301   2.231   5.298   7.650
   73PPPE   C1143302   2.260   5.484   7.773
   73PPPE  H11A43303   2.214   5.449   7.870
   73PPPE  H11B43304   2.178   5.536   7.719
   73PPPE     P43305   2.450   5.588   7.932
   73PPPE   O1343306   2.450   5.458   8.002
   73PPPE   O1443307   2.581   5.651   7.898
   73PPPE   O1143308   2.363   5.692   8.014
   73PPPE   O1243309   2.368   5.575   7.796
   73PPPE    C143310   2.328   5.816   7.952
   73PPPE    HA43311   2.239   5.803   7.886
   73PPPE    HB43312   2.411   5.855   7.887
   73PPPE    C243313   2.299   5.924   8.059
   73PPPE    HS43314   2.315   6.024   8.017
   73PPPE   O2143315   2.374   5.907   8.181
   73PPPE   C2143316   2.503   5.922   8.167
   73PPPE   O2243317   2.563   5.954   8.065
   73PPPE   C2243318   2.568   5.913   8.306
   73PPPE   H2R43319   2.511   5.977   8.377
   73PPPE   H2S43320   2.671   5.953   8.294
   73PPPE    C343321   2.151   5.926   8.092
   73PPPE    HX43322   2.109   6.030   8.096
   73PPPE    HY43323   2.099   5.882   8.003
   73PPPE   O3143324   2.126   5.862   8.219
   73PPPE   C3143325   2.091   5.735   8.222
   73PPPE   O3243326   2.052   5.666   8.129
   73PPPE   C3243327   2.060   5.710   8.371
   73PPPE   H2X43328   1.995   5.620   8.379
   73PPPE   H2Y43329   1.999   5.794   8.410
   73PPPE   C2343330   2.575   5.771   8.368
   73PPPE   H3R43331   2.636   5.701   8.308
   73PPPE   H3S43332   2.471   5.731   8.374
   73PPPE   C2443333   2.632   5.777   8.511
   73PPPE   H4R43334   2.565   5.844   8.570
   73PPPE   H4S43335   2.734   5.819   8.509
   73PPPE   C2543336   2.636   5.640   8.580
   73PPPE   H5R43337   2.722   5.582   8.541
   73PPPE   H5S43338   2.542   5.587   8.555
   73PPPE   C2643339   2.650   5.650   8.734
   73PPPE   H6R43340   2.566   5.714   8.770
   73PPPE   H6S43341   2.747   5.700   8.758
   73PPPE   C2743342   2.642   5.514   8.806
   73PPPE   H7R43343   2.720   5.447   8.763
   73PPPE   H7S43344   2.541   5.473   8.785
   73PPPE   C2843345   2.659   5.514   8.959
   73PPPE   H8R43346   2.760   5.554   8.981
   73PPPE   H8S43347   2.660   5.410   9.000
   73PPPE   C2943348   2.549   5.591   9.026
   73PPPE   H9143349   2.444   5.566   9.001
   73PPPE  C21043350   2.572   5.692   9.109
   73PPPE  H10143351   2.486   5.749   9.146
   73PPPE  C21143352   2.710   5.739   9.147
   73PPPE  H11R43353   2.748   5.807   9.069
   73PPPE  H11S43354   2.782   5.654   9.156
   73PPPE  C21243355   2.714   5.809   9.281
   73PPPE  H12R43356   2.653   5.902   9.283
   73PPPE  H12S43357   2.818   5.839   9.305
   73PPPE  C21343358   2.665   5.713   9.387
   73PPPE  H13R43359   2.727   5.621   9.389
   73PPPE  H13S43360   2.558   5.682   9.374
   73PPPE  C21443361   2.677   5.779   9.517
   73PPPE  H14R43362   2.598   5.860   9.530
   73PPPE  H14S43363   2.777   5.818   9.547
   73PPPE  C21543364   2.664   5.670   9.612
   73PPPE  H15R43365   2.607   5.580   9.596
   73PPPE  H15S43366   2.607   5.744   9.673
   73PPPE  C21643367   2.783   5.588   9.659
   73PPPE  H16R43368   2.760   5.515   9.740
   73PPPE  H16S43369   2.805   5.523   9.572
   73PPPE  H16T43370   2.858   5.659   9.694
   73PPPE   C3343371   2.183   5.699   8.450
   73PPPE   H3X43372   2.164   5.754   8.544
   73PPPE   H3Y43373   2.263   5.748   8.392
   73PPPE   C3443374   2.208   5.552   8.472
   73PPPE   H4X43375   2.306   5.551   8.523
   73PPPE   H4Y43376   2.217   5.502   8.373
   73PPPE   C3543377   2.101   5.483   8.558
   73PPPE   H5X43378   2.116   5.373   8.557
   73PPPE   H5Y43379   1.997   5.498   8.523
   73PPPE   C3643380   2.101   5.532   8.702
   73PPPE   H6X43381   2.083   5.641   8.711
   73PPPE   H6Y43382   2.201   5.512   8.748
   73PPPE   C3743383   1.993   5.458   8.775
   73PPPE   H7X43384   2.031   5.353   8.765
   73PPPE   H7Y43385   1.895   5.446   8.724
   73PPPE   C3843386   1.966   5.519   8.914
   73PPPE   H8X43387   1.884   5.459   8.954
   73PPPE   H8Y43388   1.916   5.616   8.918
   73PPPE   C3943389   2.089   5.527   9.008
   73PPPE   H9X43390   2.180   5.570   8.966
   73PPPE   H9Y43391   2.147   5.438   9.003
   73PPPE  C31043392   2.061   5.580   9.149
   73PPPE  H10X43393   2.110   5.527   9.235
   73PPPE  H10Y43394   1.952   5.583   9.170
   73PPPE  C31143395   2.117   5.719   9.144
   73PPPE  H11X43396   2.072   5.766   9.053
   73PPPE  H11Y43397   2.227   5.710   9.126
   73PPPE  C31243398   2.084   5.794   9.270
   73PPPE  H12X43399   1.976   5.789   9.294
   73PPPE  H12Y43400   2.107   5.902   9.253
   73PPPE  C31343401   2.162   5.740   9.390
   73PPPE  H13X43402   2.250   5.677   9.365
   73PPPE  H13Y43403   2.097   5.682   9.460
   73PPPE  C31443404   2.212   5.857   9.470
   73PPPE  H14X43405   2.127   5.926   9.473
   73PPPE  H14Y43406   2.297   5.904   9.414
   73PPPE  C31543407   2.255   5.802   9.605
   73PPPE  H15X43408   2.350   5.771   9.559
   73PPPE  H15Y43409   2.182   5.731   9.642
   73PPPE  C31643410   2.287   5.868   9.734
   73PPPE  H16X43411   2.326   5.845   9.834
   73PPPE  H16Y43412   2.384   5.908   9.698
   73PPPE  H16Z43413   2.200   5.931   9.763
   74PPPE     N43414   2.636   2.419   7.531
   74PPPE   HN143415   2.533   2.421   7.549
   74PPPE   HN243416   2.671   2.518   7.540
   74PPPE   HN343417   2.650   2.388   7.433
   74PPPE   C1243418   2.706   2.331   7.631
   74PPPE  H12A43419   2.815   2.339   7.609
   74PPPE  H12B43420   2.672   2.226   7.616
   74PPPE   C1143421   2.687   2.376   7.777
   74PPPE  H11A43422   2.713   2.485   7.785
   74PPPE  H11B43423   2.760   2.316   7.837
   74PPPE     P43424   2.500   2.435   7.953
   74PPPE   O1343425   2.469   2.569   7.903
   74PPPE   O1443426   2.394   2.356   8.019
   74PPPE   O1143427   2.627   2.448   8.046
   74PPPE   O1243428   2.556   2.351   7.827
   74PPPE    C143429   2.669   2.343   8.131
   74PPPE    HA43430   2.779   2.335   8.121
   74PPPE    HB43431   2.624   2.245   8.104
   74PPPE    C243432   2.633   2.372   8.277
   74PPPE    HS43433   2.525   2.393   8.286
   74PPPE   O2143434   2.708   2.483   8.320
   74PPPE   C2143435   2.641   2.596   8.346
   74PPPE   O2243436   2.522   2.615   8.345
   74PPPE   C2243437   2.733   2.703   8.391
   74PPPE   H2R43438   2.756   2.790   8.339
   74PPPE   H2S43439   2.814   2.669   8.341
   74PPPE    C343440   2.669   2.249   8.365
   74PPPE    HX43441   2.606   2.160   8.343
   74PPPE    HY43442   2.774   2.222   8.338
   74PPPE   O3143443   2.667   2.281   8.504
   74PPPE   C3143444   2.545   2.299   8.554
   74PPPE   O3243445   2.441   2.276   8.496
   74PPPE   C3243446   2.561   2.352   8.696
   74PPPE   H2X43447   2.669   2.373   8.710
   74PPPE   H2Y43448   2.528   2.276   8.771
   74PPPE   C2343449   2.759   2.721   8.537
   74PPPE   H3R43450   2.747   2.607   8.557
   74PPPE   H3S43451   2.677   2.761   8.595
   74PPPE   C2443452   2.904   2.802   8.571
   74PPPE   H4R43453   2.913   2.908   8.575
   74PPPE   H4S43454   2.947   2.775   8.478
   74PPPE   C2543455   3.023   2.772   8.700
   74PPPE   H5R43456   2.927   2.833   8.743
   74PPPE   H5S43457   3.116   2.761   8.719
   74PPPE   C2643458   3.058   2.535   8.818
   74PPPE   H6R43459   3.069   2.450   8.757
   74PPPE   H6S43460   2.955   2.470   8.833
   74PPPE   C2743461   2.995   2.482   8.963
   74PPPE   H7R43462   2.883   2.501   8.999
   74PPPE   H7S43463   3.070   2.540   9.019
   74PPPE   C2843464   3.026   2.354   9.020
   74PPPE   H8R43465   3.024   2.383   9.128
   74PPPE   H8S43466   3.125   2.342   8.971
   74PPPE   C2943467   2.917   2.263   8.980
   74PPPE   H9143468   2.952   2.203   8.898
   74PPPE  C21043469   2.788   2.259   9.018
   74PPPE  H10143470   2.735   2.168   8.990
   74PPPE  C21143471   2.706   2.342   9.113
   74PPPE  H11R43472   2.607   2.369   9.068
   74PPPE  H11S43473   2.755   2.435   9.150
   74PPPE  C21243474   2.669   2.261   9.236
   74PPPE  H12R43475   2.760   2.237   9.295
   74PPPE  H12S43476   2.615   2.166   9.211
   74PPPE  C21343477   2.576   2.352   9.315
   74PPPE  H13R43478   2.481   2.375   9.262
   74PPPE  H13S43479   2.630   2.438   9.356
   74PPPE  C21443480   2.538   2.302   9.452
   74PPPE  H14R43481   2.627   2.258   9.496
   74PPPE  H14S43482   2.509   2.200   9.421
   74PPPE  C21543483   2.445   2.410   9.558
   74PPPE  H15R43484   2.373   2.406   9.473
   74PPPE  H15S43485   2.518   2.476   9.552
   74PPPE  C21643486   2.396   2.403   9.739
   74PPPE  H16R43487   2.486   2.370   9.791
   74PPPE  H16S43488   2.353   2.443   9.834
   74PPPE  H16T43489   2.457   2.325   9.793
   74PPPE   C3343490   2.482   2.482   8.714
   74PPPE   H3X43491   2.374   2.458   8.720
   74PPPE   H3Y43492   2.503   2.551   8.629
   74PPPE   C3443493   2.518   2.549   8.846
   74PPPE   H4X43494   2.628   2.549   8.857
   74PPPE   H4Y43495   2.483   2.482   8.927
   74PPPE   C3543496   2.459   2.690   8.860
   74PPPE   H5X43497   2.350   2.696   8.846
   74PPPE   H5Y43498   2.507   2.757   8.785
   74PPPE   C3643499   2.477   2.740   8.999
   74PPPE   H6X43500   2.445   2.663   9.073
   74PPPE   H6Y43501   2.427   2.837   9.023
   74PPPE   C3743502   2.622   2.756   9.017
   74PPPE   H7X43503   2.661   2.851   8.965
   74PPPE   H7Y43504   2.681   2.667   8.993
   74PPPE   C3843505   2.655   2.764   9.161
   74PPPE   H8X43506   2.585   2.845   9.149
   74PPPE   H8Y43507   2.749   2.804   9.169
   74PPPE   C3943508   2.625   2.674   9.282
   74PPPE   H9X43509   2.692   2.589   9.275
   74PPPE   H9Y43510   2.514   2.662   9.271
   74PPPE  C31043511   2.637   2.707   9.436
   74PPPE  H10X43512   2.535   2.686   9.466
   74PPPE  H10Y43513   2.593   2.784   9.488
   74PPPE  C31143514   2.759   2.758   9.519
   74PPPE  H11X43515   2.745   2.816   9.614
   74PPPE  H11Y43516   2.829   2.835   9.481
   74PPPE  C31243517   2.809   2.623   9.537
   74PPPE  H12X43518   2.812   2.563   9.444
   74PPPE  H12Y43519   2.764   2.570   9.609
   74PPPE  C31343520   2.911   2.614   9.633
   74PPPE  H13X43521   2.927   2.667   9.726
   74PPPE  H13Y43522   2.955   2.699   9.572
   74PPPE  C31443523   2.966   2.466   9.648
   74PPPE  H14X43524   3.059   2.455   9.710
   74PPPE  H14Y43525   2.993   2.415   9.558
   74PPPE  C31543526   2.893   2.361   9.703
   74PPPE  H15X43527   2.948   2.267   9.674
   74PPPE  H15Y43528   2.800   2.375   9.645
   74PPPE  C31643529   2.900   2.396   9.849
   74PPPE  H16X43530   3.003   2.412   9.891
   74PPPE  H16Y43531   2.842   2.489   9.867
   74PPPE  H16Z43532   2.858   2.307   9.895
   75PPPE     N43533   3.333   1.868   7.536
   75PPPE   HN143534   3.310   1.867   7.435
   75PPPE   HN243535   3.397   1.946   7.558
   75PPPE   HN343536   3.377   1.777   7.561
   75PPPE   C1243537   3.206   1.892   7.615
   75PPPE  H12A43538   3.130   1.855   7.546
   75PPPE  H12B43539   3.194   2.001   7.625
   75PPPE   C1143540   3.196   1.816   7.749
   75PPPE  H11A43541   3.196   1.708   7.722
   75PPPE  H11B43542   3.100   1.828   7.804
   75PPPE     P43543   3.298   1.937   7.962
   75PPPE   O1343544   3.310   1.851   8.082
   75PPPE   O1443545   3.395   2.046   7.939
   75PPPE   O1143546   3.151   1.997   7.953
   75PPPE   O1243547   3.308   1.844   7.832
   75PPPE    C143548   3.080   2.029   8.072
   75PPPE    HA43549   3.090   1.953   8.153
   75PPPE    HB43550   2.973   2.037   8.046
   75PPPE    C243551   3.126   2.163   8.131
   75PPPE    HS43552   3.127   2.238   8.047
   75PPPE   O2143553   3.253   2.135   8.195
   75PPPE   C2143554   3.332   2.238   8.202
   75PPPE   O2243555   3.300   2.347   8.164
   75PPPE   C2243556   3.470   2.205   8.252
   75PPPE   H2R43557   3.535   2.195   8.162
   75PPPE   H2S43558   3.463   2.109   8.306
   75PPPE    C343559   3.023   2.212   8.235
   75PPPE    HX43560   3.051   2.315   8.262
   75PPPE    HY43561   2.926   2.229   8.187
   75PPPE   O3143562   3.005   2.112   8.340
   75PPPE   C3143563   3.020   2.165   8.460
   75PPPE   O3243564   3.043   2.278   8.481
   75PPPE   C3243565   3.013   2.080   8.579
   75PPPE   H2X43566   2.963   1.988   8.549
   75PPPE   H2Y43567   2.953   2.132   8.658
   75PPPE   C2343568   3.530   2.305   8.350
   75PPPE   H3R43569   3.543   2.405   8.310
   75PPPE   H3S43570   3.633   2.269   8.360
   75PPPE   C2443571   3.465   2.300   8.488
   75PPPE   H4R43572   3.451   2.194   8.515
   75PPPE   H4S43573   3.364   2.348   8.484
   75PPPE   C2543574   3.552   2.368   8.594
   75PPPE   H5R43575   3.581   2.470   8.561
   75PPPE   H5S43576   3.646   2.313   8.602
   75PPPE   C2643577   3.490   2.368   8.733
   75PPPE   H6R43578   3.384   2.398   8.724
   75PPPE   H6S43579   3.544   2.445   8.794
   75PPPE   C2743580   3.494   2.232   8.804
   75PPPE   H7R43581   3.596   2.189   8.810
   75PPPE   H7S43582   3.429   2.162   8.746
   75PPPE   C2843583   3.433   2.239   8.943
   75PPPE   H8R43584   3.410   2.137   8.981
   75PPPE   H8S43585   3.339   2.296   8.939
   75PPPE   C2943586   3.521   2.306   9.039
   75PPPE   H9143587   3.523   2.417   9.036
   75PPPE  C21043588   3.613   2.242   9.107
   75PPPE  H10143589   3.664   2.309   9.177
   75PPPE  C21143590   3.655   2.095   9.107
   75PPPE  H11R43591   3.764   2.075   9.090
   75PPPE  H11S43592   3.616   2.039   9.023
   75PPPE  C21243593   3.613   2.034   9.239
   75PPPE  H12R43594   3.615   1.923   9.238
   75PPPE  H12S43595   3.515   2.077   9.269
   75PPPE  C21343596   3.704   2.054   9.352
   75PPPE  H13R43597   3.701   2.163   9.381
   75PPPE  H13S43598   3.809   2.019   9.332
   75PPPE  C21443599   3.657   1.967   9.464
   75PPPE  H14R43600   3.648   1.858   9.455
   75PPPE  H14S43601   3.566   2.017   9.505
   75PPPE  C21543602   3.761   1.951   9.565
   75PPPE  H15R43603   3.758   2.065   9.549
   75PPPE  H15S43604   3.866   1.974   9.575
   75PPPE  C21643605   3.705   1.866   9.690
   75PPPE  H16R43606   3.774   1.891   9.775
   75PPPE  H16S43607   3.609   1.903   9.735
   75PPPE  H16T43608   3.744   1.774   9.728
   75PPPE   C3343609   3.160   2.071   8.625
   75PPPE   H3X43610   3.190   2.166   8.675
   75PPPE   H3Y43611   3.228   2.063   8.536
   75PPPE   C3443612   3.178   1.953   8.720
   75PPPE   H4X43613   3.286   1.929   8.729
   75PPPE   H4Y43614   3.126   1.866   8.674
   75PPPE   C3543615   3.121   1.983   8.860
   75PPPE   H5X43616   3.024   2.034   8.849
   75PPPE   H5Y43617   3.189   2.054   8.913
   75PPPE   C3643618   3.094   1.863   8.952
   75PPPE   H6X43619   3.033   1.785   8.903
   75PPPE   H6Y43620   3.033   1.904   9.037
   75PPPE   C3743621   3.218   1.799   9.015
   75PPPE   H7X43622   3.308   1.862   8.994
   75PPPE   H7Y43623   3.235   1.702   8.964
   75PPPE   C3843624   3.199   1.777   9.166
   75PPPE   H8X43625   3.248   1.682   9.197
   75PPPE   H8Y43626   3.091   1.764   9.188
   75PPPE   C3943627   3.249   1.892   9.255
   75PPPE   H9X43628   3.202   1.987   9.217
   75PPPE   H9Y43629   3.358   1.908   9.241
   75PPPE  C31043630   3.211   1.865   9.402
   75PPPE  H10X43631   3.238   1.762   9.431
   75PPPE  H10Y43632   3.101   1.875   9.415
   75PPPE  C31143633   3.274   1.955   9.505
   75PPPE  H11X43634   3.383   1.934   9.511
   75PPPE  H11Y43635   3.237   1.934   9.608
   75PPPE  C31243636   3.240   2.098   9.460
   75PPPE  H12X43637   3.138   2.131   9.489
   75PPPE  H12Y43638   3.275   2.123   9.358
   75PPPE  C31343639   3.316   2.191   9.535
   75PPPE  H13X43640   3.421   2.202   9.496
   75PPPE  H13Y43641   3.323   2.126   9.627
   75PPPE  C31443642   3.263   2.338   9.569
   75PPPE  H14X43643   3.161   2.322   9.602
   75PPPE  H14Y43644   3.300   2.388   9.479
   75PPPE  C31543645   3.303   2.444   9.682
   75PPPE  H15X43646   3.405   2.439   9.655
   75PPPE  H15Y43647   3.278   2.431   9.792
   75PPPE  C31643648   3.366   2.570   9.675
   75PPPE  H16X43649   3.419   2.635   9.747
   75PPPE  H16Y43650   3.390   2.583   9.567
   75PPPE  H16Z43651   3.274   2.590   9.720
   76PPPE     N43652   5.520   5.946   7.611
   76PPPE   HN143653   5.549   6.045   7.601
   76PPPE   HN243654   5.554   5.888   7.532
   76PPPE   HN343655   5.416   5.944   7.620
   76PPPE   C1243656   5.576   5.904   7.745
   76PPPE  H12A43657   5.682   5.879   7.730
   76PPPE  H12B43658   5.519   5.814   7.777
   76PPPE   C1143659   5.564   6.017   7.850
   76PPPE  H11A43660   5.653   6.083   7.849
   76PPPE  H11B43661   5.564   5.971   7.952
   76PPPE     P43662   5.310   6.050   7.891
   76PPPE   O1343663   5.206   6.137   7.838
   76PPPE   O1443664   5.296   5.905   7.864
   76PPPE   O1143665   5.331   6.078   8.045
   76PPPE   O1243666   5.448   6.097   7.827
   76PPPE    C143667   5.334   6.214   8.089
   76PPPE    HA43668   5.231   6.256   8.094
   76PPPE    HB43669   5.395   6.278   8.020
   76PPPE    C243670   5.399   6.219   8.228
   76PPPE    HS43671   5.493   6.159   8.219
   76PPPE   O2143672   5.306   6.168   8.326
   76PPPE   C2143673   5.348   6.066   8.396
   76PPPE   O2243674   5.455   6.009   8.386
   76PPPE   C2243675   5.239   6.031   8.498
   76PPPE   H2R43676   5.160   5.977   8.441
   76PPPE   H2S43677   5.193   6.123   8.540
   76PPPE    C343678   5.433   6.364   8.266
   76PPPE    HX43679   5.493   6.415   8.189
   76PPPE    HY43680   5.336   6.419   8.271
   76PPPE   O3143681   5.493   6.375   8.394
   76PPPE   C3143682   5.607   6.314   8.422
   76PPPE   O3243683   5.680   6.252   8.349
   76PPPE   C3243684   5.639   6.361   8.562
   76PPPE   H2X43685   5.560   6.335   8.634
   76PPPE   H2Y43686   5.625   6.468   8.538
   76PPPE   C2343687   5.293   5.939   8.610
   76PPPE   H3R43688   5.372   5.873   8.567
   76PPPE   H3S43689   5.211   5.872   8.645
   76PPPE   C2443690   5.350   6.013   8.731
   76PPPE   H4R43691   5.269   6.075   8.776
   76PPPE   H4S43692   5.433   6.082   8.701
   76PPPE   C2543693   5.405   5.915   8.836
   76PPPE   H5R43694   5.490   5.856   8.793
   76PPPE   H5S43695   5.323   5.845   8.864
   76PPPE   C2643696   5.463   5.984   8.959
   76PPPE   H6R43697   5.534   6.058   8.916
   76PPPE   H6S43698   5.522   5.911   9.019
   76PPPE   C2743699   5.359   6.053   9.047
   76PPPE   H7R43700   5.340   5.991   9.138
   76PPPE   H7S43701   5.261   6.056   8.993
   76PPPE   C2843702   5.399   6.198   9.083
   76PPPE   H8R43703   5.409   6.253   8.987
   76PPPE   H8S43704   5.500   6.201   9.131
   76PPPE   C2943705   5.291   6.257   9.170
   76PPPE   H9143706   5.191   6.222   9.141
   76PPPE  C21043707   5.302   6.346   9.271
   76PPPE  H10143708   5.212   6.377   9.327
   76PPPE  C21143709   5.428   6.409   9.324
   76PPPE  H11R43710   5.408   6.515   9.353
   76PPPE  H11S43711   5.506   6.412   9.244
   76PPPE  C21243712   5.492   6.337   9.444
   76PPPE  H12R43713   5.575   6.400   9.482
   76PPPE  H12S43714   5.533   6.240   9.407
   76PPPE  C21343715   5.404   6.309   9.567
   76PPPE  H13R43716   5.468   6.260   9.643
   76PPPE  H13S43717   5.318   6.243   9.542
   76PPPE  C21443718   5.349   6.433   9.629
   76PPPE  H14R43719   5.265   6.467   9.563
   76PPPE  H14S43720   5.433   6.508   9.625
   76PPPE  C21543721   5.298   6.417   9.773
   76PPPE  H15R43722   5.249   6.319   9.776
   76PPPE  H15S43723   5.214   6.488   9.794
   76PPPE  C21643724   5.408   6.425   9.882
   76PPPE  H16R43725   5.457   6.327   9.887
   76PPPE  H16S43726   5.490   6.492   9.853
   76PPPE  H16T43727   5.373   6.459   9.982
   76PPPE   C3343728   5.778   6.317   8.618
   76PPPE   H3X43729   5.858   6.362   8.556
   76PPPE   H3Y43730   5.777   6.207   8.606
   76PPPE   C3443731   5.809   6.346   8.768
   76PPPE   H4X43732   5.757   6.435   8.803
   76PPPE   H4Y43733   5.917   6.370   8.782
   76PPPE   C3543734   5.767   6.235   8.864
   76PPPE   H5X43735   5.834   6.148   8.850
   76PPPE   H5Y43736   5.664   6.204   8.838
   76PPPE   C3643737   5.765   6.274   9.013
   76PPPE   H6X43738   5.713   6.190   9.065
   76PPPE   H6Y43739   5.702   6.363   9.036
   76PPPE   C3743740   5.907   6.287   9.069
   76PPPE   H7X43741   5.957   6.381   9.036
   76PPPE   H7Y43742   5.966   6.204   9.024
   76PPPE   C3843743   5.911   6.270   9.221
   76PPPE   H8X43744   5.864   6.356   9.273
   76PPPE   H8Y43745   6.018   6.271   9.249
   76PPPE   C3943746   5.842   6.141   9.267
   76PPPE   H9X43747   5.854   6.060   9.191
   76PPPE   H9Y43748   5.733   6.152   9.279
   76PPPE  C31043749   5.899   6.092   9.399
   76PPPE  H10X43750   5.950   6.176   9.453
   76PPPE  H10Y43751   5.972   6.019   9.361
   76PPPE  C31143752   5.798   6.028   9.496
   76PPPE  H11X43753   5.720   6.104   9.517
   76PPPE  H11Y43754   5.851   6.003   9.591
   76PPPE  C31243755   5.725   5.905   9.440
   76PPPE  H12X43756   5.794   5.849   9.373
   76PPPE  H12Y43757   5.643   5.945   9.378
   76PPPE  C31343758   5.669   5.807   9.547
   76PPPE  H13X43759   5.753   5.762   9.604
   76PPPE  H13Y43760   5.617   5.724   9.494
   76PPPE  C31443761   5.572   5.877   9.644
   76PPPE  H14X43762   5.494   5.928   9.583
   76PPPE  H14Y43763   5.623   5.953   9.706
   76PPPE  C31543764   5.502   5.785   9.743
   76PPPE  H15X43765   5.571   5.734   9.814
   76PPPE  H15Y43766   5.459   5.707   9.676
   76PPPE  C31643767   5.396   5.857   9.827
   76PPPE  H16X43768   5.435   5.950   9.872
   76PPPE  H16Y43769   5.307   5.880   9.763
   76PPPE  H16Z43770   5.360   5.793   9.911
   77PPPE     N43771   1.874   2.809   7.573
   77PPPE   HN143772   1.817   2.839   7.491
   77PPPE   HN243773   1.945   2.739   7.545
   77PPPE   HN343774   1.816   2.777   7.654
   77PPPE   C1243775   1.946   2.932   7.615
   77PPPE  H12A43776   1.966   2.990   7.523
   77PPPE  H12B43777   2.039   2.897   7.662
   77PPPE   C1143778   1.872   3.018   7.716
   77PPPE  H11A43779   1.772   3.045   7.675
   77PPPE  H11B43780   1.928   3.114   7.729
   77PPPE     P43781   1.966   2.961   7.955
   77PPPE   O1343782   2.062   2.851   7.942
   77PPPE   O1443783   2.011   3.101   7.948
   77PPPE   O1143784   1.876   2.927   8.077
   77PPPE   O1243785   1.859   2.943   7.837
   77PPPE    C143786   1.766   3.007   8.101
   77PPPE    HA43787   1.680   2.944   8.134
   77PPPE    HB43788   1.728   3.067   8.014
   77PPPE    C243789   1.798   3.094   8.224
   77PPPE    HS43790   1.858   3.182   8.179
   77PPPE   O2143791   1.851   3.038   8.336
   77PPPE   C2143792   1.969   3.026   8.352
   77PPPE   O2243793   2.059   3.068   8.285
   77PPPE   C2243794   1.980   2.953   8.482
   77PPPE   H2R43795   1.908   2.868   8.470
   77PPPE   H2S43796   1.945   3.021   8.562
   77PPPE    C343797   1.683   3.146   8.282
   77PPPE    HX43798   1.696   3.234   8.344
   77PPPE    HY43799   1.643   3.147   8.182
   77PPPE   O3143800   1.600   3.057   8.344
   77PPPE   C3143801   1.512   3.114   8.418
   77PPPE   O3243802   1.498   3.235   8.436
   77PPPE   C3243803   1.445   2.997   8.472
   77PPPE   H2X43804   1.356   2.976   8.521
   77PPPE   H2Y43805   1.446   3.024   8.575
   77PPPE   C2343806   2.122   2.906   8.507
   77PPPE   H3R43807   2.193   2.991   8.491
   77PPPE   H3S43808   2.146   2.829   8.430
   77PPPE   C2443809   2.145   2.857   8.650
   77PPPE   H4R43810   2.128   2.947   8.714
   77PPPE   H4S43811   2.252   2.830   8.663
   77PPPE   C2543812   2.055   2.744   8.702
   77PPPE   H5R43813   2.083   2.643   8.663
   77PPPE   H5S43814   1.950   2.762   8.669
   77PPPE   C2643815   2.054   2.748   8.856
   77PPPE   H6R43816   2.055   2.852   8.892
   77PPPE   H6S43817   2.143   2.694   8.898
   77PPPE   C2743818   1.917   2.719   8.919
   77PPPE   H7R43819   1.880   2.641   8.856
   77PPPE   H7S43820   1.832   2.778   8.891
   77PPPE   C2843821   1.918   2.703   9.074
   77PPPE   H8R43822   1.963   2.785   9.129
   77PPPE   H8S43823   2.016   2.650   9.055
   77PPPE   C2943824   1.789   2.642   9.150
   77PPPE   H9143825   1.728   2.558   9.119
   77PPPE  C21043826   1.740   2.636   9.267
   77PPPE  H10143827   1.709   2.534   9.307
   77PPPE  C21143828   1.824   2.702   9.357
   77PPPE  H11R43829   1.928   2.731   9.323
   77PPPE  H11S43830   1.820   2.621   9.430
   77PPPE  C21243831   1.751   2.795   9.436
   77PPPE  H12R43832   1.711   2.857   9.354
   77PPPE  H12S43833   1.823   2.851   9.499
   77PPPE  C21343834   1.652   2.713   9.520
   77PPPE  H13R43835   1.599   2.633   9.462
   77PPPE  H13S43836   1.582   2.791   9.548
   77PPPE  C21443837   1.707   2.642   9.645
   77PPPE  H14R43838   1.785   2.700   9.697
   77PPPE  H14S43839   1.742   2.541   9.619
   77PPPE  C21543840   1.600   2.607   9.742
   77PPPE  H15R43841   1.558   2.705   9.771
   77PPPE  H15S43842   1.644   2.555   9.831
   77PPPE  C21643843   1.496   2.521   9.674
   77PPPE  H16R43844   1.449   2.568   9.586
   77PPPE  H16S43845   1.537   2.422   9.643
   77PPPE  H16T43846   1.416   2.513   9.749
   77PPPE   C3343847   1.511   2.867   8.452
   77PPPE   H3X43848   1.616   2.878   8.479
   77PPPE   H3Y43849   1.499   2.832   8.345
   77PPPE   C3443850   1.443   2.775   8.548
   77PPPE   H4X43851   1.498   2.681   8.528
   77PPPE   H4Y43852   1.337   2.784   8.514
   77PPPE   C3543853   1.401   2.795   8.690
   77PPPE   H5X43854   1.354   2.707   8.738
   77PPPE   H5Y43855   1.316   2.865   8.693
   77PPPE   C3643856   1.522   2.838   8.762
   77PPPE   H6X43857   1.561   2.930   8.714
   77PPPE   H6Y43858   1.596   2.756   8.746
   77PPPE   C3743859   1.490   2.854   8.908
   77PPPE   H7X43860   1.587   2.876   8.958
   77PPPE   H7Y43861   1.444   2.763   8.951
   77PPPE   C3843862   1.389   2.962   8.938
   77PPPE   H8X43863   1.298   2.953   8.873
   77PPPE   H8Y43864   1.445   3.054   8.918
   77PPPE   C3943865   1.345   2.981   9.081
   77PPPE   H9X43866   1.292   2.887   9.099
   77PPPE   H9Y43867   1.274   3.067   9.088
   77PPPE  C31043868   1.463   2.987   9.179
   77PPPE  H10X43869   1.542   2.914   9.152
   77PPPE  H10Y43870   1.428   2.990   9.283
   77PPPE  C31143871   1.544   3.110   9.177
   77PPPE  H11X43872   1.473   3.189   9.205
   77PPPE  H11Y43873   1.581   3.102   9.072
   77PPPE  C31243874   1.673   3.132   9.255
   77PPPE  H12X43875   1.724   3.223   9.219
   77PPPE  H12Y43876   1.743   3.060   9.215
   77PPPE  C31343877   1.666   3.115   9.405
   77PPPE  H13X43878   1.595   3.037   9.433
   77PPPE  H13Y43879   1.611   3.181   9.463
   77PPPE  C31443880   1.797   3.142   9.479
   77PPPE  H14X43881   1.842   3.239   9.442
   77PPPE  H14Y43882   1.862   3.061   9.447
   77PPPE  C31543883   1.778   3.147   9.633
   77PPPE  H15X43884   1.683   3.097   9.664
   77PPPE  H15Y43885   1.773   3.247   9.678
   77PPPE  C31643886   1.897   3.112   9.714
   77PPPE  H16X43887   1.930   3.014   9.678
   77PPPE  H16Y43888   1.977   3.189   9.702
   77PPPE  H16Z43889   1.862   3.111   9.820
   78PPPE     N43890   6.060   5.732   7.749
   78PPPE   HN143891   6.156   5.769   7.765
   78PPPE   HN243892   6.067   5.652   7.684
   78PPPE   HN343893   5.995   5.805   7.712
   78PPPE   C1243894   6.000   5.674   7.874
   78PPPE  H12A43895   5.908   5.622   7.840
   78PPPE  H12B43896   5.973   5.758   7.941
   78PPPE   C1143897   6.098   5.577   7.944
   78PPPE  H11A43898   6.044   5.529   8.029
   78PPPE  H11B43899   6.182   5.634   7.989
   78PPPE     P43900   6.075   5.349   7.817
   78PPPE   O1343901   5.934   5.386   7.798
   78PPPE   O1443902   6.147   5.286   7.703
   78PPPE   O1143903   6.094   5.263   7.946
   78PPPE   O1243904   6.152   5.482   7.852
   78PPPE    C143905   6.223   5.221   7.983
   78PPPE    HA43906   6.300   5.301   7.970
   78PPPE    HB43907   6.253   5.133   7.920
   78PPPE    C243908   6.220   5.186   8.133
   78PPPE    HS43909   6.168   5.088   8.137
   78PPPE   O2143910   6.150   5.284   8.216
   78PPPE   C2143911   6.084   5.250   8.327
   78PPPE   O2243912   6.048   5.146   8.369
   78PPPE   C2243913   6.045   5.355   8.422
   78PPPE   H2R43914   5.938   5.326   8.446
   78PPPE   H2S43915   6.054   5.452   8.374
   78PPPE    C343916   6.369   5.174   8.177
   78PPPE    HX43917   6.350   5.122   8.270
   78PPPE    HY43918   6.431   5.112   8.109
   78PPPE   O3143919   6.428   5.300   8.211
   78PPPE   C3143920   6.550   5.344   8.187
   78PPPE   O3243921   6.634   5.298   8.113
   78PPPE   C3243922   6.568   5.477   8.260
   78PPPE   H2X43923   6.482   5.536   8.224
   78PPPE   H2Y43924   6.663   5.512   8.215
   78PPPE   C2343925   6.133   5.335   8.547
   78PPPE   H3R43926   6.152   5.432   8.595
   78PPPE   H3S43927   6.233   5.290   8.521
   78PPPE   C2443928   6.071   5.249   8.655
   78PPPE   H4R43929   6.063   5.142   8.622
   78PPPE   H4S43930   5.969   5.286   8.678
   78PPPE   C2543931   6.156   5.266   8.780
   78PPPE   H5R43932   6.141   5.360   8.835
   78PPPE   H5S43933   6.264   5.246   8.758
   78PPPE   C2643934   6.120   5.165   8.876
   78PPPE   H6R43935   6.156   5.076   8.816
   78PPPE   H6S43936   6.012   5.160   8.904
   78PPPE   C2743937   6.199   5.162   9.000
   78PPPE   H7R43938   6.309   5.151   8.979
   78PPPE   H7S43939   6.150   5.066   9.034
   78PPPE   C2843940   6.190   5.255   9.111
   78PPPE   H8R43941   6.221   5.354   9.078
   78PPPE   H8S43942   6.279   5.230   9.175
   78PPPE   C2943943   6.056   5.228   9.179
   78PPPE   H9143944   6.023   5.122   9.192
   78PPPE  C21043945   5.978   5.320   9.224
   78PPPE  H10143946   5.881   5.296   9.269
   78PPPE  C21143947   6.025   5.457   9.203
   78PPPE  H11R43948   5.936   5.517   9.219
   78PPPE  H11S43949   6.055   5.468   9.096
   78PPPE  C21243950   6.145   5.506   9.288
   78PPPE  H12R43951   6.175   5.603   9.242
   78PPPE  H12S43952   6.231   5.437   9.283
   78PPPE  C21343953   6.109   5.527   9.434
   78PPPE  H13R43954   6.089   5.429   9.484
   78PPPE  H13S43955   6.018   5.590   9.440
   78PPPE  C21443956   6.215   5.597   9.517
   78PPPE  H14R43957   6.258   5.682   9.459
   78PPPE  H14S43958   6.299   5.531   9.548
   78PPPE  C21543959   6.142   5.644   9.640
   78PPPE  H15R43960   6.124   5.568   9.718
   78PPPE  H15S43961   6.053   5.709   9.616
   78PPPE  C21643962   6.223   5.729   9.716
   78PPPE  H16R43963   6.283   5.784   9.650
   78PPPE  H16S43964   6.164   5.805   9.774
   78PPPE  H16T43965   6.316   5.690   9.761
   78PPPE   C3343966   6.580   5.493   8.415
   78PPPE   H3X43967   6.645   5.584   8.424
   78PPPE   H3Y43968   6.637   5.411   8.464
   78PPPE   C3443969   6.451   5.533   8.491
   78PPPE   H4X43970   6.366   5.465   8.480
   78PPPE   H4Y43971   6.400   5.615   8.434
   78PPPE   C3543972   6.473   5.565   8.643
   78PPPE   H5X43973   6.371   5.582   8.683
   78PPPE   H5Y43974   6.518   5.668   8.641
   78PPPE   C3643975   6.552   5.471   8.743
   78PPPE   H6X43976   6.652   5.488   8.698
   78PPPE   H6Y43977   6.590   5.368   8.722
   78PPPE   C3743978   6.517   5.514   8.896
   78PPPE   H7X43979   6.417   5.528   8.947
   78PPPE   H7Y43980   6.536   5.623   8.901
   78PPPE   C3843981   6.578   5.441   9.013
   78PPPE   H8X43982   6.668   5.501   9.043
   78PPPE   H8Y43983   6.567   5.329   9.016
   78PPPE   C3943984   6.516   5.467   9.148
   78PPPE   H9X43985   6.414   5.423   9.154
   78PPPE   H9Y43986   6.513   5.578   9.152
   78PPPE  C31043987   6.621   5.409   9.243
   78PPPE  H10X43988   6.610   5.465   9.336
   78PPPE  H10Y43989   6.723   5.421   9.212
   78PPPE  C31143990   6.628   5.261   9.263
   78PPPE  H11X43991   6.731   5.222   9.287
   78PPPE  H11Y43992   6.598   5.206   9.165
   78PPPE  C31243993   6.527   5.244   9.383
   78PPPE  H12X43994   6.557   5.160   9.334
   78PPPE  H12Y43995   6.445   5.306   9.346
   78PPPE  C31343996   6.534   5.206   9.543
   78PPPE  H13X43997   6.536   5.308   9.530
   78PPPE  H13Y43998   6.634   5.167   9.564
   78PPPE  C31443999   6.424   5.128   9.643
   78PPPE  H14X44000   6.431   5.016   9.676
   78PPPE  H14Y44001   6.321   5.124   9.617
   78PPPE  C31544002   6.452   5.186   9.764
   78PPPE  H15X44003   6.546   5.130   9.773
   78PPPE  H15Y44004   6.375   5.137   9.826
   78PPPE  C31644005   6.511   5.327   9.780
   78PPPE  H16X44006   6.493   5.353   9.883
   78PPPE  H16Y44007   6.621   5.341   9.771
   78PPPE  H16Z44008   6.473   5.412   9.723
   79PPPE     N44009   6.600   4.334   7.646
   79PPPE   HN144010   6.579   4.364   7.743
   79PPPE   HN244011   6.625   4.417   7.586
   79PPPE   HN344012   6.516   4.287   7.607
   79PPPE   C1244013   6.713   4.233   7.649
   79PPPE  H12A44014   6.798   4.276   7.706
   79PPPE  H12B44015   6.743   4.210   7.546
   79PPPE   C1144016   6.665   4.105   7.714
   79PPPE  H11A44017   6.748   4.030   7.711
   79PPPE  H11B44018   6.579   4.064   7.655
   79PPPE     P44019   6.570   4.010   7.934
   79PPPE   O1344020   6.436   4.053   7.979
   79PPPE   O1444021   6.582   3.890   7.849
   79PPPE   O1144022   6.676   4.005   8.052
   79PPPE   O1244023   6.628   4.133   7.849
   79PPPE    C144024   6.818   4.017   8.032
   79PPPE    HA44025   6.843   4.075   7.940
   79PPPE    HB44026   6.861   3.915   8.014
   79PPPE    C244027   6.894   4.084   8.153
   79PPPE    HS44028   7.003   4.073   8.132
   79PPPE   O2144029   6.862   4.013   8.274
   79PPPE   C2144030   6.912   4.054   8.390
   79PPPE   O2244031   6.998   4.138   8.407
   79PPPE   C2244032   6.845   3.974   8.501
   79PPPE   H2R44033   6.894   4.001   8.596
   79PPPE   H2S44034   6.865   3.866   8.480
   79PPPE    C344035   6.858   4.236   8.164
   79PPPE    HX44036   6.933   4.295   8.221
   79PPPE    HY44037   6.861   4.276   8.060
   79PPPE   O3144038   6.726   4.252   8.220
   79PPPE   C3144039   6.684   4.377   8.208
   79PPPE   O3244040   6.756   4.471   8.180
   79PPPE   C3244041   6.535   4.389   8.235
   79PPPE   H2X44042   6.486   4.291   8.238
   79PPPE   H2Y44043   6.494   4.441   8.146
   79PPPE   C2344044   6.692   3.998   8.497
   79PPPE   H3R44045   6.663   3.998   8.389
   79PPPE   H3S44046   6.664   4.098   8.536
   79PPPE   C2444047   6.601   3.888   8.556
   79PPPE   H4R44048   6.627   3.791   8.508
   79PPPE   H4S44049   6.498   3.915   8.523
   79PPPE   C2544050   6.597   3.869   8.708
   79PPPE   H5R44051   6.682   3.803   8.738
   79PPPE   H5S44052   6.502   3.816   8.735
   79PPPE   C2644053   6.606   3.999   8.789
   79PPPE   H6R44054   6.540   4.076   8.744
   79PPPE   H6S44055   6.712   4.033   8.781
   79PPPE   C2744056   6.575   3.977   8.938
   79PPPE   H7R44057   6.634   3.889   8.969
   79PPPE   H7S44058   6.467   3.951   8.949
   79PPPE   C2844059   6.604   4.097   9.031
   79PPPE   H8R44060   6.550   4.077   9.127
   79PPPE   H8S44061   6.560   4.190   8.988
   79PPPE   C2944062   6.751   4.120   9.055
   79PPPE   H9144063   6.794   4.198   8.990
   79PPPE  C21044064   6.832   4.060   9.143
   79PPPE  H10144065   6.939   4.083   9.145
   79PPPE  C21144066   6.798   3.955   9.241
   79PPPE  H11R44067   6.872   3.871   9.236
   79PPPE  H11S44068   6.700   3.908   9.221
   79PPPE  C21244069   6.799   4.019   9.379
   79PPPE  H12R44070   6.712   4.085   9.402
   79PPPE  H12S44071   6.895   4.060   9.417
   79PPPE  C21344072   6.771   3.905   9.460
   79PPPE  H13R44073   6.846   3.820   9.448
   79PPPE  H13S44074   6.675   3.880   9.422
   79PPPE  C21444075   6.711   3.919   9.597
   79PPPE  H14R44076   6.794   3.851   9.626
   79PPPE  H14S44077   6.690   3.833   9.646
   79PPPE  C21544078   6.655   4.049   9.663
   79PPPE  H15R44079   6.579   4.077   9.591
   79PPPE  H15S44080   6.723   4.126   9.656
   79PPPE  C21644081   6.612   4.074   9.810
   79PPPE  H16R44082   6.596   4.158   9.871
   79PPPE  H16S44083   6.533   4.003   9.839
   79PPPE  H16T44084   6.706   4.070   9.873
   79PPPE   C3344085   6.516   4.470   8.364
   79PPPE   H3X44086   6.407   4.486   8.379
   79PPPE   H3Y44087   6.564   4.570   8.356
   79PPPE   C3444088   6.567   4.401   8.492
   79PPPE   H4X44089   6.515   4.304   8.507
   79PPPE   H4Y44090   6.535   4.474   8.570
   79PPPE   C3544091   6.719   4.394   8.513
   79PPPE   H5X44092   6.754   4.491   8.471
   79PPPE   H5Y44093   6.763   4.307   8.460
   79PPPE   C3644094   6.773   4.384   8.655
   79PPPE   H6X44095   6.883   4.374   8.657
   79PPPE   H6Y44096   6.729   4.298   8.712
   79PPPE   C3744097   6.742   4.509   8.731
   79PPPE   H7X44098   6.635   4.479   8.736
   79PPPE   H7Y44099   6.759   4.605   8.677
   79PPPE   C3844100   6.791   4.506   8.874
   79PPPE   H8X44101   6.896   4.489   8.882
   79PPPE   H8Y44102   6.743   4.414   8.910
   79PPPE   C3944103   6.785   4.628   8.966
   79PPPE   H9X44104   6.694   4.634   8.990
   79PPPE   H9Y44105   6.784   4.730   8.921
   79PPPE  C31044106   6.816   4.617   9.116
   79PPPE  H10X44107   6.835   4.711   9.181
   79PPPE  H10Y44108   6.896   4.556   9.078
   79PPPE  C31144109   6.776   4.509   9.220
   79PPPE  H11X44110   6.781   4.432   9.156
   79PPPE  H11Y44111   6.695   4.586   9.252
   79PPPE  C31244112   6.691   4.450   9.344
   79PPPE  H12X44113   6.630   4.519   9.397
   79PPPE  H12Y44114   6.765   4.453   9.418
   79PPPE  C31344115   6.719   4.335   9.441
   79PPPE  H13X44116   6.806   4.285   9.387
   79PPPE  H13Y44117   6.608   4.331   9.428
   79PPPE  C31444118   6.734   4.367   9.593
   79PPPE  H14X44119   6.830   4.413   9.619
   79PPPE  H14Y44120   6.767   4.287   9.647
   79PPPE  C31544121   6.601   4.422   9.652
   79PPPE  H15X44122   6.532   4.475   9.590
   79PPPE  H15Y44123   6.618   4.521   9.674
   79PPPE  C31644124   6.558   4.391   9.792
   79PPPE  H16X44125   6.515   4.475   9.855
   79PPPE  H16Y44126   6.617   4.313   9.823
   79PPPE  H16Z44127   6.648   4.402   9.850
   80PPPE     N44128   6.655   3.181   7.659
   80PPPE   HN144129   6.758   3.179   7.649
   80PPPE   HN244130   6.604   3.173   7.569
   80PPPE   HN344131   6.624   3.267   7.710
   80PPPE   C1244132   6.624   3.066   7.750
   80PPPE  H12A44133   6.675   3.090   7.846
   80PPPE  H12B44134   6.668   2.974   7.707
   80PPPE   C1144135   6.473   3.050   7.781
   80PPPE  H11A44136   6.465   3.001   7.881
   80PPPE  H11B44137   6.428   2.982   7.707
   80PPPE     P44138   6.413   3.272   7.902
   80PPPE   O1344139   6.558   3.290   7.925
   80PPPE   O1444140   6.327   3.387   7.875
   80PPPE   O1144141   6.354   3.182   8.007
   80PPPE   O1244142   6.404   3.175   7.778
   80PPPE    C144143   6.215   3.165   8.017
   80PPPE    HA44144   6.184   3.062   7.989
   80PPPE    HB44145   6.148   3.246   7.976
   80PPPE    C244146   6.197   3.167   8.159
   80PPPE    HS44147   6.088   3.135   8.156
   80PPPE   O2144148   6.228   3.304   8.193
   80PPPE   C2144149   6.173   3.313   8.305
   80PPPE   O2244150   6.078   3.243   8.330
   80PPPE   C2244151   6.216   3.443   8.370
   80PPPE   H2R44152   6.166   3.509   8.442
   80PPPE   H2S44153   6.196   3.493   8.277
   80PPPE    C344154   6.297   3.073   8.230
   80PPPE    HX44155   6.260   3.003   8.300
   80PPPE    HY44156   6.328   2.983   8.177
   80PPPE   O3144157   6.399   3.152   8.292
   80PPPE   C3144158   6.468   3.088   8.380
   80PPPE   O3244159   6.436   2.980   8.425
   80PPPE   C3244160   6.581   3.179   8.419
   80PPPE   H2X44161   6.541   3.254   8.489
   80PPPE   H2Y44162   6.618   3.225   8.324
   80PPPE   C2344163   6.325   3.467   8.464
   80PPPE   H3R44164   6.388   3.432   8.382
   80PPPE   H3S44165   6.313   3.403   8.553
   80PPPE   C2444166   6.329   3.613   8.516
   80PPPE   H4R44167   6.302   3.685   8.436
   80PPPE   H4S44168   6.437   3.614   8.535
   80PPPE   C2544169   6.249   3.658   8.643
   80PPPE   H5R44170   6.141   3.667   8.618
   80PPPE   H5S44171   6.278   3.761   8.672
   80PPPE   C2644172   6.262   3.572   8.769
   80PPPE   H6R44173   6.220   3.473   8.744
   80PPPE   H6S44174   6.196   3.610   8.850
   80PPPE   C2744175   6.405   3.552   8.823
   80PPPE   H7R44176   6.442   3.643   8.875
   80PPPE   H7S44177   6.475   3.536   8.738
   80PPPE   C2844178   6.405   3.430   8.916
   80PPPE   H8R44179   6.504   3.393   8.949
   80PPPE   H8S44180   6.362   3.350   8.854
   80PPPE   C2944181   6.316   3.447   9.035
   80PPPE   H9144182   6.216   3.404   9.025
   80PPPE  C21044183   6.339   3.528   9.139
   80PPPE  H10144184   6.265   3.526   9.220
   80PPPE  C21144185   6.459   3.619   9.159
   80PPPE  H11R44186   6.428   3.723   9.179
   80PPPE  H11S44187   6.544   3.610   9.086
   80PPPE  C21244188   6.523   3.585   9.286
   80PPPE  H12R44189   6.599   3.505   9.265
   80PPPE  H12S44190   6.441   3.570   9.361
   80PPPE  C21344191   6.608   3.685   9.359
   80PPPE  H13R44192   6.539   3.774   9.362
   80PPPE  H13S44193   6.700   3.702   9.301
   80PPPE  C21444194   6.652   3.655   9.506
   80PPPE  H14R44195   6.568   3.650   9.580
   80PPPE  H14S44196   6.729   3.703   9.546
   80PPPE  C21544197   6.782   3.570   9.532
   80PPPE  H15R44198   6.873   3.588   9.473
   80PPPE  H15S44199   6.766   3.490   9.464
   80PPPE  C21644200   6.829   3.542   9.677
   80PPPE  H16R44201   6.893   3.454   9.686
   80PPPE  H16S44202   6.835   3.633   9.738
   80PPPE  H16T44203   6.780   3.517   9.769
   80PPPE   C3344204   6.689   3.105   8.493
   80PPPE   H3X44205   6.783   3.164   8.507
   80PPPE   H3Y44206   6.707   3.024   8.424
   80PPPE   C3444207   6.647   3.042   8.623
   80PPPE   H4X44208   6.579   2.954   8.611
   80PPPE   H4Y44209   6.599   3.121   8.681
   80PPPE   C3544210   6.762   2.990   8.701
   80PPPE   H5X44211   6.859   3.046   8.694
   80PPPE   H5Y44212   6.776   2.885   8.664
   80PPPE   C3644213   6.734   2.976   8.845
   80PPPE   H6X44214   6.839   2.952   8.870
   80PPPE   H6Y44215   6.681   2.885   8.863
   80PPPE   C3744216   6.666   3.085   8.934
   80PPPE   H7X44217   6.558   3.084   8.904
   80PPPE   H7Y44218   6.724   3.174   8.908
   80PPPE   C3844219   6.660   3.079   9.090
   80PPPE   H8X44220   6.753   3.071   9.146
   80PPPE   H8Y44221   6.619   2.982   9.111
   80PPPE   C3944222   6.574   3.178   9.166
   80PPPE   H9X44223   6.476   3.177   9.114
   80PPPE   H9Y44224   6.616   3.278   9.163
   80PPPE  C31044225   6.554   3.140   9.314
   80PPPE  H10X44226   6.642   3.148   9.380
   80PPPE  H10Y44227   6.559   3.036   9.311
   80PPPE  C31144228   6.415   3.193   9.368
   80PPPE  H11X44229   6.324   3.173   9.312
   80PPPE  H11Y44230   6.413   3.296   9.330
   80PPPE  C31244231   6.388   3.171   9.521
   80PPPE  H12X44232   6.477   3.165   9.577
   80PPPE  H12Y44233   6.353   3.078   9.563
   80PPPE  C31344234   6.276   3.250   9.578
   80PPPE  H13X44235   6.194   3.204   9.520
   80PPPE  H13Y44236   6.283   3.353   9.543
   80PPPE  C31444237   6.266   3.231   9.731
   80PPPE  H14X44238   6.258   3.124   9.758
   80PPPE  H14Y44239   6.182   3.289   9.776
   80PPPE  C31544240   6.371   3.296   9.810
   80PPPE  H15X44241   6.458   3.238   9.775
   80PPPE  H15Y44242   6.365   3.277   9.919
   80PPPE  C31644243   6.368   3.447   9.783
   80PPPE  H16X44244   6.435   3.494   9.859
   80PPPE  H16Y44245   6.409   3.466   9.681
   80PPPE  H16Z44246   6.283   3.504   9.785
   81PPPE     N44247   4.525   6.383   7.731
   81PPPE   HN144248   4.444   6.346   7.674
   81PPPE   HN244249   4.599   6.312   7.748
   81PPPE   HN344250   4.490   6.415   7.824
   81PPPE   C1244251   4.584   6.499   7.655
   81PPPE  H12A44252   4.512   6.583   7.660
   81PPPE  H12B44253   4.598   6.468   7.549
   81PPPE   C1144254   4.722   6.538   7.710
   81PPPE  H11A44255   4.755   6.631   7.656
   81PPPE  H11B44256   4.795   6.457   7.684
   81PPPE     P44257   4.846   6.624   7.921
   81PPPE   O1344258   4.961   6.596   7.832
   81PPPE   O1444259   4.815   6.767   7.942
   81PPPE   O1144260   4.867   6.548   8.058
   81PPPE   O1244261   4.717   6.557   7.852
   81PPPE    C144262   4.788   6.437   8.098
   81PPPE    HA44263   4.853   6.358   8.142
   81PPPE    HB44264   4.737   6.390   8.011
   81PPPE    C244265   4.682   6.480   8.202
   81PPPE    HS44266   4.623   6.563   8.157
   81PPPE   O2144267   4.749   6.525   8.323
   81PPPE   C2144268   4.676   6.579   8.418
   81PPPE   O2244269   4.554   6.590   8.416
   81PPPE   C2244270   4.766   6.630   8.532
   81PPPE   H2R44271   4.824   6.717   8.496
   81PPPE   H2S44272   4.838   6.551   8.561
   81PPPE    C344273   4.590   6.359   8.226
   81PPPE    HX44274   4.496   6.392   8.277
   81PPPE    HY44275   4.563   6.316   8.127
   81PPPE   O3144276   4.668   6.265   8.301
   81PPPE   C3144277   4.600   6.196   8.389
   81PPPE   O3244278   4.479   6.190   8.398
   81PPPE   C3244279   4.696   6.131   8.488
   81PPPE   H2X44280   4.798   6.126   8.444
   81PPPE   H2Y44281   4.657   6.028   8.503
   81PPPE   C2344282   4.679   6.671   8.654
   81PPPE   H3R44283   4.640   6.577   8.699
   81PPPE   H3S44284   4.593   6.730   8.616
   81PPPE   C2444285   4.749   6.755   8.762
   81PPPE   H4R44286   4.789   6.848   8.716
   81PPPE   H4S44287   4.834   6.699   8.808
   81PPPE   C2544288   4.652   6.804   8.872
   81PPPE   H5R44289   4.554   6.827   8.826
   81PPPE   H5S44290   4.692   6.899   8.914
   81PPPE   C2644291   4.638   6.710   8.992
   81PPPE   H6R44292   4.737   6.709   9.044
   81PPPE   H6S44293   4.617   6.605   8.962
   81PPPE   C2744294   4.531   6.757   9.093
   81PPPE   H7R44295   4.433   6.716   9.061
   81PPPE   H7S44296   4.522   6.868   9.091
   81PPPE   C2844297   4.562   6.710   9.235
   81PPPE   H8R44298   4.602   6.608   9.227
   81PPPE   H8S44299   4.474   6.707   9.301
   81PPPE   C2944300   4.670   6.793   9.291
   81PPPE   H9144301   4.640   6.898   9.316
   81PPPE  C21044302   4.786   6.739   9.335
   81PPPE  H10144303   4.877   6.798   9.346
   81PPPE  C21144304   4.848   6.608   9.348
   81PPPE  H11R44305   4.944   6.619   9.292
   81PPPE  H11S44306   4.776   6.544   9.300
   81PPPE  C21244307   4.876   6.562   9.494
   81PPPE  H12R44308   4.946   6.629   9.547
   81PPPE  H12S44309   4.939   6.472   9.489
   81PPPE  C21344310   4.749   6.545   9.583
   81PPPE  H13R44311   4.680   6.472   9.539
   81PPPE  H13S44312   4.691   6.640   9.588
   81PPPE  C21444313   4.773   6.514   9.731
   81PPPE  H14R44314   4.686   6.548   9.792
   81PPPE  H14S44315   4.861   6.568   9.761
   81PPPE  C21544316   4.830   6.382   9.774
   81PPPE  H15R44317   4.867   6.393   9.880
   81PPPE  H15S44318   4.919   6.361   9.710
   81PPPE  C21644319   4.729   6.272   9.766
   81PPPE  H16R44320   4.635   6.306   9.814
   81PPPE  H16S44321   4.707   6.246   9.661
   81PPPE  H16T44322   4.773   6.185   9.819
   81PPPE   C3344323   4.697   6.210   8.622
   81PPPE   H3X44324   4.591   6.227   8.655
   81PPPE   H3Y44325   4.743   6.309   8.605
   81PPPE   C3444326   4.773   6.139   8.736
   81PPPE   H4X44327   4.870   6.101   8.699
   81PPPE   H4Y44328   4.709   6.051   8.760
   81PPPE   C3544329   4.815   6.226   8.858
   81PPPE   H5X44330   4.829   6.333   8.835
   81PPPE   H5Y44331   4.891   6.177   8.924
   81PPPE   C3644332   4.708   6.229   8.957
   81PPPE   H6X44333   4.713   6.123   8.992
   81PPPE   H6Y44334   4.638   6.261   8.881
   81PPPE   C3744335   4.695   6.326   9.074
   81PPPE   H7X44336   4.709   6.427   9.036
   81PPPE   H7Y44337   4.762   6.284   9.153
   81PPPE   C3844338   4.565   6.394   9.139
   81PPPE   H8X44339   4.603   6.407   9.240
   81PPPE   H8Y44340   4.531   6.300   9.119
   81PPPE   C3944341   4.405   6.399   9.129
   81PPPE   H9X44342   4.344   6.308   9.109
   81PPPE   H9Y44343   4.414   6.462   9.041
   81PPPE  C31044344   4.313   6.461   9.235
   81PPPE  H10X44345   4.224   6.497   9.177
   81PPPE  H10Y44346   4.381   6.537   9.265
   81PPPE  C31144347   4.255   6.388   9.359
   81PPPE  H11X44348   4.320   6.332   9.430
   81PPPE  H11Y44349   4.180   6.320   9.315
   81PPPE  C31244350   4.172   6.458   9.454
   81PPPE  H12X44351   4.112   6.378   9.507
   81PPPE  H12Y44352   4.112   6.515   9.382
   81PPPE  C31344353   4.258   6.534   9.552
   81PPPE  H13X44354   4.184   6.578   9.620
   81PPPE  H13Y44355   4.312   6.615   9.498
   81PPPE  C31444356   4.367   6.455   9.629
   81PPPE  H14X44357   4.422   6.526   9.693
   81PPPE  H14Y44358   4.446   6.418   9.558
   81PPPE  C31544359   4.319   6.333   9.708
   81PPPE  H15X44360   4.398   6.283   9.768
   81PPPE  H15Y44361   4.310   6.261   9.632
   81PPPE  C31644362   4.185   6.344   9.781
   81PPPE  H16X44363   4.207   6.392   9.877
   81PPPE  H16Y44364   4.110   6.404   9.725
   81PPPE  H16Z44365   4.137   6.248   9.803
   82PPPE     N44366   5.607   1.700   7.679
   82PPPE   HN144367   5.516   1.665   7.719
   82PPPE   HN244368   5.586   1.789   7.628
   82PPPE   HN344369   5.647   1.631   7.613
   82PPPE   C1244370   5.705   1.730   7.789
   82PPPE  H12A44371   5.780   1.798   7.749
   82PPPE  H12B44372   5.757   1.638   7.818
   82PPPE   C1144373   5.639   1.792   7.911
   82PPPE  H11A44374   5.714   1.805   7.992
   82PPPE  H11B44375   5.560   1.720   7.945
   82PPPE     P44376   5.437   1.948   7.857
   82PPPE   O1344377   5.419   2.058   7.761
   82PPPE   O1444378   5.376   1.819   7.819
   82PPPE   O1144379   5.384   1.996   7.997
   82PPPE   O1244380   5.590   1.921   7.878
   82PPPE    C144381   5.436   2.104   8.075
   82PPPE    HA44382   5.351   2.170   8.104
   82PPPE    HB44383   5.510   2.167   8.019
   82PPPE    C244384   5.500   2.048   8.205
   82PPPE    HS44385   5.591   1.992   8.170
   82PPPE   O2144386   5.405   1.963   8.273
   82PPPE   C2144387   5.456   1.863   8.342
   82PPPE   O2244388   5.571   1.823   8.337
   82PPPE   C2244389   5.351   1.806   8.436
   82PPPE   H2R44390   5.401   1.738   8.507
   82PPPE   H2S44391   5.277   1.749   8.376
   82PPPE    C344392   5.550   2.158   8.303
   82PPPE    HX44393   5.619   2.222   8.243
   82PPPE    HY44394   5.468   2.226   8.336
   82PPPE   O3144395   5.612   2.099   8.420
   82PPPE   C3144396   5.738   2.057   8.399
   82PPPE   O3244397   5.802   2.078   8.298
   82PPPE   C3244398   5.791   1.987   8.524
   82PPPE   H2X44399   5.897   1.959   8.507
   82PPPE   H2Y44400   5.735   1.892   8.538
   82PPPE   C2344401   5.281   1.912   8.522
   82PPPE   H3R44402   5.194   1.858   8.567
   82PPPE   H3S44403   5.238   1.998   8.465
   82PPPE   C2444404   5.371   1.971   8.632
   82PPPE   H4R44405   5.435   2.050   8.586
   82PPPE   H4S44406   5.439   1.894   8.675
   82PPPE   C2544407   5.278   2.037   8.734
   82PPPE   H5R44408   5.205   1.964   8.776
   82PPPE   H5S44409   5.222   2.109   8.671
   82PPPE   C2644410   5.339   2.117   8.849
   82PPPE   H6R44411   5.430   2.172   8.816
   82PPPE   H6S44412   5.367   2.049   8.932
   82PPPE   C2744413   5.244   2.226   8.901
   82PPPE   H7R44414   5.141   2.184   8.911
   82PPPE   H7S44415   5.237   2.307   8.825
   82PPPE   C2844416   5.299   2.280   9.036
   82PPPE   H8R44417   5.321   2.193   9.100
   82PPPE   H8S44418   5.228   2.332   9.101
   82PPPE   C2944419   5.409   2.380   9.012
   82PPPE   H9144420   5.375   2.479   8.978
   82PPPE  C21044421   5.538   2.367   9.046
   82PPPE  H10144422   5.607   2.451   9.032
   82PPPE  C21144423   5.596   2.248   9.115
   82PPPE  H11R44424   5.685   2.209   9.061
   82PPPE  H11S44425   5.524   2.164   9.130
   82PPPE  C21244426   5.643   2.293   9.253
   82PPPE  H12R44427   5.708   2.383   9.250
   82PPPE  H12S44428   5.701   2.206   9.291
   82PPPE  C21344429   5.532   2.314   9.357
   82PPPE  H13R44430   5.450   2.242   9.334
   82PPPE  H13S44431   5.490   2.416   9.349
   82PPPE  C21444432   5.588   2.286   9.497
   82PPPE  H14R44433   5.699   2.301   9.501
   82PPPE  H14S44434   5.571   2.179   9.521
   82PPPE  C21544435   5.519   2.368   9.605
   82PPPE  H15R44436   5.409   2.357   9.592
   82PPPE  H15S44437   5.545   2.476   9.596
   82PPPE  C21644438   5.555   2.318   9.744
   82PPPE  H16R44439   5.489   2.365   9.820
   82PPPE  H16S44440   5.544   2.207   9.753
   82PPPE  H16T44441   5.660   2.345   9.767
   82PPPE   C3344442   5.775   2.079   8.648
   82PPPE   H3X44443   5.669   2.109   8.662
   82PPPE   H3Y44444   5.830   2.174   8.634
   82PPPE   C3444445   5.827   2.013   8.775
   82PPPE   H4X44446   5.842   2.092   8.852
   82PPPE   H4Y44447   5.923   1.962   8.752
   82PPPE   C3544448   5.728   1.910   8.825
   82PPPE   H5X44449   5.726   1.827   8.750
   82PPPE   H5Y44450   5.628   1.954   8.839
   82PPPE   C3644451   5.759   1.851   8.961
   82PPPE   H6X44452   5.860   1.882   8.997
   82PPPE   H6Y44453   5.752   1.744   8.933
   82PPPE   C3744454   5.652   1.874   9.068
   82PPPE   H7X44455   5.561   1.822   9.032
   82PPPE   H7Y44456   5.633   1.982   9.075
   82PPPE   C3844457   5.684   1.825   9.209
   82PPPE   H8X44458   5.790   1.843   9.237
   82PPPE   H8Y44459   5.668   1.717   9.208
   82PPPE   C3944460   5.598   1.880   9.325
   82PPPE   H9X44461   5.628   1.985   9.338
   82PPPE   H9Y44462   5.626   1.821   9.415
   82PPPE  C31044463   5.447   1.892   9.309
   82PPPE  H10X44464   5.393   1.800   9.308
   82PPPE  H10Y44465   5.422   1.945   9.215
   82PPPE  C31144466   5.374   1.949   9.431
   82PPPE  H11X44467   5.434   2.030   9.472
   82PPPE  H11Y44468   5.359   1.880   9.516
   82PPPE  C31244469   5.233   1.991   9.395
   82PPPE  H12X44470   5.164   1.905   9.378
   82PPPE  H12Y44471   5.240   2.048   9.300
   82PPPE  C31344472   5.183   2.081   9.505
   82PPPE  H13X44473   5.083   2.118   9.473
   82PPPE  H13Y44474   5.253   2.168   9.513
   82PPPE  C31444475   5.171   2.008   9.641
   82PPPE  H14X44476   5.272   2.001   9.689
   82PPPE  H14Y44477   5.127   1.908   9.629
   82PPPE  C31544478   5.070   2.072   9.731
   82PPPE  H15X44479   5.028   2.017   9.818
   82PPPE  H15Y44480   4.990   2.121   9.670
   82PPPE  C31644481   5.138   2.179   9.793
   82PPPE  H16X44482   5.198   2.168   9.887
   82PPPE  H16Y44483   5.198   2.237   9.718
   82PPPE  H16Z44484   5.049   2.242   9.816
   83PPPE     N44485   1.529   4.317   7.511
   83PPPE   HN144486   1.614   4.377   7.513
   83PPPE   HN244487   1.546   4.232   7.452
   83PPPE   HN344488   1.451   4.371   7.469
   83PPPE   C1244489   1.485   4.278   7.650
   83PPPE  H12A44490   1.575   4.269   7.714
   83PPPE  H12B44491   1.435   4.179   7.642
   83PPPE   C1144492   1.394   4.388   7.709
   83PPPE  H11A44493   1.299   4.399   7.651
   83PPPE  H11B44494   1.447   4.485   7.697
   83PPPE     P44495   1.449   4.421   7.968
   83PPPE   O1344496   1.579   4.456   7.907
   83PPPE   O1444497   1.368   4.524   8.039
   83PPPE   O1144498   1.457   4.286   8.052
   83PPPE   O1244499   1.362   4.364   7.846
   83PPPE    C144500   1.345   4.252   8.135
   83PPPE    HA44501   1.333   4.142   8.137
   83PPPE    HB44502   1.249   4.292   8.096
   83PPPE    C244503   1.378   4.288   8.281
   83PPPE    HS44504   1.396   4.398   8.289
   83PPPE   O2144505   1.493   4.206   8.318
   83PPPE   C2144506   1.595   4.273   8.367
   83PPPE   O2244507   1.597   4.389   8.398
   83PPPE   C2244508   1.714   4.186   8.399
   83PPPE   H2R44509   1.792   4.253   8.444
   83PPPE   H2S44510   1.753   4.142   8.306
   83PPPE    C344511   1.257   4.257   8.372
   83PPPE    HX44512   1.166   4.313   8.337
   83PPPE    HY44513   1.238   4.148   8.360
   83PPPE   O3144514   1.283   4.278   8.510
   83PPPE   C3144515   1.282   4.405   8.545
   83PPPE   O3244516   1.249   4.499   8.475
   83PPPE   C3244517   1.322   4.411   8.691
   83PPPE   H2X44518   1.334   4.312   8.738
   83PPPE   H2Y44519   1.258   4.484   8.745
   83PPPE   C2344520   1.677   4.082   8.505
   83PPPE   H3R44521   1.773   4.045   8.547
   83PPPE   H3S44522   1.624   3.996   8.458
   83PPPE   C2444523   1.592   4.137   8.621
   83PPPE   H4R44524   1.499   4.186   8.584
   83PPPE   H4S44525   1.653   4.213   8.673
   83PPPE   C2544526   1.549   4.028   8.720
   83PPPE   H5R44527   1.642   3.982   8.759
   83PPPE   H5S44528   1.494   3.953   8.659
   83PPPE   C2644529   1.467   4.082   8.839
   83PPPE   H6R44530   1.363   4.109   8.809
   83PPPE   H6S44531   1.521   4.176   8.866
   83PPPE   C2744532   1.461   3.999   8.968
   83PPPE   H7R44533   1.565   3.991   9.008
   83PPPE   H7S44534   1.422   3.897   8.950
   83PPPE   C2844535   1.373   4.065   9.076
   83PPPE   H8R44536   1.267   4.053   9.045
   83PPPE   H8S44537   1.395   4.174   9.076
   83PPPE   C2944538   1.394   4.010   9.215
   83PPPE   H9144539   1.336   3.919   9.240
   83PPPE  C21044540   1.464   4.071   9.312
   83PPPE  H10144541   1.473   4.023   9.410
   83PPPE  C21144542   1.533   4.204   9.305
   83PPPE  H11R44543   1.584   4.222   9.208
   83PPPE  H11S44544   1.611   4.205   9.384
   83PPPE  C21244545   1.435   4.321   9.328
   83PPPE  H12R44546   1.369   4.327   9.238
   83PPPE  H12S44547   1.494   4.415   9.334
   83PPPE  C21344548   1.349   4.309   9.455
   83PPPE  H13R44549   1.297   4.211   9.453
   83PPPE  H13S44550   1.275   4.392   9.461
   83PPPE  C21444551   1.425   4.306   9.587
   83PPPE  H14R44552   1.503   4.227   9.577
   83PPPE  H14S44553   1.354   4.273   9.667
   83PPPE  C21544554   1.489   4.439   9.629
   83PPPE  H15R44555   1.555   4.473   9.547
   83PPPE  H15S44556   1.554   4.413   9.715
   83PPPE  C21644557   1.397   4.554   9.674
   83PPPE  H16R44558   1.359   4.609   9.586
   83PPPE  H16S44559   1.312   4.521   9.738
   83PPPE  H16T44560   1.456   4.626   9.735
   83PPPE   C3344561   1.456   4.466   8.705
   83PPPE   H3X44562   1.431   4.568   8.668
   83PPPE   H3Y44563   1.532   4.410   8.645
   83PPPE   C3444564   1.504   4.480   8.846
   83PPPE   H4X44565   1.527   4.388   8.899
   83PPPE   H4Y44566   1.446   4.559   8.902
   83PPPE   C3544567   1.640   4.532   8.843
   83PPPE   H5X44568   1.666   4.572   8.943
   83PPPE   H5Y44569   1.599   4.611   8.780
   83PPPE   C3644570   1.762   4.471   8.772
   83PPPE   H6X44571   1.858   4.531   8.779
   83PPPE   H6Y44572   1.761   4.456   8.664
   83PPPE   C3744573   1.787   4.366   8.860
   83PPPE   H7X44574   1.717   4.285   8.852
   83PPPE   H7Y44575   1.805   4.409   8.959
   83PPPE   C3844576   1.908   4.311   8.838
   83PPPE   H8X44577   1.965   4.410   8.838
   83PPPE   H8Y44578   1.946   4.279   8.747
   83PPPE   C3944579   1.921   4.194   8.942
   83PPPE   H9X44580   2.010   4.126   8.937
   83PPPE   H9Y44581   1.871   4.113   8.892
   83PPPE  C31044582   1.910   4.243   9.093
   83PPPE  H10X44583   1.816   4.291   9.113
   83PPPE  H10Y44584   1.977   4.325   9.130
   83PPPE  C31144585   1.982   4.161   9.201
   83PPPE  H11X44586   2.069   4.095   9.216
   83PPPE  H11Y44587   2.001   4.088   9.123
   83PPPE  C31244588   1.900   4.170   9.318
   83PPPE  H12X44589   1.839   4.085   9.338
   83PPPE  H12Y44590   1.809   4.224   9.294
   83PPPE  C31344591   1.981   4.216   9.433
   83PPPE  H13X44592   2.040   4.301   9.395
   83PPPE  H13Y44593   2.057   4.145   9.473
   83PPPE  C31444594   1.875   4.251   9.532
   83PPPE  H14X44595   1.823   4.162   9.571
   83PPPE  H14Y44596   1.801   4.312   9.474
   83PPPE  C31544597   1.942   4.334   9.635
   83PPPE  H15X44598   2.003   4.390   9.562
   83PPPE  H15Y44599   2.026   4.292   9.692
   83PPPE  C31644600   1.849   4.415   9.726
   83PPPE  H16X44601   1.912   4.462   9.806
   83PPPE  H16Y44602   1.793   4.496   9.674
   83PPPE  H16Z44603   1.774   4.350   9.772
   84PPPE     N44604   6.498   5.112   7.691
   84PPPE   HN144605   6.450   5.093   7.781
   84PPPE   HN244606   6.488   5.214   7.670
   84PPPE   HN344607   6.451   5.054   7.619
   84PPPE   C1244608   6.642   5.070   7.704
   84PPPE  H12A44609   6.690   5.128   7.785
   84PPPE  H12B44610   6.695   5.091   7.610
   84PPPE   C1144611   6.655   4.921   7.734
   84PPPE  H11A44612   6.631   4.861   7.644
   84PPPE  H11B44613   6.580   4.893   7.814
   84PPPE     P44614   6.821   4.836   7.914
   84PPPE   O1344615   6.729   4.721   7.923
   84PPPE   O1444616   6.966   4.814   7.928
   84PPPE   O1144617   6.771   4.954   8.006
   84PPPE   O1244618   6.792   4.900   7.769
   84PPPE    C144619   6.836   5.080   8.021
   84PPPE    HA44620   6.766   5.161   8.008
   84PPPE    HB44621   6.916   5.094   7.946
   84PPPE    C244622   6.895   5.102   8.161
   84PPPE    HS44623   6.967   5.190   8.146
   84PPPE   O2144624   6.931   4.973   8.213
   84PPPE   C2144625   7.047   4.973   8.234
   84PPPE   O2244626   7.120   5.072   8.203
   84PPPE   C2244627   7.077   4.823   8.297
   84PPPE   H2R44628   7.162   4.760   8.264
   84PPPE   H2S44629   7.015   4.743   8.260
   84PPPE    C344630   6.824   5.158   8.278
   84PPPE    HX44631   6.905   5.173   8.356
   84PPPE    HY44632   6.796   5.258   8.300
   84PPPE   O3144633   6.699   5.089   8.292
   84PPPE   C3144634   6.683   5.028   8.401
   84PPPE   O3244635   6.766   4.998   8.483
   84PPPE   C3244636   6.549   4.988   8.425
   84PPPE   H2X44637   6.552   4.891   8.371
   84PPPE   H2Y44638   6.468   5.044   8.378
   84PPPE   C2344639   7.115   4.807   8.441
   84PPPE   H3R44640   7.166   4.894   8.475
   84PPPE   H3S44641   7.189   4.722   8.450
   84PPPE   C2444642   7.030   4.867   8.545
   84PPPE   H4R44643   6.987   4.767   8.546
   84PPPE   H4S44644   6.979   4.953   8.497
   84PPPE   C2544645   7.097   4.904   8.678
   84PPPE   H5R44646   7.148   4.999   8.682
   84PPPE   H5S44647   7.173   4.824   8.696
   84PPPE   C2644648   7.006   4.924   8.799
   84PPPE   H6R44649   7.081   4.891   8.872
   84PPPE   H6S44650   6.929   4.850   8.770
   84PPPE   C2744651   6.968   5.073   8.832
   84PPPE   H7R44652   6.896   5.098   8.752
   84PPPE   H7S44653   7.064   5.115   8.804
   84PPPE   C2844654   6.925   5.150   8.967
   84PPPE   H8R44655   6.961   5.261   8.983
   84PPPE   H8S44656   6.823   5.160   8.951
   84PPPE   C2944657   6.960   5.136   9.111
   84PPPE   H9144658   6.951   5.222   9.166
   84PPPE  C21044659   7.033   5.041   9.166
   84PPPE  H10144660   7.119   5.092   9.214
   84PPPE  C21144661   7.129   4.945   9.126
   84PPPE  H11R44662   7.208   4.928   9.049
   84PPPE  H11S44663   7.044   4.912   9.065
   84PPPE  C21244664   7.158   4.881   9.263
   84PPPE  H12R44665   7.255   4.910   9.293
   84PPPE  H12S44666   7.200   4.781   9.263
   84PPPE  C21344667   7.049   4.900   9.372
   84PPPE  H13R44668   6.957   4.864   9.327
   84PPPE  H13S44669   7.034   5.005   9.400
   84PPPE  C21444670   7.087   4.852   9.505
   84PPPE  H14R44671   7.189   4.828   9.483
   84PPPE  H14S44672   7.083   4.751   9.531
   84PPPE  C21544673   6.993   4.858   9.617
   84PPPE  H15R44674   6.887   4.857   9.584
   84PPPE  H15S44675   7.006   4.955   9.660
   84PPPE  C21644676   7.012   4.751   9.720
   84PPPE  H16R44677   7.081   4.716   9.779
   84PPPE  H16S44678   6.957   4.778   9.809
   84PPPE  H16T44679   7.012   4.646   9.693
   84PPPE   C3344680   6.538   4.977   8.582
   84PPPE   H3X44681   6.457   4.922   8.611
   84PPPE   H3Y44682   6.488   5.058   8.637
   84PPPE   C3444683   6.596   4.850   8.655
   84PPPE   H4X44684   6.699   4.883   8.668
   84PPPE   H4Y44685   6.597   4.770   8.576
   84PPPE   C3544686   6.524   4.816   8.796
   84PPPE   H5X44687   6.423   4.805   8.769
   84PPPE   H5Y44688   6.552   4.895   8.867
   84PPPE   C3644689   6.527   4.675   8.874
   84PPPE   H6X44690   6.626   4.695   8.835
   84PPPE   H6Y44691   6.547   4.612   8.797
   84PPPE   C3744692   6.431   4.583   9.004
   84PPPE   H7X44693   6.353   4.569   8.944
   84PPPE   H7Y44694   6.459   4.682   9.015
   84PPPE   C3844695   6.429   4.485   9.154
   84PPPE   H8X44696   6.382   4.411   9.247
   84PPPE   H8Y44697   6.437   4.544   9.244
   84PPPE   C3944698   6.550   4.556   9.120
   84PPPE   H9X44699   6.613   4.494   9.046
   84PPPE   H9Y44700   6.598   4.449   9.113
   84PPPE  C31044701   6.607   4.752   9.154
   84PPPE  H10X44702   6.661   4.803   9.068
   84PPPE  H10Y44703   6.706   4.805   9.125
   84PPPE  C31144704   6.602   4.877   9.272
   84PPPE  H11X44705   6.525   4.854   9.213
   84PPPE  H11Y44706   6.684   4.955   9.244
   84PPPE  C31244707   6.494   4.947   9.370
   84PPPE  H12X44708   6.578   5.000   9.363
   84PPPE  H12Y44709   6.458   4.865   9.414
   84PPPE  C31344710   6.539   4.943   9.509
   84PPPE  H13X44711   6.448   5.028   9.467
   84PPPE  H13Y44712   6.649   4.970   9.524
   84PPPE  C31444713   6.529   4.823   9.628
   84PPPE  H14X44714   6.629   4.804   9.632
   84PPPE  H14Y44715   6.515   4.716   9.645
   84PPPE  C31544716   6.511   4.825   9.784
   84PPPE  H15X44717   6.510   4.733   9.847
   84PPPE  H15Y44718   6.404   4.847   9.777
   84PPPE  C31644719   6.608   4.897   9.870
   84PPPE  H16X44720   6.707   4.877   9.834
   84PPPE  H16Y44721   6.546   4.984   9.883
   84PPPE  H16Z44722   6.682   4.969   9.830
   85PPPE     N44723   1.277   3.746   8.053
   85PPPE   HN144724   1.236   3.751   8.148
   85PPPE   HN244725   1.363   3.687   8.052
   85PPPE   HN344726   1.304   3.841   8.021
   85PPPE   C1244727   1.181   3.682   7.956
   85PPPE  H12A44728   1.089   3.744   7.950
   85PPPE  H12B44729   1.153   3.581   7.995
   85PPPE   C1144730   1.248   3.670   7.818
   85PPPE  H11A44731   1.289   3.771   7.791
   85PPPE  H11B44732   1.171   3.643   7.744
   85PPPE     P44733   1.326   3.422   7.767
   85PPPE   O1344734   1.229   3.364   7.863
   85PPPE   O1444735   1.294   3.416   7.624
   85PPPE   O1144736   1.468   3.361   7.791
   85PPPE   O1244737   1.352   3.574   7.817
   85PPPE    C144738   1.531   3.391   7.913
   85PPPE    HA44739   1.495   3.483   7.966
   85PPPE    HB44740   1.641   3.398   7.900
   85PPPE    C244741   1.511   3.287   8.016
   85PPPE    HS44742   1.551   3.188   7.979
   85PPPE   O2144743   1.376   3.276   8.053
   85PPPE   C2144744   1.355   3.192   8.145
   85PPPE   O2244745   1.425   3.094   8.169
   85PPPE   C2244746   1.219   3.232   8.200
   85PPPE   H2R44747   1.188   3.151   8.148
   85PPPE   H2S44748   1.151   3.290   8.138
   85PPPE    C344749   1.595   3.349   8.129
   85PPPE    HX44750   1.543   3.291   8.203
   85PPPE    HY44751   1.703   3.328   8.110
   85PPPE   O3144752   1.569   3.456   8.215
   85PPPE   C3144753   1.666   3.474   8.304
   85PPPE   O3244754   1.774   3.421   8.313
   85PPPE   C3244755   1.629   3.594   8.375
   85PPPE   H2X44756   1.630   3.672   8.297
   85PPPE   H2Y44757   1.709   3.612   8.448
   85PPPE   C2344758   1.178   3.212   8.348
   85PPPE   H3R44759   1.077   3.243   8.379
   85PPPE   H3S44760   1.262   3.267   8.393
   85PPPE   C2444761   1.173   3.074   8.408
   85PPPE   H4R44762   1.248   3.049   8.332
   85PPPE   H4S44763   1.106   2.989   8.389
   85PPPE   C2544764   1.169   3.079   8.562
   85PPPE   H5R44765   1.190   2.977   8.603
   85PPPE   H5S44766   1.066   3.094   8.593
   85PPPE   C2644767   1.256   3.191   8.624
   85PPPE   H6R44768   1.225   3.293   8.603
   85PPPE   H6S44769   1.349   3.191   8.573
   85PPPE   C2744770   1.321   3.169   8.758
   85PPPE   H7R44771   1.379   3.077   8.738
   85PPPE   H7S44772   1.244   3.150   8.834
   85PPPE   C2844773   1.424   3.278   8.799
   85PPPE   H8R44774   1.363   3.361   8.838
   85PPPE   H8S44775   1.478   3.307   8.707
   85PPPE   C2944776   1.542   3.270   8.889
   85PPPE   H9144777   1.610   3.185   8.866
   85PPPE  C21044778   1.550   3.323   9.012
   85PPPE  H10144779   1.640   3.295   9.065
   85PPPE  C21144780   1.456   3.402   9.102
   85PPPE  H11R44781   1.385   3.347   9.170
   85PPPE  H11S44782   1.388   3.455   9.036
   85PPPE  C21244783   1.548   3.490   9.190
   85PPPE  H12R44784   1.481   3.561   9.241
   85PPPE  H12S44785   1.619   3.540   9.122
   85PPPE  C21344786   1.627   3.440   9.311
   85PPPE  H13R44787   1.684   3.524   9.354
   85PPPE  H13S44788   1.720   3.384   9.293
   85PPPE  C21444789   1.537   3.386   9.421
   85PPPE  H14R44790   1.493   3.291   9.384
   85PPPE  H14S44791   1.441   3.433   9.446
   85PPPE  C21544792   1.623   3.388   9.548
   85PPPE  H15R44793   1.672   3.484   9.552
   85PPPE  H15S44794   1.723   3.353   9.532
   85PPPE  C21644795   1.564   3.336   9.678
   85PPPE  H16R44796   1.504   3.419   9.707
   85PPPE  H16S44797   1.514   3.236   9.672
   85PPPE  H16T44798   1.628   3.336   9.769
   85PPPE   C3344799   1.491   3.578   8.440
   85PPPE   H3X44800   1.493   3.494   8.513
   85PPPE   H3Y44801   1.414   3.550   8.364
   85PPPE   C3444802   1.466   3.714   8.506
   85PPPE   H4X44803   1.475   3.793   8.428
   85PPPE   H4Y44804   1.553   3.728   8.575
   85PPPE   C3544805   1.341   3.729   8.592
   85PPPE   H5X44806   1.249   3.736   8.529
   85PPPE   H5Y44807   1.346   3.824   8.649
   85PPPE   C3644808   1.329   3.610   8.686
   85PPPE   H6X44809   1.433   3.577   8.710
   85PPPE   H6Y44810   1.276   3.531   8.630
   85PPPE   C3744811   1.267   3.635   8.824
   85PPPE   H7X44812   1.316   3.726   8.865
   85PPPE   H7Y44813   1.292   3.550   8.890
   85PPPE   C3844814   1.116   3.648   8.827
   85PPPE   H8X44815   1.087   3.718   8.746
   85PPPE   H8Y44816   1.092   3.686   8.928
   85PPPE   C3944817   1.030   3.524   8.802
   85PPPE   H9X44818   1.058   3.486   8.702
   85PPPE   H9Y44819   0.923   3.555   8.797
   85PPPE  C31044820   1.048   3.413   8.907
   85PPPE  H10X44821   1.153   3.378   8.900
   85PPPE  H10Y44822   0.984   3.325   8.881
   85PPPE  C31144823   1.021   3.450   9.053
   85PPPE  H11X44824   0.917   3.485   9.071
   85PPPE  H11Y44825   1.088   3.533   9.082
   85PPPE  C31244826   1.055   3.328   9.140
   85PPPE  H12X44827   1.144   3.279   9.094
   85PPPE  H12Y44828   0.972   3.253   9.141
   85PPPE  C31344829   1.100   3.364   9.280
   85PPPE  H13X44830   1.180   3.442   9.276
   85PPPE  H13Y44831   1.142   3.276   9.335
   85PPPE  C31444832   0.986   3.422   9.357
   85PPPE  H14X44833   0.892   3.363   9.350
   85PPPE  H14Y44834   0.963   3.526   9.324
   85PPPE  C31544835   1.025   3.426   9.498
   85PPPE  H15X44836   1.109   3.501   9.510
   85PPPE  H15Y44837   1.056   3.333   9.546
   85PPPE  C31644838   0.901   3.450   9.573
   85PPPE  H16X44839   0.935   3.481   9.669
   85PPPE  H16Y44840   0.860   3.537   9.529
   85PPPE  H16Z44841   0.799   3.426   9.543
   86PPPE     N44842   6.438   2.459   7.801
   86PPPE   HN144843   6.402   2.489   7.894
   86PPPE   HN244844   6.504   2.380   7.815
   86PPPE   HN344845   6.484   2.540   7.754
   86PPPE   C1244846   6.319   2.416   7.719
   86PPPE  H12A44847   6.357   2.390   7.619
   86PPPE  H12B44848   6.253   2.504   7.712
   86PPPE   C1144849   6.250   2.294   7.783
   86PPPE  H11A44850   6.154   2.265   7.735
   86PPPE  H11B44851   6.223   2.321   7.888
   86PPPE     P44852   6.304   2.065   7.881
   86PPPE   O1344853   6.293   2.136   8.010
   86PPPE   O1444854   6.193   1.980   7.834
   86PPPE   O1144855   6.435   1.983   7.874
   86PPPE   O1244856   6.338   2.183   7.777
   86PPPE    C144857   6.561   2.039   7.906
   86PPPE    HA44858   6.558   2.144   7.941
   86PPPE    HB44859   6.627   2.033   7.816
   86PPPE    C244860   6.621   1.962   8.025
   86PPPE    HS44861   6.656   1.871   7.971
   86PPPE   O2144862   6.526   1.921   8.124
   86PPPE   C2144863   6.532   1.813   8.198
   86PPPE   O2244864   6.602   1.715   8.200
   86PPPE   C2244865   6.416   1.809   8.290
   86PPPE   H2R44866   6.371   1.710   8.269
   86PPPE   H2S44867   6.349   1.892   8.263
   86PPPE    C344868   6.733   2.044   8.098
   86PPPE    HX44869   6.778   1.978   8.174
   86PPPE    HY44870   6.815   2.069   8.028
   86PPPE   O3144871   6.680   2.162   8.162
   86PPPE   C3144872   6.711   2.173   8.290
   86PPPE   O3244873   6.778   2.104   8.358
   86PPPE   C3244874   6.663   2.299   8.345
   86PPPE   H2X44875   6.559   2.313   8.310
   86PPPE   H2Y44876   6.734   2.374   8.306
   86PPPE   C2344877   6.460   1.822   8.438
   86PPPE   H3R44878   6.494   1.926   8.452
   86PPPE   H3S44879   6.547   1.757   8.466
   86PPPE   C2444880   6.343   1.786   8.529
   86PPPE   H4R44881   6.319   1.682   8.507
   86PPPE   H4S44882   6.252   1.841   8.497
   86PPPE   C2544883   6.367   1.803   8.680
   86PPPE   H5R44884   6.453   1.740   8.714
   86PPPE   H5S44885   6.279   1.776   8.742
   86PPPE   C2644886   6.378   1.945   8.723
   86PPPE   H6R44887   6.278   1.992   8.710
   86PPPE   H6S44888   6.454   1.995   8.660
   86PPPE   C2744889   6.417   1.956   8.870
   86PPPE   H7R44890   6.520   1.917   8.883
   86PPPE   H7S44891   6.349   1.896   8.935
   86PPPE   C2844892   6.410   2.102   8.911
   86PPPE   H8R44893   6.456   2.168   8.834
   86PPPE   H8S44894   6.473   2.104   9.003
   86PPPE   C2944895   6.270   2.149   8.934
   86PPPE   H9144896   6.194   2.118   8.860
   86PPPE  C21044897   6.233   2.225   9.037
   86PPPE  H10144898   6.125   2.244   9.053
   86PPPE  C21144899   6.328   2.272   9.145
   86PPPE  H11R44900   6.324   2.382   9.169
   86PPPE  H11S44901   6.432   2.234   9.143
   86PPPE  C21244902   6.278   2.211   9.270
   86PPPE  H12R44903   6.279   2.098   9.263
   86PPPE  H12S44904   6.172   2.247   9.268
   86PPPE  C21344905   6.366   2.259   9.386
   86PPPE  H13R44906   6.396   2.363   9.368
   86PPPE  H13S44907   6.450   2.187   9.400
   86PPPE  C21444908   6.323   2.322   9.517
   86PPPE  H14R44909   6.291   2.239   9.555
   86PPPE  H14S44910   6.221   2.355   9.543
   86PPPE  C21544911   6.420   2.299   9.627
   86PPPE  H15R44912   6.371   2.374   9.690
   86PPPE  H15S44913   6.510   2.233   9.627
   86PPPE  C21644914   6.390   2.233   9.747
   86PPPE  H16R44915   6.295   2.272   9.798
   86PPPE  H16S44916   6.385   2.126   9.709
   86PPPE  H16T44917   6.445   2.238   9.840
   86PPPE   C3344918   6.672   2.292   8.498
   86PPPE   H3X44919   6.680   2.191   8.546
   86PPPE   H3Y44920   6.570   2.322   8.529
   86PPPE   C3444921   6.786   2.378   8.555
   86PPPE   H4X44922   6.780   2.484   8.521
   86PPPE   H4Y44923   6.886   2.342   8.520
   86PPPE   C3544924   6.788   2.373   8.706
   86PPPE   H5X44925   6.698   2.380   8.766
   86PPPE   H5Y44926   6.837   2.462   8.741
   86PPPE   C3644927   6.840   2.244   8.760
   86PPPE   H6X44928   6.941   2.234   8.711
   86PPPE   H6Y44929   6.773   2.161   8.740
   86PPPE   C3744930   6.832   2.231   8.914
   86PPPE   H7X44931   6.766   2.264   8.993
   86PPPE   H7Y44932   6.856   2.330   8.913
   86PPPE   C3844933   6.941   2.144   8.962
   86PPPE   H8X44934   7.033   2.154   9.016
   86PPPE   H8Y44935   6.995   2.189   8.881
   86PPPE   C3944936   6.895   2.009   8.981
   86PPPE   H9X44937   6.957   1.921   8.960
   86PPPE   H9Y44938   6.835   1.998   8.893
   86PPPE  C31044939   6.848   2.008   9.126
   86PPPE  H10X44940   6.808   1.907   9.137
   86PPPE  H10Y44941   6.774   2.091   9.132
   86PPPE  C31144942   6.943   2.025   9.245
   86PPPE  H11X44943   6.979   2.123   9.256
   86PPPE  H11Y44944   7.040   1.978   9.239
   86PPPE  C31244945   6.877   1.997   9.378
   86PPPE  H12X44946   6.948   2.010   9.462
   86PPPE  H12Y44947   6.859   1.888   9.369
   86PPPE  C31344948   6.741   2.068   9.402
   86PPPE  H13X44949   6.718   2.055   9.507
   86PPPE  H13Y44950   6.661   2.037   9.336
   86PPPE  C31444951   6.734   2.210   9.437
   86PPPE  H14X44952   6.643   2.256   9.480
   86PPPE  H14Y44953   6.735   2.262   9.339
   86PPPE  C31544954   6.840   2.210   9.548
   86PPPE  H15X44955   6.932   2.256   9.527
   86PPPE  H15Y44956   6.942   2.175   9.527
   86PPPE  C31644957   6.781   2.250   9.690
   86PPPE  H16X44958   6.853   2.280   9.769
   86PPPE  H16Y44959   6.738   2.328   9.626
   86PPPE  H16Z44960   6.828   2.164   9.696
   87PPPE     N44961   1.551   5.788   7.718
   87PPPE   HN144962   1.569   5.700   7.663
   87PPPE   HN244963   1.568   5.769   7.819
   87PPPE   HN344964   1.454   5.820   7.703
   87PPPE   C1244965   1.646   5.897   7.675
   87PPPE  H12A44966   1.620   5.919   7.570
   87PPPE  H12B44967   1.748   5.857   7.682
   87PPPE   C1144968   1.630   6.032   7.750
   87PPPE  H11A44969   1.524   6.061   7.757
   87PPPE  H11B44970   1.682   6.109   7.687
   87PPPE     P44971   1.839   6.071   7.897
   87PPPE   O1344972   1.914   5.980   7.808
   87PPPE   O1444973   1.854   6.217   7.889
   87PPPE   O1144974   1.859   6.024   8.044
   87PPPE   O1244975   1.685   6.029   7.880
   87PPPE    C144976   1.841   5.887   8.081
   87PPPE    HA44977   1.939   5.853   8.093
   87PPPE    HB44978   1.808   5.815   8.005
   87PPPE    C244979   1.784   5.871   8.221
   87PPPE    HS44980   1.678   5.898   8.216
   87PPPE   O2144981   1.863   5.951   8.313
   87PPPE   C2144982   1.810   6.068   8.332
   87PPPE   O2244983   1.706   6.108   8.283
   87PPPE   C2244984   1.896   6.136   8.439
   87PPPE   H2R44985   1.999   6.144   8.402
   87PPPE   H2S44986   1.895   6.072   8.530
   87PPPE    C344987   1.780   5.728   8.274
   87PPPE    HX44988   1.764   5.636   8.216
   87PPPE    HY44989   1.875   5.701   8.258
   87PPPE   O3144990   1.774   5.723   8.416
   87PPPE   C3144991   1.670   5.657   8.442
   87PPPE   O3244992   1.605   5.586   8.365
   87PPPE   C3244993   1.623   5.712   8.570
   87PPPE   H2X44994   1.686   5.786   8.620
   87PPPE   H2Y44995   1.593   5.627   8.636
   87PPPE   C2344996   1.839   6.272   8.468
   87PPPE   H3R44997   1.855   6.340   8.380
   87PPPE   H3S44998   1.895   6.322   8.551
   87PPPE   C2444999   1.687   6.263   8.504
   87PPPE   H4R45000   1.609   6.268   8.427
   87PPPE   H4S45001   1.697   6.364   8.512
   87PPPE   C2545002   1.641   6.212   8.642
   87PPPE   H5R45003   1.728   6.233   8.705
   87PPPE   H5S45004   1.642   6.104   8.638
   87PPPE   C2645005   1.500   6.261   8.698
   87PPPE   H6R45006   1.433   6.250   8.612
   87PPPE   H6S45007   1.476   6.366   8.726
   87PPPE   C2745008   1.452   6.199   8.829
   87PPPE   H7R45009   1.535   6.162   8.891
   87PPPE   H7S45010   1.403   6.109   8.796
   87PPPE   C2845011   1.376   6.301   8.918
   87PPPE   H8R45012   1.315   6.349   8.853
   87PPPE   H8S45013   1.419   6.394   8.965
   87PPPE   C2945014   1.301   6.239   9.023
   87PPPE   H9145015   1.193   6.231   9.019
   87PPPE  C21045016   1.364   6.187   9.125
   87PPPE  H10145017   1.300   6.164   9.209
   87PPPE  C21145018   1.512   6.177   9.165
   87PPPE  H11R45019   1.523   6.276   9.126
   87PPPE  H11S45020   1.585   6.106   9.126
   87PPPE  C21245021   1.580   6.152   9.312
   87PPPE  H12R45022   1.520   6.098   9.382
   87PPPE  H12S45023   1.500   6.220   9.292
   87PPPE  C21345024   1.717   6.212   9.400
   87PPPE  H13R45025   1.772   6.306   9.367
   87PPPE  H13S45026   1.794   6.139   9.383
   87PPPE  C21445027   1.718   6.270   9.552
   87PPPE  H14R45028   1.632   6.234   9.610
   87PPPE  H14S45029   1.713   6.383   9.571
   87PPPE  C21545030   1.855   6.261   9.617
   87PPPE  H15R45031   1.920   6.324   9.552
   87PPPE  H15S45032   1.884   6.155   9.611
   87PPPE  C21645033   1.864   6.316   9.760
   87PPPE  H16R45034   1.765   6.316   9.810
   87PPPE  H16S45035   1.937   6.254   9.817
   87PPPE  H16T45036   1.902   6.421   9.759
   87PPPE   C3345037   1.513   5.801   8.523
   87PPPE   H3X45038   1.452   5.717   8.499
   87PPPE   H3Y45039   1.502   5.852   8.426
   87PPPE   C3445040   1.461   5.889   8.633
   87PPPE   H4X45041   1.354   5.897   8.614
   87PPPE   H4Y45042   1.481   5.994   8.617
   87PPPE   C3545043   1.476   5.840   8.777
   87PPPE   H5X45044   1.443   5.739   8.812
   87PPPE   H5Y45045   1.403   5.921   8.804
   87PPPE   C3645046   1.589   5.864   8.868
   87PPPE   H6X45047   1.608   5.971   8.849
   87PPPE   H6Y45048   1.662   5.791   8.830
   87PPPE   C3745049   1.566   5.848   9.020
   87PPPE   H7X45050   1.488   5.916   9.056
   87PPPE   H7Y45051   1.659   5.883   9.067
   87PPPE   C3845052   1.533   5.705   9.065
   87PPPE   H8X45053   1.602   5.636   9.016
   87PPPE   H8Y45054   1.429   5.679   9.035
   87PPPE   C3945055   1.544   5.681   9.212
   87PPPE   H9X45056   1.632   5.722   9.268
   87PPPE   H9Y45057   1.531   5.572   9.235
   87PPPE  C31045058   1.432   5.743   9.280
   87PPPE  H10X45059   1.351   5.679   9.233
   87PPPE  H10Y45060   1.399   5.845   9.265
   87PPPE  C31145061   1.485   5.738   9.425
   87PPPE  H11X45062   1.506   5.632   9.446
   87PPPE  H11Y45063   1.421   5.758   9.508
   87PPPE  C31245064   1.507   5.863   9.509
   87PPPE  H12X45065   1.435   5.947   9.495
   87PPPE  H12Y45066   1.603   5.868   9.457
   87PPPE  C31345067   1.520   5.834   9.660
   87PPPE  H13X45068   1.594   5.769   9.628
   87PPPE  H13Y45069   1.457   5.777   9.733
   87PPPE  C31445070   1.577   5.935   9.744
   87PPPE  H14X45071   1.674   5.960   9.698
   87PPPE  H14Y45072   1.590   5.889   9.844
   87PPPE  C31545073   1.471   6.040   9.744
   87PPPE  H15X45074   1.478   6.090   9.647
   87PPPE  H15Y45075   1.496   6.108   9.826
   87PPPE  C31645076   1.328   5.989   9.764
   87PPPE  H16X45077   1.291   5.922   9.683
   87PPPE  H16Y45078   1.324   5.933   9.860
   87PPPE  H16Z45079   1.261   6.077   9.767
   88PPPE     N45080   1.733   2.213   7.577
   88PPPE   HN145081   1.717   2.287   7.649
   88PPPE   HN245082   1.833   2.214   7.547
   88PPPE   HN345083   1.671   2.221   7.496
   88PPPE   C1245084   1.703   2.084   7.649
   88PPPE  H12A45085   1.651   2.019   7.575
   88PPPE  H12B45086   1.633   2.109   7.731
   88PPPE   C1145087   1.831   2.021   7.706
   88PPPE  H11A45088   1.904   2.012   7.622
   88PPPE  H11B45089   1.812   1.918   7.744
   88PPPE     P45090   1.821   2.116   7.951
   88PPPE   O1345091   1.744   2.241   7.949
   88PPPE   O1445092   1.739   1.995   7.975
   88PPPE   O1145093   1.941   2.129   8.054
   88PPPE   O1245094   1.890   2.102   7.808
   88PPPE    C145095   2.076   2.081   8.040
   88PPPE    HA45096   2.147   2.163   8.019
   88PPPE    HB45097   2.085   2.014   7.951
   88PPPE    C245098   2.117   1.999   8.169
   88PPPE    HS45099   2.207   1.936   8.143
   88PPPE   O2145100   2.007   1.920   8.224
   88PPPE   C2145101   1.923   1.862   8.134
   88PPPE   O2245102   1.954   1.844   8.018
   88PPPE   C2245103   1.792   1.806   8.196
   88PPPE   H2R45104   1.779   1.709   8.246
   88PPPE   H2S45105   1.738   1.745   8.123
   88PPPE    C345106   2.171   2.084   8.287
   88PPPE    HX45107   2.198   2.012   8.368
   88PPPE    HY45108   2.262   2.141   8.258
   88PPPE   O3145109   2.071   2.176   8.331
   88PPPE   C3145110   2.095   2.229   8.448
   88PPPE   O3245111   2.181   2.193   8.527
   88PPPE   C3245112   1.986   2.332   8.471
   88PPPE   H2X45113   1.888   2.281   8.455
   88PPPE   H2Y45114   1.998   2.414   8.398
   88PPPE   C2345115   1.764   1.865   8.333
   88PPPE   H3R45116   1.791   1.971   8.317
   88PPPE   H3S45117   1.828   1.825   8.417
   88PPPE   C2445118   1.620   1.842   8.367
   88PPPE   H4R45119   1.598   1.734   8.381
   88PPPE   H4S45120   1.564   1.878   8.277
   88PPPE   C2545121   1.579   1.924   8.488
   88PPPE   H5R45122   1.471   1.906   8.504
   88PPPE   H5S45123   1.594   2.032   8.465
   88PPPE   C2645124   1.657   1.888   8.616
   88PPPE   H6R45125   1.764   1.918   8.613
   88PPPE   H6S45126   1.657   1.777   8.620
   88PPPE   C2745127   1.591   1.949   8.740
   88PPPE   H7R45128   1.500   1.889   8.763
   88PPPE   H7S45129   1.557   2.054   8.717
   88PPPE   C2845130   1.686   1.967   8.860
   88PPPE   H8R45131   1.632   2.024   8.939
   88PPPE   H8S45132   1.768   2.033   8.824
   88PPPE   C2945133   1.751   1.842   8.914
   88PPPE   H9145134   1.791   1.771   8.842
   88PPPE  C21045135   1.755   1.804   9.041
   88PPPE  H10145136   1.801   1.705   9.059
   88PPPE  C21145137   1.695   1.876   9.160
   88PPPE  H11R45138   1.658   1.797   9.228
   88PPPE  H11S45139   1.602   1.930   9.135
   88PPPE  C21245140   1.784   1.983   9.228
   88PPPE  H12R45141   1.824   2.056   9.155
   88PPPE  H12S45142   1.887   1.942   9.246
   88PPPE  C21345143   1.718   2.054   9.356
   88PPPE  H13R45144   1.640   2.123   9.324
   88PPPE  H13S45145   1.804   2.112   9.393
   88PPPE  C21445146   1.634   1.987   9.472
   88PPPE  H14R45147   1.684   1.976   9.567
   88PPPE  H14S45148   1.576   1.897   9.447
   88PPPE  C21545149   1.591   2.055   9.600
   88PPPE  H15R45150   1.511   2.097   9.545
   88PPPE  H15S45151   1.654   2.147   9.624
   88PPPE  C21645152   1.548   1.937   9.704
   88PPPE  H16R45153   1.617   1.914   9.780
   88PPPE  H16S45154   1.490   1.959   9.793
   88PPPE  H16T45155   1.552   1.833   9.659
   88PPPE   C3345156   1.986   2.382   8.614
   88PPPE   H3X45157   1.914   2.468   8.618
   88PPPE   H3Y45158   2.085   2.422   8.646
   88PPPE   C3445159   1.928   2.267   8.698
   88PPPE   H4X45160   1.979   2.171   8.678
   88PPPE   H4Y45161   1.821   2.256   8.671
   88PPPE   C3545162   1.931   2.287   8.844
   88PPPE   H5X45163   2.032   2.281   8.890
   88PPPE   H5Y45164   1.854   2.230   8.902
   88PPPE   C3645165   1.893   2.421   8.865
   88PPPE   H6X45166   1.801   2.458   8.809
   88PPPE   H6Y45167   1.983   2.486   8.843
   88PPPE   C3745168   1.866   2.421   9.009
   88PPPE   H7X45169   1.785   2.363   9.053
   88PPPE   H7Y45170   1.808   2.509   8.980
   88PPPE   C3845171   1.983   2.417   9.107
   88PPPE   H8X45172   2.046   2.503   9.131
   88PPPE   H8Y45173   2.064   2.349   9.081
   88PPPE   C3945174   1.940   2.386   9.243
   88PPPE   H9X45175   1.869   2.308   9.272
   88PPPE   H9Y45176   1.878   2.460   9.289
   88PPPE  C31045177   2.058   2.423   9.320
   88PPPE  H10X45178   2.001   2.403   9.409
   88PPPE  H10Y45179   2.103   2.525   9.306
   88PPPE  C31145180   2.164   2.341   9.357
   88PPPE  H11X45181   2.197   2.407   9.441
   88PPPE  H11Y45182   2.218   2.350   9.261
   88PPPE  C31245183   2.102   2.210   9.394
   88PPPE  H12X45184   2.014   2.186   9.332
   88PPPE  H12Y45185   2.062   2.211   9.498
   88PPPE  C31345186   2.192   2.102   9.341
   88PPPE  H13X45187   2.236   2.144   9.246
   88PPPE  H13Y45188   2.145   2.004   9.339
   88PPPE  C31445189   2.312   2.071   9.416
   88PPPE  H14X45190   2.328   2.182   9.411
   88PPPE  H14Y45191   2.405   2.037   9.371
   88PPPE  C31545192   2.285   1.990   9.544
   88PPPE  H15X45193   2.387   1.977   9.597
   88PPPE  H15Y45194   2.299   1.890   9.550
   88PPPE  C31645195   2.172   2.045   9.637
   88PPPE  H16X45196   2.185   1.996   9.735
   88PPPE  H16Y45197   2.177   2.157   9.651
   88PPPE  H16Z45198   2.070   2.047   9.619
   89PPPE     N45199   6.161   6.412   8.115
   89PPPE   HN145200   6.198   6.509   8.133
   89PPPE   HN245201   6.096   6.382   8.189
   89PPPE   HN345202   6.242   6.346   8.105
   89PPPE   C1245203   6.085   6.412   7.986
   89PPPE  H12A45204   6.004   6.487   7.996
   89PPPE  H12B45205   6.039   6.312   7.974
   89PPPE   C1145206   6.180   6.446   7.869
   89PPPE  H11A45207   6.220   6.547   7.889
   89PPPE  H11B45208   6.119   6.452   7.775
   89PPPE     P45209   6.285   6.242   7.742
   89PPPE   O1345210   6.144   6.203   7.722
   89PPPE   O1445211   6.361   6.287   7.623
   89PPPE   O1145212   6.357   6.115   7.802
   89PPPE   O1245213   6.290   6.354   7.858
   89PPPE    C145214   6.477   6.122   7.878
   89PPPE    HA45215   6.508   6.226   7.900
   89PPPE    HB45216   6.562   6.077   7.821
   89PPPE    C245217   6.462   6.046   8.013
   89PPPE    HS45218   6.459   5.939   7.985
   89PPPE   O2145219   6.341   6.082   8.085
   89PPPE   C2145220   6.296   5.986   8.164
   89PPPE   O2245221   6.347   5.877   8.182
   89PPPE   C2245222   6.164   6.034   8.222
   89PPPE   H2R45223   6.091   5.950   8.225
   89PPPE   H2S45224   6.121   6.110   8.154
   89PPPE    C345225   6.586   6.078   8.100
   89PPPE    HX45226   6.587   6.015   8.191
   89PPPE    HY45227   6.678   6.054   8.041
   89PPPE   O3145228   6.582   6.217   8.137
   89PPPE   C3145229   6.687   6.255   8.206
   89PPPE   O3245230   6.779   6.184   8.243
   89PPPE   C3245231   6.663   6.399   8.249
   89PPPE   H2X45232   6.565   6.430   8.208
   89PPPE   H2Y45233   6.740   6.467   8.208
   89PPPE   C2345234   6.182   6.091   8.365
   89PPPE   H3R45235   6.085   6.139   8.390
   89PPPE   H3S45236   6.261   6.170   8.367
   89PPPE   C2445237   6.217   5.982   8.468
   89PPPE   H4R45238   6.318   5.939   8.449
   89PPPE   H4S45239   6.143   5.900   8.457
   89PPPE   C2545240   6.208   6.029   8.614
   89PPPE   H5R45241   6.102   6.021   8.646
   89PPPE   H5S45242   6.236   6.137   8.617
   89PPPE   C2645243   6.299   5.957   8.716
   89PPPE   H6R45244   6.371   5.887   8.667
   89PPPE   H6S45245   6.235   5.899   8.785
   89PPPE   C2745246   6.381   6.056   8.801
   89PPPE   H7R45247   6.420   5.994   8.884
   89PPPE   H7S45248   6.317   6.132   8.850
   89PPPE   C2845249   6.491   6.130   8.721
   89PPPE   H8R45250   6.442   6.176   8.634
   89PPPE   H8S45251   6.561   6.052   8.681
   89PPPE   C2945252   6.563   6.242   8.794
   89PPPE   H9145253   6.554   6.342   8.756
   89PPPE  C21045254   6.631   6.230   8.907
   89PPPE  H10145255   6.711   6.300   8.941
   89PPPE  C21145256   6.637   6.097   8.960
   89PPPE  H11R45257   6.738   6.119   8.933
   89PPPE  H11S45258   6.601   6.016   8.895
   89PPPE  C21245259   6.624   6.030   9.095
   89PPPE  H12R45260   6.669   5.925   9.101
   89PPPE  H12S45261   6.518   6.029   9.107
   89PPPE  C21345262   6.679   6.124   9.193
   89PPPE  H13R45263   6.676   6.232   9.175
   89PPPE  H13S45264   6.766   6.098   9.135
   89PPPE  C21445265   6.659   6.089   9.339
   89PPPE  H14R45266   6.699   5.987   9.361
   89PPPE  H14S45267   6.553   6.072   9.359
   89PPPE  C21545268   6.698   6.191   9.447
   89PPPE  H15R45269   6.656   6.291   9.437
   89PPPE  H15S45270   6.790   6.244   9.481
   89PPPE  C21645271   6.692   6.105   9.569
   89PPPE  H16R45272   6.591   6.100   9.604
   89PPPE  H16S45273   6.722   6.005   9.590
   89PPPE  H16T45274   6.758   6.158   9.638
   89PPPE   C3345275   6.658   6.397   8.403
   89PPPE   H3X45276   6.759   6.369   8.439
   89PPPE   H3Y45277   6.581   6.328   8.441
   89PPPE   C3445278   6.629   6.529   8.465
   89PPPE   H4X45279   6.681   6.603   8.395
   89PPPE   H4Y45280   6.656   6.542   8.572
   89PPPE   C3545281   6.497   6.581   8.447
   89PPPE   H5X45282   6.491   6.574   8.338
   89PPPE   H5Y45283   6.523   6.683   8.479
   89PPPE   C3645284   6.369   6.535   8.515
   89PPPE   H6X45285   6.366   6.428   8.492
   89PPPE   H6Y45286   6.274   6.578   8.474
   89PPPE   C3745287   6.370   6.574   8.661
   89PPPE   H7X45288   6.360   6.685   8.672
   89PPPE   H7Y45289   6.468   6.544   8.701
   89PPPE   C3845290   6.263   6.502   8.743
   89PPPE   H8X45291   6.275   6.393   8.725
   89PPPE   H8Y45292   6.161   6.532   8.707
   89PPPE   C3945293   6.277   6.531   8.893
   89PPPE   H9X45294   6.180   6.514   8.944
   89PPPE   H9Y45295   6.308   6.638   8.907
   89PPPE  C31045296   6.377   6.440   8.965
   89PPPE  H10X45297   6.478   6.465   8.926
   89PPPE  H10Y45298   6.355   6.332   8.944
   89PPPE  C31145299   6.375   6.453   9.118
   89PPPE  H11X45300   6.354   6.558   9.144
   89PPPE  H11Y45301   6.476   6.424   9.155
   89PPPE  C31245302   6.265   6.369   9.186
   89PPPE  H12X45303   6.272   6.261   9.160
   89PPPE  H12Y45304   6.167   6.408   9.152
   89PPPE  C31345305   6.269   6.382   9.337
   89PPPE  H13X45306   6.170   6.362   9.385
   89PPPE  H13Y45307   6.294   6.486   9.367
   89PPPE  C31445308   6.375   6.286   9.390
   89PPPE  H14X45309   6.476   6.326   9.372
   89PPPE  H14Y45310   6.370   6.187   9.341
   89PPPE  C31545311   6.352   6.258   9.532
   89PPPE  H15X45312   6.420   6.183   9.575
   89PPPE  H15Y45313   6.246   6.235   9.560
   89PPPE  C31645314   6.363   6.371   9.608
   89PPPE  H16X45315   6.344   6.339   9.714
   89PPPE  H16Y45316   6.463   6.416   9.604
   89PPPE  H16Z45317   6.297   6.449   9.573
   90PPPE     N45318   4.153   7.086   8.084
   90PPPE   HN145319   4.098   7.149   8.021
   90PPPE   HN245320   4.092   7.021   8.136
   90PPPE   HN345321   4.212   7.144   8.148
   90PPPE   C1245322   4.237   7.007   7.989
   90PPPE  H12A45323   4.173   6.928   7.944
   90PPPE  H12B45324   4.319   6.959   8.046
   90PPPE   C1145325   4.289   7.107   7.884
   90PPPE  H11A45326   4.347   7.052   7.808
   90PPPE  H11B45327   4.356   7.179   7.936
   90PPPE     P45328   4.223   7.307   7.736
   90PPPE   O1345329   4.362   7.286   7.688
   90PPPE   O1445330   4.115   7.340   7.641
   90PPPE   O1145331   4.223   7.415   7.855
   90PPPE   O1245332   4.182   7.175   7.819
   90PPPE    C145333   4.100   7.448   7.922
   90PPPE    HA45334   4.077   7.366   7.993
   90PPPE    HB45335   4.016   7.452   7.848
   90PPPE    C245336   4.107   7.582   8.004
   90PPPE    HS45337   4.113   7.667   7.932
   90PPPE   O2145338   4.222   7.576   8.088
   90PPPE   C2145339   4.262   7.691   8.139
   90PPPE   O2245340   4.230   7.802   8.104
   90PPPE   C2245341   4.379   7.655   8.224
   90PPPE   H2R45342   4.417   7.751   8.266
   90PPPE   H2S45343   4.436   7.608   8.141
   90PPPE    C345344   3.985   7.616   8.093
   90PPPE    HX45345   3.995   7.718   8.137
   90PPPE    HY45346   3.898   7.620   8.024
   90PPPE   O3145347   3.963   7.515   8.194
   90PPPE   C3145348   4.017   7.538   8.314
   90PPPE   O3245349   4.078   7.637   8.348
   90PPPE   C3245350   3.985   7.415   8.400
   90PPPE   H2X45351   4.069   7.345   8.392
   90PPPE   H2Y45352   3.890   7.372   8.359
   90PPPE   C2345353   4.371   7.543   8.328
   90PPPE   H3R45354   4.340   7.452   8.273
   90PPPE   H3S45355   4.296   7.575   8.401
   90PPPE   C2445356   4.495   7.506   8.412
   90PPPE   H4R45357   4.585   7.498   8.348
   90PPPE   H4S45358   4.477   7.405   8.454
   90PPPE   C2545359   4.517   7.590   8.538
   90PPPE   H5R45360   4.463   7.683   8.521
   90PPPE   H5S45361   4.626   7.604   8.552
   90PPPE   C2645362   4.475   7.534   8.674
   90PPPE   H6R45363   4.529   7.439   8.681
   90PPPE   H6S45364   4.365   7.532   8.673
   90PPPE   C2745365   4.514   7.618   8.795
   90PPPE   H7R45366   4.443   7.700   8.797
   90PPPE   H7S45367   4.618   7.637   8.775
   90PPPE   C2845368   4.533   7.572   8.939
   90PPPE   H8R45369   4.565   7.656   9.006
   90PPPE   H8S45370   4.616   7.500   8.935
   90PPPE   C2945371   4.404   7.515   8.981
   90PPPE   H9145372   4.387   7.418   8.935
   90PPPE  C21045373   4.320   7.562   9.074
   90PPPE  H10145374   4.224   7.510   9.082
   90PPPE  C21145375   4.334   7.684   9.163
   90PPPE  H11R45376   4.246   7.751   9.153
   90PPPE  H11S45377   4.424   7.743   9.149
   90PPPE  C21245378   4.355   7.658   9.311
   90PPPE  H12R45379   4.283   7.580   9.340
   90PPPE  H12S45380   4.321   7.749   9.364
   90PPPE  C21345381   4.494   7.611   9.356
   90PPPE  H13R45382   4.579   7.681   9.363
   90PPPE  H13S45383   4.535   7.538   9.284
   90PPPE  C21445384   4.468   7.555   9.496
   90PPPE  H14R45385   4.549   7.513   9.559
   90PPPE  H14S45386   4.396   7.475   9.495
   90PPPE  C21545387   4.457   7.660   9.591
   90PPPE  H15R45388   4.403   7.746   9.557
   90PPPE  H15S45389   4.558   7.700   9.565
   90PPPE  C21645390   4.428   7.617   9.740
   90PPPE  H16R45391   4.497   7.648   9.822
   90PPPE  H16S45392   4.337   7.667   9.771
   90PPPE  H16T45393   4.443   7.507   9.749
   90PPPE   C3345394   3.957   7.439   8.549
   90PPPE   H3X45395   3.872   7.376   8.583
   90PPPE   H3Y45396   3.922   7.539   8.551
   90PPPE   C3445397   4.078   7.437   8.641
   90PPPE   H4X45398   4.159   7.500   8.598
   90PPPE   H4Y45399   4.113   7.332   8.648
   90PPPE   C3545400   4.046   7.489   8.782
   90PPPE   H5X45401   4.030   7.599   8.781
   90PPPE   H5Y45402   4.136   7.473   8.846
   90PPPE   C3645403   3.921   7.419   8.838
   90PPPE   H6X45404   3.926   7.309   8.832
   90PPPE   H6Y45405   3.827   7.452   8.787
   90PPPE   C3745406   3.900   7.449   8.981
   90PPPE   H7X45407   3.986   7.436   9.051
   90PPPE   H7Y45408   3.810   7.391   9.017
   90PPPE   C3845409   3.872   7.591   8.993
   90PPPE   H8X45410   3.782   7.607   8.924
   90PPPE   H8Y45411   3.947   7.672   8.981
   90PPPE   C3945412   3.839   7.585   9.135
   90PPPE   H9X45413   3.765   7.512   9.168
   90PPPE   H9Y45414   3.750   7.642   9.094
   90PPPE  C31045415   3.953   7.633   9.248
   90PPPE  H10X45416   4.015   7.722   9.228
   90PPPE  H10Y45417   4.018   7.545   9.252
   90PPPE  C31145418   3.931   7.677   9.401
   90PPPE  H11X45419   3.851   7.746   9.443
   90PPPE  H11Y45420   3.994   7.751   9.450
   90PPPE  C31245421   3.903   7.548   9.459
   90PPPE  H12X45422   3.834   7.473   9.421
   90PPPE  H12Y45423   3.819   7.587   9.513
   90PPPE  C31345424   4.035   7.495   9.511
   90PPPE  H13X45425   4.085   7.552   9.593
   90PPPE  H13Y45426   4.102   7.473   9.427
   90PPPE  C31445427   4.032   7.356   9.551
   90PPPE  H14X45428   3.952   7.290   9.512
   90PPPE  H14Y45429   3.975   7.378   9.642
   90PPPE  C31545430   4.185   7.299   9.561
   90PPPE  H15X45431   4.222   7.290   9.460
   90PPPE  H15Y45432   4.208   7.191   9.583
   90PPPE  C31645433   4.276   7.350   9.674
   90PPPE  H16X45434   4.378   7.304   9.670
   90PPPE  H16Y45435   4.261   7.456   9.696
   90PPPE  H16Z45436   4.255   7.313   9.773
   91PPPE     N45437   3.178   1.216   7.579
   91PPPE   HN145438   3.147   1.294   7.518
   91PPPE   HN245439   3.279   1.223   7.604
   91PPPE   HN345440   3.162   1.126   7.529
   91PPPE   C1245441   3.097   1.213   7.705
   91PPPE  H12A45442   2.991   1.199   7.675
   91PPPE  H12B45443   3.108   1.312   7.755
   91PPPE   C1145444   3.139   1.100   7.800
   91PPPE  H11A45445   3.118   1.000   7.754
   91PPPE  H11B45446   3.070   1.113   7.887
   91PPPE     P45447   3.346   0.986   7.914
   91PPPE   O1345448   3.284   0.858   7.871
   91PPPE   O1445449   3.493   0.993   7.895
   91PPPE   O1145450   3.315   1.007   8.066
   91PPPE   O1245451   3.275   1.110   7.840
   91PPPE    C145452   3.235   0.925   8.149
   91PPPE    HA45453   3.300   0.849   8.197
   91PPPE    HB45454   3.155   0.869   8.094
   91PPPE    C245455   3.165   1.014   8.256
   91PPPE    HS45456   3.094   1.078   8.199
   91PPPE   O2145457   3.266   1.092   8.324
   91PPPE   C2145458   3.295   1.207   8.264
   91PPPE   O2245459   3.222   1.267   8.187
   91PPPE   C2245460   3.435   1.256   8.308
   91PPPE   H2R45461   3.425   1.360   8.345
   91PPPE   H2S45462   3.498   1.255   8.217
   91PPPE    C345463   3.083   0.936   8.363
   91PPPE    HX45464   3.028   1.010   8.425
   91PPPE    HY45465   3.003   0.873   8.317
   91PPPE   O3145466   3.170   0.863   8.453
   91PPPE   C3145467   3.192   0.736   8.425
   91PPPE   O3245468   3.139   0.674   8.334
   91PPPE   C3245469   3.297   0.678   8.522
   91PPPE   H2X45470   3.397   0.717   8.493
   91PPPE   H2Y45471   3.297   0.568   8.508
   91PPPE   C2345472   3.500   1.172   8.422
   91PPPE   H3R45473   3.608   1.199   8.430
   91PPPE   H3S45474   3.497   1.064   8.394
   91PPPE   C2445475   3.431   1.197   8.557
   91PPPE   H4R45476   3.321   1.185   8.542
   91PPPE   H4S45477   3.447   1.303   8.588
   91PPPE   C2545478   3.470   1.104   8.672
   91PPPE   H5R45479   3.561   1.145   8.721
   91PPPE   H5S45480   3.490   1.003   8.633
   91PPPE   C2645481   3.358   1.088   8.775
   91PPPE   H6R45482   3.382   1.004   8.845
   91PPPE   H6S45483   3.265   1.059   8.721
   91PPPE   C2745484   3.345   1.216   8.858
   91PPPE   H7R45485   3.327   1.306   8.795
   91PPPE   H7S45486   3.442   1.226   8.911
   91PPPE   C2845487   3.245   1.211   8.970
   91PPPE   H8R45488   3.242   1.308   9.024
   91PPPE   H8S45489   3.279   1.128   9.037
   91PPPE   C2945490   3.112   1.176   8.919
   91PPPE   H9145491   3.065   1.239   8.841
   91PPPE  C21045492   3.032   1.112   8.999
   91PPPE  H10145493   2.934   1.099   8.952
   91PPPE  C21145494   3.055   1.071   9.146
   91PPPE  H11R45495   2.979   1.104   9.219
   91PPPE  H11S45496   3.142   1.121   9.193
   91PPPE  C21245497   3.060   0.920   9.158
   91PPPE  H12R45498   3.110   0.884   9.066
   91PPPE  H12S45499   2.958   0.877   9.169
   91PPPE  C21345500   3.144   0.872   9.274
   91PPPE  H13R45501   3.250   0.903   9.261
   91PPPE  H13S45502   3.140   0.760   9.271
   91PPPE  C21445503   3.088   0.917   9.406
   91PPPE  H14R45504   2.977   0.901   9.407
   91PPPE  H14S45505   3.110   1.023   9.429
   91PPPE  C21545506   3.160   0.847   9.518
   91PPPE  H15R45507   3.267   0.829   9.507
   91PPPE  H15S45508   3.125   0.741   9.500
   91PPPE  C21645509   3.134   0.922   9.654
   91PPPE  H16R45510   3.165   0.863   9.745
   91PPPE  H16S45511   3.139   1.028   9.670
   91PPPE  H16T45512   3.025   0.929   9.660
   91PPPE   C3345513   3.270   0.711   8.671
   91PPPE   H3X45514   3.170   0.670   8.699
   91PPPE   H3Y45515   3.270   0.822   8.682
   91PPPE   C3445516   3.370   0.658   8.773
   91PPPE   H4X45517   3.462   0.720   8.767
   91PPPE   H4Y45518   3.396   0.551   8.755
   91PPPE   C3545519   3.317   0.654   8.917
   91PPPE   H5X45520   3.220   0.601   8.919
   91PPPE   H5Y45521   3.301   0.758   8.953
   91PPPE   C3645522   3.409   0.570   9.007
   91PPPE   H6X45523   3.422   0.470   8.961
   91PPPE   H6Y45524   3.366   0.558   9.109
   91PPPE   C3745525   3.542   0.635   9.033
   91PPPE   H7X45526   3.587   0.662   8.936
   91PPPE   H7Y45527   3.612   0.566   9.085
   91PPPE   C3845528   3.523   0.755   9.124
   91PPPE   H8X45529   3.484   0.729   9.222
   91PPPE   H8Y45530   3.462   0.838   9.077
   91PPPE   C3945531   3.660   0.801   9.153
   91PPPE   H9X45532   3.644   0.867   9.068
   91PPPE   H9Y45533   3.741   0.727   9.137
   91PPPE  C31045534   3.694   0.904   9.253
   91PPPE  H10X45535   3.805   0.919   9.244
   91PPPE  H10Y45536   3.686   0.863   9.352
   91PPPE  C31145537   3.608   1.028   9.224
   91PPPE  H11X45538   3.554   1.033   9.127
   91PPPE  H11Y45539   3.685   1.092   9.202
   91PPPE  C31245540   3.525   1.085   9.337
   91PPPE  H12X45541   3.587   1.093   9.429
   91PPPE  H12Y45542   3.451   1.004   9.348
   91PPPE  C31345543   3.457   1.222   9.315
   91PPPE  H13X45544   3.414   1.226   9.212
   91PPPE  H13Y45545   3.528   1.307   9.324
   91PPPE  C31445546   3.343   1.251   9.416
   91PPPE  H14X45547   3.256   1.194   9.377
   91PPPE  H14Y45548   3.316   1.359   9.409
   91PPPE  C31545549   3.370   1.218   9.565
   91PPPE  H15X45550   3.402   1.113   9.579
   91PPPE  H15Y45551   3.274   1.226   9.621
   91PPPE  C31645552   3.473   1.311   9.632
   91PPPE  H16X45553   3.454   1.326   9.740
   91PPPE  H16Y45554   3.577   1.272   9.619
   91PPPE  H16Z45555   3.469   1.411   9.585
   92PPPE     N45556   5.405   6.871   8.057
   92PPPE   HN145557   5.351   6.834   8.139
   92PPPE   HN245558   5.507   6.854   8.069
   92PPPE   HN345559   5.393   6.974   8.045
   92PPPE   C1245560   5.371   6.793   7.933
   92PPPE  H12A45561   5.290   6.845   7.876
   92PPPE  H12B45562   5.330   6.696   7.968
   92PPPE   C1145563   5.502   6.772   7.855
   92PPPE  H11A45564   5.482   6.721   7.758
   92PPPE  H11B45565   5.566   6.706   7.917
   92PPPE     P45566   5.722   6.898   7.775
   92PPPE   O1345567   5.818   6.833   7.867
   92PPPE   O1445568   5.710   6.842   7.640
   92PPPE   O1145569   5.738   7.053   7.763
   92PPPE   O1245570   5.573   6.893   7.837
   92PPPE    C145571   5.679   7.143   7.854
   92PPPE    HA45572   5.577   7.113   7.885
   92PPPE    HB45573   5.664   7.239   7.799
   92PPPE    C245574   5.775   7.161   7.973
   92PPPE    HS45575   5.878   7.169   7.929
   92PPPE   O2145576   5.762   7.046   8.061
   92PPPE   C2145577   5.863   7.027   8.144
   92PPPE   O2245578   5.959   7.101   8.157
   92PPPE   C2245579   5.842   6.901   8.232
   92PPPE   H2R45580   5.900   6.917   8.326
   92PPPE   H2S45581   5.890   6.816   8.179
   92PPPE    C345582   5.743   7.291   8.048
   92PPPE    HX45583   5.819   7.308   8.128
   92PPPE    HY45584   5.745   7.378   7.982
   92PPPE   O3145585   5.610   7.280   8.095
   92PPPE   C3145586   5.594   7.337   8.208
   92PPPE   O3245587   5.671   7.405   8.272
   92PPPE   C3245588   5.458   7.305   8.248
   92PPPE   H2X45589   5.411   7.220   8.197
   92PPPE   H2Y45590   5.406   7.393   8.207
   92PPPE   C2345591   5.695   6.862   8.263
   92PPPE   H3R45592   5.639   6.874   8.168
   92PPPE   H3S45593   5.653   6.934   8.336
   92PPPE   C2445594   5.672   6.715   8.304
   92PPPE   H4R45595   5.686   6.653   8.213
   92PPPE   H4S45596   5.566   6.700   8.335
   92PPPE   C2545597   5.769   6.661   8.410
   92PPPE   H5R45598   5.873   6.680   8.377
   92PPPE   H5S45599   5.761   6.551   8.419
   92PPPE   C2645600   5.751   6.727   8.548
   92PPPE   H6R45601   5.645   6.760   8.554
   92PPPE   H6S45602   5.821   6.812   8.560
   92PPPE   C2745603   5.775   6.636   8.668
   92PPPE   H7R45604   5.872   6.583   8.669
   92PPPE   H7S45605   5.704   6.557   8.662
   92PPPE   C2845606   5.713   6.685   8.798
   92PPPE   H8R45607   5.702   6.604   8.873
   92PPPE   H8S45608   5.609   6.717   8.772
   92PPPE   C2945609   5.795   6.798   8.846
   92PPPE   H9145610   5.782   6.889   8.786
   92PPPE  C21045611   5.872   6.802   8.955
   92PPPE  H10145612   5.921   6.897   8.978
   92PPPE  C21145613   5.893   6.693   9.058
   92PPPE  H11R45614   6.002   6.672   9.074
   92PPPE  H11S45615   5.847   6.596   9.029
   92PPPE  C21245616   5.832   6.735   9.192
   92PPPE  H12R45617   5.824   6.645   9.256
   92PPPE  H12S45618   5.728   6.773   9.178
   92PPPE  C21345619   5.914   6.844   9.262
   92PPPE  H13R45620   5.918   6.937   9.201
   92PPPE  H13S45621   6.019   6.809   9.276
   92PPPE  C21445622   5.855   6.883   9.397
   92PPPE  H14R45623   5.745   6.894   9.392
   92PPPE  H14S45624   5.898   6.982   9.424
   92PPPE  C21545625   5.894   6.789   9.510
   92PPPE  H15R45626   6.004   6.770   9.507
   92PPPE  H15S45627   5.843   6.690   9.502
   92PPPE  C21645628   5.853   6.855   9.640
   92PPPE  H16R45629   5.846   6.777   9.713
   92PPPE  H16S45630   5.922   6.933   9.678
   92PPPE  H16T45631   5.751   6.896   9.635
   92PPPE   C3345632   5.457   7.276   8.396
   92PPPE   H3X45633   5.350   7.249   8.394
   92PPPE   H3Y45634   5.485   7.362   8.464
   92PPPE   C3445635   5.523   7.147   8.443
   92PPPE   H4X45636   5.631   7.166   8.436
   92PPPE   H4Y45637   5.486   7.064   8.379
   92PPPE   C3545638   5.492   7.105   8.587
   92PPPE   H5X45639   5.443   7.190   8.630
   92PPPE   H5Y45640   5.584   7.079   8.644
   92PPPE   C3645641   5.385   6.998   8.603
   92PPPE   H6X45642   5.423   6.909   8.549
   92PPPE   H6Y45643   5.288   7.034   8.561
   92PPPE   C3745644   5.369   6.949   8.745
   92PPPE   H7X45645   5.467   6.905   8.775
   92PPPE   H7Y45646   5.287   6.876   8.758
   92PPPE   C3845647   5.341   7.052   8.848
   92PPPE   H8X45648   5.249   7.111   8.825
   92PPPE   H8Y45649   5.430   7.119   8.848
   92PPPE   C3945650   5.315   6.979   8.980
   92PPPE   H9X45651   5.228   6.914   8.977
   92PPPE   H9Y45652   5.265   7.050   9.041
   92PPPE  C31045653   5.442   6.925   9.050
   92PPPE  H10X45654   5.528   6.996   9.061
   92PPPE  H10Y45655   5.480   6.847   8.983
   92PPPE  C31145656   5.419   6.869   9.189
   92PPPE  H11X45657   5.516   6.835   9.232
   92PPPE  H11Y45658   5.355   6.778   9.181
   92PPPE  C31245659   5.359   6.965   9.291
   92PPPE  H12X45660   5.254   6.993   9.266
   92PPPE  H12Y45661   5.420   7.055   9.312
   92PPPE  C31345662   5.361   6.895   9.423
   92PPPE  H13X45663   5.444   6.823   9.420
   92PPPE  H13Y45664   5.266   6.835   9.418
   92PPPE  C31445665   5.390   6.994   9.543
   92PPPE  H14X45666   5.288   7.028   9.524
   92PPPE  H14Y45667   5.473   7.061   9.518
   92PPPE  C31545668   5.400   6.969   9.700
   92PPPE  H15X45669   5.422   7.044   9.775
   92PPPE  H15Y45670   5.495   6.903   9.705
   92PPPE  C31645671   5.263   6.917   9.761
   92PPPE  H16X45672   5.171   6.920   9.713
   92PPPE  H16Y45673   5.205   6.834   9.746
   92PPPE  H16Z45674   5.225   6.854   9.839
   93PPPE     N45675   7.077   3.580   7.635
   93PPPE   HN145676   7.024   3.669   7.639
   93PPPE   HN245677   7.179   3.600   7.622
   93PPPE   HN345678   7.047   3.518   7.559
   93PPPE   C1245679   7.055   3.507   7.765
   93PPPE  H12A45680   6.953   3.463   7.760
   93PPPE  H12B45681   7.057   3.580   7.848
   93PPPE   C1145682   7.159   3.397   7.787
   93PPPE  H11A45683   7.143   3.318   7.711
   93PPPE  H11B45684   7.143   3.349   7.887
   93PPPE     P45685   7.363   3.508   7.898
   93PPPE   O1345686   7.496   3.558   7.862
   93PPPE   O1445687   7.268   3.602   7.961
   93PPPE   O1145688   7.377   3.383   7.990
   93PPPE   O1245689   7.291   3.447   7.770
   93PPPE    C145690   7.435   3.265   7.936
   93PPPE    HA45691   7.524   3.284   7.871
   93PPPE    HB45692   7.359   3.209   7.876
   93PPPE    C245693   7.477   3.181   8.057
   93PPPE    HS45694   7.500   3.079   8.010
   93PPPE   O2145695   7.378   3.191   8.167
   93PPPE   C2145696   7.344   3.073   8.209
   93PPPE   O2245697   7.344   2.981   8.132
   93PPPE   C2245698   7.301   3.049   8.354
   93PPPE   H2R45699   7.344   2.958   8.405
   93PPPE   H2S45700   7.195   3.024   8.329
   93PPPE    C345701   7.608   3.233   8.116
   93PPPE    HX45702   7.659   3.156   8.179
   93PPPE    HY45703   7.676   3.259   8.032
   93PPPE   O3145704   7.573   3.350   8.191
   93PPPE   C3145705   7.644   3.377   8.295
   93PPPE   O3245706   7.736   3.310   8.341
   93PPPE   C3245707   7.601   3.514   8.345
   93PPPE   H2X45708   7.507   3.505   8.403
   93PPPE   H2Y45709   7.577   3.576   8.255
   93PPPE   C2345710   7.337   3.140   8.464
   93PPPE   H3R45711   7.250   3.133   8.533
   93PPPE   H3S45712   7.346   3.237   8.413
   93PPPE   C2445713   7.462   3.084   8.534
   93PPPE   H4R45714   7.544   3.065   8.460
   93PPPE   H4S45715   7.438   2.987   8.584
   93PPPE   C2545716   7.517   3.180   8.635
   93PPPE   H5R45717   7.503   3.282   8.592
   93PPPE   H5S45718   7.626   3.161   8.648
   93PPPE   C2645719   7.445   3.165   8.769
   93PPPE   H6R45720   7.472   3.064   8.809
   93PPPE   H6S45721   7.335   3.158   8.755
   93PPPE   C2745722   7.478   3.279   8.867
   93PPPE   H7R45723   7.414   3.269   8.959
   93PPPE   H7S45724   7.447   3.376   8.824
   93PPPE   C2845725   7.626   3.291   8.903
   93PPPE   H8R45726   7.646   3.391   8.948
   93PPPE   H8S45727   7.697   3.278   8.818
   93PPPE   C2945728   7.626   3.187   9.007
   93PPPE   H9145729   7.616   3.081   8.976
   93PPPE  C21045730   7.673   3.208   9.127
   93PPPE  H10145731   7.688   3.115   9.176
   93PPPE  C21145732   7.738   3.330   9.182
   93PPPE  H11R45733   7.803   3.374   9.104
   93PPPE  H11S45734   7.800   3.320   9.272
   93PPPE  C21245735   7.642   3.422   9.245
   93PPPE  H12R45736   7.569   3.438   9.164
   93PPPE  H12S45737   7.702   3.512   9.269
   93PPPE  C21345738   7.576   3.368   9.373
   93PPPE  H13R45739   7.547   3.261   9.362
   93PPPE  H13S45740   7.491   3.435   9.394
   93PPPE  C21445741   7.661   3.379   9.496
   93PPPE  H14R45742   7.708   3.478   9.508
   93PPPE  H14S45743   7.734   3.307   9.461
   93PPPE  C21545744   7.600   3.341   9.630
   93PPPE  H15R45745   7.528   3.416   9.661
   93PPPE  H15S45746   7.680   3.336   9.709
   93PPPE  C21645747   7.522   3.213   9.631
   93PPPE  H16R45748   7.461   3.192   9.721
   93PPPE  H16S45749   7.494   3.165   9.536
   93PPPE  H16T45750   7.591   3.142   9.658
   93PPPE   C3345751   7.712   3.575   8.434
   93PPPE   H3X45752   7.810   3.572   8.380
   93PPPE   H3Y45753   7.723   3.514   8.526
   93PPPE   C3445754   7.685   3.722   8.466
   93PPPE   H4X45755   7.668   3.771   8.367
   93PPPE   H4Y45756   7.777   3.767   8.511
   93PPPE   C3545757   7.568   3.745   8.562
   93PPPE   H5X45758   7.484   3.674   8.545
   93PPPE   H5Y45759   7.529   3.849   8.553
   93PPPE   C3645760   7.616   3.726   8.705
   93PPPE   H6X45761   7.682   3.814   8.725
   93PPPE   H6Y45762   7.680   3.635   8.713
   93PPPE   C3745763   7.497   3.718   8.801
   93PPPE   H7X45764   7.443   3.622   8.788
   93PPPE   H7Y45765   7.428   3.802   8.776
   93PPPE   C3845766   7.541   3.722   8.947
   93PPPE   H8X45767   7.613   3.805   8.958
   93PPPE   H8Y45768   7.595   3.627   8.967
   93PPPE   C3945769   7.426   3.738   9.050
   93PPPE   H9X45770   7.375   3.835   9.032
   93PPPE   H9Y45771   7.475   3.746   9.149
   93PPPE  C31045772   7.320   3.623   9.052
   93PPPE  H10X45773   7.374   3.526   9.041
   93PPPE  H10Y45774   7.250   3.633   8.966
   93PPPE  C31145775   7.235   3.609   9.180
   93PPPE  H11X45776   7.158   3.690   9.179
   93PPPE  H11Y45777   7.299   3.619   9.271
   93PPPE  C31245778   7.162   3.473   9.184
   93PPPE  H12X45779   7.238   3.395   9.164
   93PPPE  H12Y45780   7.089   3.471   9.099
   93PPPE  C31345781   7.090   3.443   9.316
   93PPPE  H13X45782   7.019   3.357   9.309
   93PPPE  H13Y45783   7.033   3.534   9.345
   93PPPE  C31445784   7.187   3.408   9.429
   93PPPE  H14X45785   7.257   3.495   9.444
   93PPPE  H14Y45786   7.247   3.318   9.410
   93PPPE  C31545787   7.121   3.369   9.558
   93PPPE  H15X45788   7.051   3.285   9.560
   93PPPE  H15Y45789   7.042   3.443   9.574
   93PPPE  C31645790   7.231   3.352   9.663
   93PPPE  H16X45791   7.289   3.448   9.674
   93PPPE  H16Y45792   7.188   3.321   9.761
   93PPPE  H16Z45793   7.303   3.276   9.647
   94PPPE     N45794   6.792   5.808   7.563
   94PPPE   HN145795   6.777   5.707   7.586
   94PPPE   HN245796   6.718   5.865   7.611
   94PPPE   HN345797   6.783   5.818   7.459
   94PPPE   C1245798   6.931   5.843   7.611
   94PPPE  H12A45799   6.936   5.953   7.624
   94PPPE  H12B45800   7.003   5.812   7.533
   94PPPE   C1145801   6.969   5.769   7.741
   94PPPE  H11A45802   7.071   5.797   7.771
   94PPPE  H11B45803   6.975   5.661   7.725
   94PPPE     P45804   6.850   5.694   7.959
   94PPPE   O1345805   6.731   5.735   8.035
   94PPPE   O1445806   6.851   5.560   7.895
   94PPPE   O1145807   6.982   5.707   8.046
   94PPPE   O1245808   6.875   5.801   7.842
   94PPPE    C145809   7.052   5.831   8.060
   94PPPE    HA45810   6.988   5.920   8.041
   94PPPE    HB45811   7.133   5.835   7.984
   94PPPE    C245812   7.118   5.847   8.201
   94PPPE    HS45813   7.203   5.918   8.188
   94PPPE   O2145814   7.164   5.719   8.246
   94PPPE   C2145815   7.263   5.712   8.333
   94PPPE   O2245816   7.340   5.799   8.367
   94PPPE   C2245817   7.255   5.575   8.395
   94PPPE   H2R45818   7.322   5.574   8.484
   94PPPE   H2S45819   7.290   5.498   8.323
   94PPPE    C345820   7.017   5.911   8.303
   94PPPE    HX45821   6.940   5.966   8.245
   94PPPE    HY45822   6.965   5.831   8.361
   94PPPE   O3145823   7.081   6.007   8.387
   94PPPE   C3145824   7.011   6.045   8.495
   94PPPE   O3245825   6.912   5.992   8.540
   94PPPE   C3245826   7.077   6.163   8.560
   94PPPE   H2X45827   7.003   6.233   8.599
   94PPPE   H2Y45828   7.146   6.212   8.487
   94PPPE   C2345829   7.108   5.553   8.437
   94PPPE   H3R45830   7.092   5.444   8.449
   94PPPE   H3S45831   7.030   5.573   8.363
   94PPPE   C2445832   7.086   5.633   8.567
   94PPPE   H4R45833   7.113   5.740   8.558
   94PPPE   H4S45834   7.160   5.606   8.643
   94PPPE   C2545835   6.944   5.616   8.616
   94PPPE   H5R45836   6.925   5.511   8.647
   94PPPE   H5S45837   6.879   5.645   8.531
   94PPPE   C2645838   6.914   5.709   8.731
   94PPPE   H6R45839   6.960   5.806   8.705
   94PPPE   H6S45840   6.958   5.669   8.826
   94PPPE   C2745841   6.764   5.732   8.746
   94PPPE   H7R45842   6.737   5.630   8.759
   94PPPE   H7S45843   6.710   5.773   8.657
   94PPPE   C2845844   6.717   5.797   8.871
   94PPPE   H8R45845   6.738   5.750   8.969
   94PPPE   H8S45846   6.605   5.809   8.865
   94PPPE   C2945847   6.803   5.916   8.848
   94PPPE   H9145848   6.760   5.988   8.774
   94PPPE  C21045849   6.899   5.963   8.927
   94PPPE  H10145850   6.910   6.076   8.919
   94PPPE  C21145851   6.951   5.912   9.057
   94PPPE  H11R45852   7.052   5.950   9.047
   94PPPE  H11S45853   6.960   6.011   9.061
   94PPPE  C21245854   6.928   5.957   9.206
   94PPPE  H12R45855   6.996   5.899   9.270
   94PPPE  H12S45856   6.828   5.920   9.234
   94PPPE  C21345857   6.966   6.111   9.229
   94PPPE  H13R45858   6.905   6.194   9.180
   94PPPE  H13S45859   7.064   6.151   9.210
   94PPPE  C21445860   6.946   6.140   9.367
   94PPPE  H14R45861   6.871   6.063   9.398
   94PPPE  H14S45862   6.919   6.249   9.362
   94PPPE  C21545863   7.038   6.098   9.471
   94PPPE  H15R45864   7.135   6.098   9.431
   94PPPE  H15S45865   7.015   5.986   9.474
   94PPPE  C21645866   7.028   6.177   9.603
   94PPPE  H16R45867   6.998   6.281   9.627
   94PPPE  H16S45868   6.927   6.181   9.619
   94PPPE  H16T45869   7.081   6.141   9.697
   94PPPE   C3345870   7.145   6.109   8.683
   94PPPE   H3X45871   7.098   6.037   8.753
   94PPPE   H3Y45872   7.190   6.195   8.742
   94PPPE   C3445873   7.243   6.016   8.625
   94PPPE   H4X45874   7.286   6.092   8.553
   94PPPE   H4Y45875   7.237   5.941   8.548
   94PPPE   C3545876   7.322   5.953   8.740
   94PPPE   H5X45877   7.322   6.055   8.787
   94PPPE   H5Y45878   7.420   5.903   8.714
   94PPPE   C3645879   7.297   5.883   8.865
   94PPPE   H6X45880   7.263   5.797   8.804
   94PPPE   H6Y45881   7.229   5.951   8.922
   94PPPE   C3745882   7.419   5.842   8.951
   94PPPE   H7X45883   7.505   5.910   8.973
   94PPPE   H7Y45884   7.471   5.757   8.905
   94PPPE   C3845885   7.360   5.815   9.086
   94PPPE   H8X45886   7.303   5.901   9.128
   94PPPE   H8Y45887   7.441   5.793   9.153
   94PPPE   C3945888   7.280   5.691   9.088
   94PPPE   H9X45889   7.351   5.602   9.102
   94PPPE   H9Y45890   7.212   5.689   9.004
   94PPPE  C31045891   7.163   5.710   9.181
   94PPPE  H10X45892   7.198   5.797   9.261
   94PPPE  H10Y45893   7.250   5.680   9.236
   94PPPE  C31145894   7.040   5.589   9.123
   94PPPE  H11X45895   7.087   5.477   9.091
   94PPPE  H11Y45896   6.944   5.637   9.179
   94PPPE  C31245897   6.959   5.462   9.183
   94PPPE  H12X45898   6.890   5.383   9.121
   94PPPE  H12Y45899   6.867   5.484   9.105
   94PPPE  C31345900   7.043   5.486   9.350
   94PPPE  H13X45901   7.150   5.522   9.286
   94PPPE  H13Y45902   7.160   5.487   9.305
   94PPPE  C31445903   7.063   5.458   9.615
   94PPPE  H14X45904   7.195   5.452   9.662
   94PPPE  H14Y45905   7.084   5.368   9.667
   94PPPE  C31545906   7.070   5.549   9.766
   94PPPE  H15X45907   7.024   5.490   9.845
   94PPPE  H15Y45908   7.009   5.630   9.735
   94PPPE  C31645909   7.166   5.626   9.876
   94PPPE  H16X45910   7.266   5.606   9.915
   94PPPE  H16Y45911   7.229   5.688   9.821
   94PPPE  H16Z45912   7.109   5.699   9.940
   95PPPE     N45913   0.840   2.592   7.795
   95PPPE   HN145914   0.798   2.575   7.888
   95PPPE   HN245915   0.862   2.692   7.780
   95PPPE   HN345916   0.774   2.556   7.722
   95PPPE   C1245917   0.970   2.519   7.783
   95PPPE  H12A45918   1.018   2.554   7.689
   95PPPE  H12B45919   0.946   2.411   7.777
   95PPPE   C1145920   1.059   2.550   7.904
   95PPPE  H11A45921   1.143   2.476   7.900
   95PPPE  H11B45922   1.008   2.529   8.001
   95PPPE     P45923   1.248   2.708   7.832
   95PPPE   O1345924   1.341   2.612   7.897
   95PPPE   O1445925   1.224   2.696   7.688
   95PPPE   O1145926   1.291   2.854   7.863
   95PPPE   O1245927   1.102   2.686   7.901
   95PPPE    C145928   1.210   2.955   7.915
   95PPPE    HA45929   1.114   2.971   7.864
   95PPPE    HB45930   1.269   3.050   7.900
   95PPPE    C245931   1.189   2.933   8.066
   95PPPE    HS45932   1.273   2.984   8.101
   95PPPE   O2145933   1.201   2.799   8.111
   95PPPE   C2145934   1.244   2.775   8.231
   95PPPE   O2245935   1.273   2.850   8.318
   95PPPE   C2245936   1.247   2.633   8.264
   95PPPE   H2R45937   1.340   2.601   8.212
   95PPPE   H2S45938   1.153   2.594   8.228
   95PPPE    C345939   1.051   2.991   8.113
   95PPPE    HX45940   1.065   3.036   8.211
   95PPPE    HY45941   1.029   3.082   8.055
   95PPPE   O3145942   0.944   2.904   8.124
   95PPPE   C3145943   0.893   2.894   8.245
   95PPPE   O3245944   0.894   2.972   8.338
   95PPPE   C3245945   0.845   2.757   8.243
   95PPPE   H2X45946   0.890   2.696   8.162
   95PPPE   H2Y45947   0.744   2.783   8.211
   95PPPE   C2345948   1.248   2.602   8.413
   95PPPE   H3R45949   1.181   2.661   8.481
   95PPPE   H3S45950   1.351   2.619   8.436
   95PPPE   C2445951   1.284   2.462   8.452
   95PPPE   H4R45952   1.375   2.438   8.389
   95PPPE   H4S45953   1.195   2.410   8.416
   95PPPE   C2545954   1.329   2.447   8.599
   95PPPE   H5R45955   1.346   2.544   8.648
   95PPPE   H5S45956   1.429   2.400   8.603
   95PPPE   C2645957   1.230   2.368   8.682
   95PPPE   H6R45958   1.216   2.271   8.629
   95PPPE   H6S45959   1.133   2.423   8.687
   95PPPE   C2745960   1.276   2.330   8.822
   95PPPE   H7R45961   1.375   2.280   8.815
   95PPPE   H7S45962   1.200   2.256   8.858
   95PPPE   C2845963   1.285   2.451   8.916
   95PPPE   H8R45964   1.185   2.498   8.915
   95PPPE   H8S45965   1.358   2.521   8.870
   95PPPE   C2945966   1.328   2.412   9.056
   95PPPE   H9145967   1.382   2.316   9.062
   95PPPE  C21045968   1.319   2.487   9.167
   95PPPE  H10145969   1.359   2.446   9.261
   95PPPE  C21145970   1.265   2.627   9.181
   95PPPE  H11R45971   1.281   2.681   9.084
   95PPPE  H11S45972   1.324   2.685   9.255
   95PPPE  C21245973   1.116   2.641   9.220
   95PPPE  H12R45974   1.055   2.585   9.145
   95PPPE  H12S45975   1.088   2.748   9.208
   95PPPE  C21345976   1.073   2.599   9.363
   95PPPE  H13R45977   1.094   2.492   9.385
   95PPPE  H13S45978   0.962   2.607   9.364
   95PPPE  C21445979   1.114   2.688   9.482
   95PPPE  H14R45980   1.035   2.766   9.491
   95PPPE  H14S45981   1.211   2.740   9.467
   95PPPE  C21545982   1.118   2.609   9.614
   95PPPE  H15R45983   1.161   2.508   9.595
   95PPPE  H15S45984   1.013   2.594   9.648
   95PPPE  C21645985   1.204   2.675   9.722
   95PPPE  H16R45986   1.307   2.687   9.683
   95PPPE  H16S45987   1.168   2.776   9.746
   95PPPE  H16T45988   1.209   2.612   9.814
   95PPPE   C3345989   0.869   2.692   8.379
   95PPPE   H3X45990   0.823   2.757   8.456
   95PPPE   H3Y45991   0.974   2.699   8.411
   95PPPE   C3445992   0.825   2.543   8.377
   95PPPE   H4X45993   0.875   2.486   8.298
   95PPPE   H4Y45994   0.726   2.526   8.332
   95PPPE   C3545995   0.824   2.473   8.514
   95PPPE   H5X45996   0.754   2.512   8.591
   95PPPE   H5Y45997   0.921   2.494   8.561
   95PPPE   C3645998   0.784   2.326   8.496
   95PPPE   H6X45999   0.825   2.288   8.400
   95PPPE   H6Y46000   0.673   2.319   8.484
   95PPPE   C3746001   0.838   2.239   8.609
   95PPPE   H7X46002   0.945   2.263   8.627
   95PPPE   H7Y46003   0.837   2.132   8.578
   95PPPE   C3846004   0.756   2.256   8.739
   95PPPE   H8X46005   0.699   2.164   8.763
   95PPPE   H8Y46006   0.685   2.339   8.722
   95PPPE   C3946007   0.841   2.307   8.855
   95PPPE   H9X46008   0.888   2.403   8.822
   95PPPE   H9Y46009   0.920   2.231   8.872
   95PPPE  C31046010   0.765   2.332   8.987
   95PPPE  H10X46011   0.733   2.233   9.027
   95PPPE  H10Y46012   0.674   2.392   8.974
   95PPPE  C31146013   0.854   2.404   9.089
   95PPPE  H11X46014   0.855   2.514   9.071
   95PPPE  H11Y46015   0.957   2.369   9.068
   95PPPE  C31246016   0.824   2.375   9.237
   95PPPE  H12X46017   0.918   2.397   9.291
   95PPPE  H12Y46018   0.804   2.266   9.251
   95PPPE  C31346019   0.707   2.459   9.292
   95PPPE  H13X46020   0.612   2.418   9.250
   95PPPE  H13Y46021   0.719   2.563   9.252
   95PPPE  C31446022   0.696   2.469   9.445
   95PPPE  H14X46023   0.794   2.502   9.485
   95PPPE  H14Y46024   0.676   2.370   9.492
   95PPPE  C31546025   0.590   2.571   9.491
   95PPPE  H15X46026   0.496   2.523   9.520
   95PPPE  H15Y46027   0.567   2.643   9.409
   95PPPE  C31646028   0.626   2.648   9.616
   95PPPE  H16X46029   0.712   2.715   9.593
   95PPPE  H16Y46030   0.537   2.709   9.646
   95PPPE  H16Z46031   0.650   2.576   9.697
   96PPPE     N46032   5.592   0.937   7.753
   96PPPE   HN146033   5.514   0.874   7.724
   96PPPE   HN246034   5.587   1.023   7.694
   96PPPE   HN346035   5.684   0.888   7.743
   96PPPE   C1246036   5.577   0.974   7.899
   96PPPE  H12A46037   5.672   1.021   7.930
   96PPPE  H12B46038   5.557   0.880   7.953
   96PPPE   C1146039   5.458   1.060   7.936
   96PPPE  H11A46040   5.467   1.167   7.904
   96PPPE  H11B46041   5.451   1.064   8.047
   96PPPE     P46042   5.231   1.077   7.815
   96PPPE   O1346043   5.283   1.109   7.679
   96PPPE   O1446044   5.101   1.011   7.831
   96PPPE   O1146045   5.231   1.213   7.895
   96PPPE   O1246046   5.343   0.993   7.887
   96PPPE    C146047   5.126   1.306   7.863
   96PPPE    HA46048   5.028   1.254   7.847
   96PPPE    HB46049   5.151   1.363   7.771
   96PPPE    C246050   5.106   1.409   7.976
   96PPPE    HS46051   5.046   1.493   7.934
   96PPPE   O2146052   5.234   1.458   8.024
   96PPPE   C2146053   5.227   1.556   8.114
   96PPPE   O2246054   5.130   1.623   8.139
   96PPPE   C2246055   5.359   1.568   8.190
   96PPPE   H2R46056   5.335   1.568   8.298
   96PPPE   H2S46057   5.406   1.665   8.162
   96PPPE    C346058   5.023   1.338   8.089
   96PPPE    HX46059   5.005   1.417   8.164
   96PPPE    HY46060   4.923   1.315   8.048
   96PPPE   O3146061   5.075   1.211   8.138
   96PPPE   C3146062   5.095   1.201   8.269
   96PPPE   O3246063   5.099   1.293   8.346
   96PPPE   C3246064   5.128   1.065   8.325
   96PPPE   H2X46065   5.222   1.043   8.271
   96PPPE   H2Y46066   5.052   0.988   8.302
   96PPPE   C2346067   5.463   1.460   8.164
   96PPPE   H3R46068   5.503   1.481   8.061
   96PPPE   H3S46069   5.422   1.357   8.163
   96PPPE   C2446070   5.581   1.471   8.262
   96PPPE   H4R46071   5.626   1.572   8.274
   96PPPE   H4S46072   5.656   1.422   8.203
   96PPPE   C2546073   5.579   1.394   8.394
   96PPPE   H5R46074   5.685   1.382   8.428
   96PPPE   H5S46075   5.536   1.292   8.382
   96PPPE   C2646076   5.505   1.470   8.503
   96PPPE   H6R46077   5.398   1.474   8.471
   96PPPE   H6S46078   5.544   1.573   8.512
   96PPPE   C2746079   5.519   1.398   8.637
   96PPPE   H7R46080   5.625   1.399   8.670
   96PPPE   H7S46081   5.496   1.291   8.615
   96PPPE   C2846082   5.422   1.449   8.747
   96PPPE   H8R46083   5.418   1.372   8.827
   96PPPE   H8S46084   5.321   1.447   8.699
   96PPPE   C2946085   5.443   1.586   8.811
   96PPPE   H9146086   5.510   1.654   8.756
   96PPPE  C21046087   5.381   1.633   8.921
   96PPPE  H10146088   5.408   1.735   8.953
   96PPPE  C21146089   5.276   1.564   9.008
   96PPPE  H11R46090   5.234   1.477   8.953
   96PPPE  H11S46091   5.192   1.634   9.028
   96PPPE  C21246092   5.310   1.503   9.146
   96PPPE  H12R46093   5.340   1.398   9.132
   96PPPE  H12S46094   5.222   1.511   9.214
   96PPPE  C21346095   5.420   1.577   9.217
   96PPPE  H13R46096   5.387   1.676   9.188
   96PPPE  H13S46097   5.516   1.565   9.164
   96PPPE  C21446098   5.433   1.545   9.367
   96PPPE  H14R46099   5.534   1.580   9.398
   96PPPE  H14S46100   5.426   1.436   9.383
   96PPPE  C21546101   5.341   1.614   9.468
   96PPPE  H15R46102   5.238   1.632   9.432
   96PPPE  H15S46103   5.394   1.709   9.479
   96PPPE  C21646104   5.341   1.561   9.611
   96PPPE  H16R46105   5.322   1.452   9.609
   96PPPE  H16S46106   5.438   1.580   9.659
   96PPPE  H16T46107   5.264   1.614   9.671
   96PPPE   C3346108   5.153   1.090   8.479
   96PPPE   H3X46109   5.084   1.163   8.529
   96PPPE   H3Y46110   5.255   1.133   8.486
   96PPPE   C3446111   5.139   0.967   8.568
   96PPPE   H4X46112   5.179   0.882   8.509
   96PPPE   H4Y46113   5.030   0.949   8.585
   96PPPE   C3546114   5.206   0.971   8.708
   96PPPE   H5X46115   5.314   0.954   8.701
   96PPPE   H5Y46116   5.167   0.888   8.771
   96PPPE   C3646117   5.187   1.096   8.794
   96PPPE   H6X46118   5.227   1.189   8.747
   96PPPE   H6Y46119   5.242   1.077   8.889
   96PPPE   C3746120   5.041   1.106   8.831
   96PPPE   H7X46121   5.003   1.011   8.876
   96PPPE   H7Y46122   4.978   1.136   8.745
   96PPPE   C3846123   5.012   1.211   8.931
   96PPPE   H8X46124   4.902   1.198   8.932
   96PPPE   H8Y46125   5.040   1.308   8.884
   96PPPE   C3946126   5.080   1.193   9.068
   96PPPE   H9X46127   5.186   1.224   9.060
   96PPPE   H9Y46128   5.049   1.094   9.106
   96PPPE  C31046129   5.040   1.285   9.176
   96PPPE  H10X46130   4.932   1.248   9.186
   96PPPE  H10Y46131   5.064   1.390   9.148
   96PPPE  C31146132   5.092   1.304   9.313
   96PPPE  H11X46133   5.027   1.376   9.369
   96PPPE  H11Y46134   5.190   1.346   9.327
   96PPPE  C31246135   5.101   1.168   9.359
   96PPPE  H12X46136   5.060   1.078   9.308
   96PPPE  H12Y46137   4.998   1.150   9.337
   96PPPE  C31346138   5.148   1.177   9.506
   96PPPE  H13X46139   5.094   1.131   9.591
   96PPPE  H13Y46140   5.155   1.279   9.551
   96PPPE  C31446141   5.260   1.094   9.491
   96PPPE  H14X46142   5.317   1.163   9.427
   96PPPE  H14Y46143   5.219   1.002   9.438
   96PPPE  C31546144   5.304   1.065   9.626
   96PPPE  H15X46145   5.216   1.004   9.653
   96PPPE  H15Y46146   5.301   1.148   9.699
   96PPPE  C31646147   5.439   1.002   9.613
   96PPPE  H16X46148   5.507   1.085   9.585
   96PPPE  H16Y46149   5.469   0.954   9.708
   96PPPE  H16Z46150   5.443   0.926   9.532
   97PPPE     N46151   7.060   2.411   7.583
   97PPPE   HN146152   7.144   2.472   7.572
   97PPPE   HN246153   7.070   2.320   7.533
   97PPPE   HN346154   6.975   2.463   7.552
   97PPPE   C1246155   7.047   2.386   7.730
   97PPPE  H12A46156   7.149   2.376   7.774
   97PPPE  H12B46157   6.993   2.291   7.741
   97PPPE   C1146158   6.978   2.506   7.793
   97PPPE  H11A46159   6.927   2.469   7.886
   97PPPE  H11B46160   6.903   2.553   7.727
   97PPPE     P46161   7.037   2.729   7.913
   97PPPE   O1346162   7.158   2.786   7.973
   97PPPE   O1446163   6.950   2.818   7.829
   97PPPE   O1146164   6.947   2.660   8.023
   97PPPE   O1246165   7.077   2.602   7.825
   97PPPE    C146166   6.805   2.677   8.022
   97PPPE    HA46167   6.761   2.595   8.082
   97PPPE    HB46168   6.763   2.670   7.920
   97PPPE    C246169   6.765   2.808   8.094
   97PPPE    HS46170   6.793   2.894   8.027
   97PPPE   O2146171   6.842   2.807   8.215
   97PPPE   C2146172   6.849   2.923   8.271
   97PPPE   O2246173   6.803   3.027   8.224
   97PPPE   C2246174   6.918   2.905   8.410
   97PPPE   H2R46175   6.865   2.954   8.490
   97PPPE   H2S46176   7.012   2.960   8.406
   97PPPE    C346177   6.613   2.810   8.125
   97PPPE    HX46178   6.585   2.908   8.172
   97PPPE    HY46179   6.559   2.808   8.028
   97PPPE   O3146180   6.572   2.691   8.199
   97PPPE   C3146181   6.576   2.711   8.332
   97PPPE   O3246182   6.609   2.813   8.386
   97PPPE   C3246183   6.560   2.589   8.417
   97PPPE   H2X46184   6.655   2.542   8.387
   97PPPE   H2Y46185   6.473   2.526   8.394
   97PPPE   C2346186   6.929   2.764   8.474
   97PPPE   H3R46187   6.990   2.703   8.406
   97PPPE   H3S46188   6.827   2.718   8.480
   97PPPE   C2446189   7.000   2.773   8.611
   97PPPE   H4R46190   6.954   2.840   8.685
   97PPPE   H4S46191   7.100   2.816   8.597
   97PPPE   C2546192   7.016   2.644   8.689
   97PPPE   H5R46193   7.075   2.571   8.631
   97PPPE   H5S46194   6.911   2.613   8.689
   97PPPE   C2646195   7.065   2.670   8.834
   97PPPE   H6R46196   6.980   2.704   8.895
   97PPPE   H6S46197   7.144   2.745   8.845
   97PPPE   C2746198   7.120   2.556   8.912
   97PPPE   H7R46199   7.163   2.590   9.010
   97PPPE   H7S46200   7.192   2.490   8.854
   97PPPE   C2846201   7.000   2.485   8.941
   97PPPE   H8R46202   6.987   2.440   8.841
   97PPPE   H8S46203   6.900   2.520   8.976
   97PPPE   C2946204   7.060   2.385   9.024
   97PPPE   H9146205   7.115   2.318   8.961
   97PPPE  C21046206   7.026   2.353   9.142
   97PPPE  H10146207   7.053   2.252   9.169
   97PPPE  C21146208   6.916   2.418   9.215
   97PPPE  H11R46209   6.808   2.394   9.192
   97PPPE  H11S46210   6.946   2.522   9.229
   97PPPE  C21246211   6.952   2.375   9.350
   97PPPE  H12R46212   7.051   2.334   9.373
   97PPPE  H12S46213   6.917   2.272   9.335
   97PPPE  C21346214   6.890   2.463   9.469
   97PPPE  H13R46215   6.776   2.451   9.460
   97PPPE  H13S46216   6.907   2.565   9.440
   97PPPE  C21446217   6.957   2.451   9.621
   97PPPE  H14R46218   7.062   2.436   9.632
   97PPPE  H14S46219   6.987   2.352   9.663
   97PPPE  C21546220   6.866   2.503   9.733
   97PPPE  H15R46221   6.859   2.456   9.837
   97PPPE  H15S46222   6.767   2.493   9.687
   97PPPE  C21646223   6.863   2.645   9.734
   97PPPE  H16R46224   6.810   2.684   9.824
   97PPPE  H16S46225   6.972   2.652   9.735
   97PPPE  H16T46226   6.817   2.674   9.636
   97PPPE   C3346227   6.556   2.641   8.565
   97PPPE   H3X46228   6.471   2.712   8.577
   97PPPE   H3Y46229   6.652   2.692   8.589
   97PPPE   C3446230   6.529   2.542   8.679
   97PPPE   H4X46231   6.577   2.453   8.652
   97PPPE   H4Y46232   6.423   2.512   8.682
   97PPPE   C3546233   6.587   2.583   8.816
   97PPPE   H5X46234   6.697   2.596   8.809
   97PPPE   H5Y46235   6.569   2.502   8.891
   97PPPE   C3646236   6.522   2.710   8.859
   97PPPE   H6X46237   6.415   2.711   8.830
   97PPPE   H6Y46238   6.554   2.787   8.787
   97PPPE   C3746239   6.532   2.753   9.006
   97PPPE   H7X46240   6.451   2.703   9.064
   97PPPE   H7Y46241   6.499   2.856   8.981
   97PPPE   C3846242   6.659   2.753   9.099
   97PPPE   H8X46243   6.689   2.651   9.125
   97PPPE   H8Y46244   6.633   2.806   9.192
   97PPPE   C3946245   6.794   2.812   9.056
   97PPPE   H9X46246   6.805   2.918   9.047
   97PPPE   H9Y46247   6.811   2.767   8.957
   97PPPE  C31046248   6.915   2.814   9.146
   97PPPE  H10X46249   7.002   2.825   9.077
   97PPPE  H10Y46250   6.904   2.715   9.191
   97PPPE  C31146251   6.927   2.927   9.251
   97PPPE  H11X46252   6.844   2.908   9.323
   97PPPE  H11Y46253   6.920   3.031   9.214
   97PPPE  C31246254   7.063   2.926   9.323
   97PPPE  H12X46255   7.064   3.008   9.396
   97PPPE  H12Y46256   7.149   2.947   9.255
   97PPPE  C31346257   7.074   2.792   9.395
   97PPPE  H13X46258   7.126   2.717   9.331
   97PPPE  H13Y46259   6.969   2.759   9.411
   97PPPE  C31446260   7.139   2.799   9.531
   97PPPE  H14X46261   7.243   2.837   9.526
   97PPPE  H14Y46262   7.137   2.699   9.581
   97PPPE  C31546263   7.067   2.893   9.624
   97PPPE  H15X46264   6.970   2.843   9.648
   97PPPE  H15Y46265   7.042   2.994   9.588
   97PPPE  C31646266   7.151   2.916   9.744
   97PPPE  H16X46267   7.066   2.957   9.805
   97PPPE  H16Y46268   7.197   2.820   9.780
   97PPPE  H16Z46269   7.227   2.990   9.764
   98PPPE     N46270   7.593   4.141   7.928
   98PPPE   HN146271   7.680   4.194   7.959
   98PPPE   HN246272   7.538   4.229   7.946
   98PPPE   HN346273   7.567   4.088   8.009
   98PPPE   C1246274   7.566   4.072   7.786
   98PPPE  H12A46275   7.673   4.054   7.796
   98PPPE  H12B46276   7.556   3.963   7.733
   98PPPE   C1146277   7.463   4.188   7.740
   98PPPE  H11A46278   7.372   4.134   7.777
   98PPPE  H11B46279   7.476   4.212   7.635
   98PPPE     P46280   7.288   4.388   7.827
   98PPPE   O1346281   7.184   4.399   7.722
   98PPPE   O1446282   7.254   4.295   7.935
   98PPPE   O1146283   7.305   4.532   7.892
   98PPPE   O1246284   7.441   4.326   7.786
   98PPPE    C146285   7.431   4.596   7.909
   98PPPE    HA46286   7.431   4.692   7.851
   98PPPE    HB46287   7.514   4.536   7.874
   98PPPE    C246288   7.461   4.634   8.056
   98PPPE    HS46289   7.553   4.697   8.066
   98PPPE   O2146290   7.455   4.525   8.147
   98PPPE   C2146291   7.502   4.554   8.267
   98PPPE   O2246292   7.567   4.651   8.301
   98PPPE   C2246293   7.484   4.434   8.352
   98PPPE   H2R46294   7.577   4.376   8.335
   98PPPE   H2S46295   7.396   4.376   8.315
   98PPPE    C346296   7.356   4.725   8.090
   98PPPE    HX46297   7.343   4.776   7.990
   98PPPE    HY46298   7.262   4.668   8.114
   98PPPE   O3146299   7.410   4.811   8.197
   98PPPE   C3146300   7.324   4.900   8.198
   98PPPE   O3246301   7.242   4.904   8.105
   98PPPE   C3246302   7.322   4.961   8.343
   98PPPE   H2X46303   7.234   5.021   8.376
   98PPPE   H2Y46304   7.344   5.065   8.310
   98PPPE   C2346305   7.477   4.471   8.501
   98PPPE   H3R46306   7.448   4.577   8.522
   98PPPE   H3S46307   7.580   4.457   8.540
   98PPPE   C2446308   7.383   4.382   8.581
   98PPPE   H4R46309   7.401   4.276   8.550
   98PPPE   H4S46310   7.277   4.408   8.557
   98PPPE   C2546311   7.411   4.392   8.731
   98PPPE   H5R46312   7.425   4.499   8.758
   98PPPE   H5S46313   7.512   4.349   8.751
   98PPPE   C2646314   7.306   4.316   8.816
   98PPPE   H6R46315   7.345   4.303   8.919
   98PPPE   H6S46316   7.294   4.214   8.772
   98PPPE   C2746317   7.166   4.381   8.828
   98PPPE   H7R46318   7.105   4.329   8.905
   98PPPE   H7S46319   7.109   4.379   8.734
   98PPPE   C2846320   7.188   4.523   8.871
   98PPPE   H8R46321   7.261   4.575   8.809
   98PPPE   H8S46322   7.231   4.515   8.972
   98PPPE   C2946323   7.081   4.621   8.856
   98PPPE   H9146324   7.015   4.627   8.768
   98PPPE  C21046325   7.046   4.680   8.965
   98PPPE  H10146326   6.965   4.756   8.961
   98PPPE  C21146327   7.105   4.657   9.098
   98PPPE  H11R46328   7.138   4.745   9.059
   98PPPE  H11S46329   7.186   4.591   9.126
   98PPPE  C21246330   7.048   4.617   9.229
   98PPPE  H12R46331   7.020   4.520   9.201
   98PPPE  H12S46332   6.966   4.654   9.264
   98PPPE  C21346333   7.093   4.587   9.359
   98PPPE  H13R46334   7.029   4.617   9.444
   98PPPE  H13S46335   7.119   4.678   9.379
   98PPPE  C21446336   7.090   4.449   9.398
   98PPPE  H14R46337   7.190   4.450   9.356
   98PPPE  H14S46338   7.017   4.373   9.365
   98PPPE  C21546339   7.070   4.456   9.536
   98PPPE  H15R46340   7.030   4.354   9.556
   98PPPE  H15S46341   6.989   4.502   9.590
   98PPPE  C21646342   7.198   4.534   9.577
   98PPPE  H16R46343   7.225   4.537   9.683
   98PPPE  H16S46344   7.294   4.516   9.532
   98PPPE  H16T46345   7.173   4.627   9.613
   98PPPE   C3346346   7.382   4.859   8.472
   98PPPE   H3X46347   7.445   4.781   8.439
   98PPPE   H3Y46348   7.318   4.801   8.539
   98PPPE   C3446349   7.412   4.891   8.622
   98PPPE   H4X46350   7.333   4.936   8.684
   98PPPE   H4Y46351   7.502   4.940   8.595
   98PPPE   C3546352   7.464   4.811   8.737
   98PPPE   H5X46353   7.568   4.794   8.703
   98PPPE   H5Y46354   7.402   4.720   8.741
   98PPPE   C3646355   7.453   4.900   8.866
   98PPPE   H6X46356   7.353   4.951   8.878
   98PPPE   H6Y46357   7.530   4.979   8.865
   98PPPE   C3746358   7.473   4.815   8.989
   98PPPE   H7X46359   7.576   4.774   8.975
   98PPPE   H7Y46360   7.397   4.733   8.987
   98PPPE   C3846361   7.463   4.885   9.125
   98PPPE   H8X46362   7.375   4.950   9.129
   98PPPE   H8Y46363   7.543   4.958   9.145
   98PPPE   C3946364   7.456   4.777   9.235
   98PPPE   H9X46365   7.537   4.705   9.217
   98PPPE   H9Y46366   7.365   4.716   9.217
   98PPPE  C31046367   7.470   4.830   9.379
   98PPPE  H10X46368   7.379   4.878   9.422
   98PPPE  H10Y46369   7.545   4.911   9.381
   98PPPE  C31146370   7.509   4.719   9.477
   98PPPE  H11X46371   7.576   4.641   9.444
   98PPPE  H11Y46372   7.413   4.663   9.483
   98PPPE  C31246373   7.573   4.777   9.609
   98PPPE  H12X46374   7.514   4.868   9.616
   98PPPE  H12Y46375   7.657   4.845   9.609
   98PPPE  C31346376   7.578   4.679   9.731
   98PPPE  H13X46377   7.493   4.610   9.747
   98PPPE  H13Y46378   7.578   4.728   9.831
   98PPPE  C31446379   7.675   4.569   9.700
   98PPPE  H14X46380   7.773   4.620   9.693
   98PPPE  H14Y46381   7.644   4.524   9.604
   98PPPE  C31546382   7.675   4.461   9.806
   98PPPE  H15X46383   7.737   4.512   9.880
   98PPPE  H15Y46384   7.723   4.366   9.786
   98PPPE  C31646385   7.544   4.402   9.848
   98PPPE  H16X46386   7.486   4.366   9.761
   98PPPE  H16Y46387   7.557   4.317   9.917
   98PPPE  H16Z46388   7.490   4.482   9.902
   99PPPE     N46389   0.749   4.795   7.591
   99PPPE   HN146390   0.750   4.732   7.674
   99PPPE   HN246391   0.681   4.758   7.522
   99PPPE   HN346392   0.844   4.796   7.550
   99PPPE   C1246393   0.713   4.934   7.640
   99PPPE  H12A46394   0.624   4.927   7.706
   99PPPE  H12B46395   0.689   4.994   7.551
   99PPPE   C1146396   0.834   5.001   7.707
   99PPPE  H11A46397   0.810   5.104   7.746
   99PPPE  H11B46398   0.908   5.018   7.626
   99PPPE     P46399   0.843   4.927   7.959
   99PPPE   O1346400   0.917   5.036   8.026
   99PPPE   O1446401   0.695   4.928   7.955
   99PPPE   O1146402   0.892   4.789   8.009
   99PPPE   O1246403   0.892   4.917   7.806
   99PPPE    C146404   0.873   4.668   7.934
   99PPPE    HA46405   0.963   4.650   7.872
   99PPPE    HB46406   0.787   4.676   7.865
   99PPPE    C246407   0.852   4.546   8.030
   99PPPE    HS46408   0.844   4.453   7.969
   99PPPE   O2146409   0.734   4.557   8.114
   99PPPE   C2146410   0.618   4.569   8.050
   99PPPE   O2246411   0.601   4.565   7.929
   99PPPE   C2246412   0.503   4.598   8.149
   99PPPE   H2R46413   0.472   4.503   8.197
   99PPPE   H2S46414   0.416   4.633   8.089
   99PPPE    C346415   0.979   4.531   8.120
   99PPPE    HX46416   0.983   4.430   8.165
   99PPPE    HY46417   1.064   4.531   8.048
   99PPPE   O3146418   0.996   4.638   8.218
   99PPPE   C3146419   0.927   4.627   8.331
   99PPPE   O3246420   0.867   4.528   8.369
   99PPPE   C3246421   0.937   4.754   8.421
   99PPPE   H2X46422   1.034   4.748   8.473
   99PPPE   H2Y46423   0.857   4.747   8.497
   99PPPE   C2346424   0.539   4.709   8.251
   99PPPE   H3R46425   0.541   4.808   8.199
   99PPPE   H3S46426   0.643   4.691   8.287
   99PPPE   C2446427   0.444   4.719   8.372
   99PPPE   H4R46428   0.409   4.617   8.398
   99PPPE   H4S46429   0.356   4.780   8.340
   99PPPE   C2546430   0.519   4.787   8.489
   99PPPE   H5R46431   0.568   4.878   8.448
   99PPPE   H5S46432   0.597   4.717   8.525
   99PPPE   C2646433   0.442   4.836   8.611
   99PPPE   H6R46434   0.389   4.750   8.658
   99PPPE   H6S46435   0.369   4.916   8.584
   99PPPE   C2746436   0.540   4.885   8.719
   99PPPE   H7R46437   0.602   4.972   8.686
   99PPPE   H7S46438   0.611   4.802   8.739
   99PPPE   C2846439   0.466   4.920   8.847
   99PPPE   H8R46440   0.419   4.828   8.887
   99PPPE   H8S46441   0.384   4.991   8.822
   99PPPE   C2946442   0.558   4.987   8.945
   99PPPE   H9146443   0.618   5.069   8.905
   99PPPE  C21046444   0.591   4.938   9.064
   99PPPE  H10146445   0.658   4.996   9.129
   99PPPE  C21146446   0.541   4.808   9.116
   99PPPE  H11R46447   0.510   4.737   9.036
   99PPPE  H11S46448   0.457   4.814   9.188
   99PPPE  C21246449   0.669   4.749   9.172
   99PPPE  H12R46450   0.755   4.741   9.104
   99PPPE  H12S46451   0.647   4.646   9.171
   99PPPE  C21346452   0.707   4.787   9.315
   99PPPE  H13R46453   0.616   4.799   9.375
   99PPPE  H13S46454   0.761   4.882   9.306
   99PPPE  C21446455   0.786   4.677   9.387
   99PPPE  H14R46456   0.855   4.627   9.316
   99PPPE  H14S46457   0.719   4.599   9.424
   99PPPE  C21546458   0.858   4.718   9.514
   99PPPE  H15R46459   0.919   4.807   9.490
   99PPPE  H15S46460   0.922   4.633   9.544
   99PPPE  C21646461   0.774   4.748   9.636
   99PPPE  H16R46462   0.688   4.680   9.658
   99PPPE  H16S46463   0.836   4.761   9.727
   99PPPE  H16T46464   0.739   4.849   9.618
   99PPPE   C3346465   0.915   4.889   8.348
   99PPPE   H3X46466   0.811   4.891   8.311
   99PPPE   H3Y46467   0.979   4.892   8.257
   99PPPE   C3446468   0.940   5.019   8.432
   99PPPE   H4X46469   0.906   5.103   8.366
   99PPPE   H4Y46470   1.049   5.033   8.444
   99PPPE   C3546471   0.868   5.038   8.569
   99PPPE   H5X46472   0.885   4.953   8.638
   99PPPE   H5Y46473   0.760   5.039   8.545
   99PPPE   C3646474   0.900   5.171   8.646
   99PPPE   H6X46475   0.852   5.255   8.591
   99PPPE   H6Y46476   1.010   5.189   8.650
   99PPPE   C3746477   0.850   5.176   8.792
   99PPPE   H7X46478   0.884   5.086   8.847
   99PPPE   H7Y46479   0.739   5.173   8.789
   99PPPE   C3846480   0.898   5.300   8.870
   99PPPE   H8X46481   0.868   5.393   8.817
   99PPPE   H8Y46482   1.009   5.301   8.880
   99PPPE   C3946483   0.839   5.310   9.011
   99PPPE   H9X46484   0.732   5.279   9.011
   99PPPE   H9Y46485   0.841   5.416   9.047
   99PPPE  C31046486   0.917   5.221   9.106
   99PPPE  H10X46487   1.026   5.240   9.103
   99PPPE  H10Y46488   0.899   5.115   9.079
   99PPPE  C31146489   0.864   5.241   9.244
   99PPPE  H11X46490   0.759   5.202   9.242
   99PPPE  H11Y46491   0.859   5.349   9.271
   99PPPE  C31246492   0.943   5.161   9.346
   99PPPE  H12X46493   1.033   5.216   9.378
   99PPPE  H12Y46494   0.975   5.062   9.304
   99PPPE  C31346495   0.847   5.144   9.459
   99PPPE  H13X46496   0.890   5.079   9.539
   99PPPE  H13Y46497   0.758   5.087   9.426
   99PPPE  C31446498   0.788   5.280   9.497
   99PPPE  H14X46499   0.789   5.376   9.444
   99PPPE  H14Y46500   0.880   5.343   9.517
   99PPPE  C31546501   0.666   5.254   9.599
   99PPPE  H15X46502   0.583   5.210   9.547
   99PPPE  H15Y46503   0.655   5.344   9.654
   99PPPE  C31646504   0.663   5.164   9.727
   99PPPE  H16X46505   0.720   5.072   9.711
   99PPPE  H16Y46506   0.711   5.164   9.818
   99PPPE  H16Z46507   0.584   5.185   9.803
  100PPPE     N46508   4.337   0.876   7.895
  100PPPE   HN146509   4.244   0.916   7.871
  100PPPE   HN246510   4.355   0.874   7.996
  100PPPE   HN346511   4.412   0.933   7.849
  100PPPE   C1246512   4.344   0.735   7.846
  100PPPE  H12A46513   4.309   0.743   7.744
  100PPPE  H12B46514   4.270   0.675   7.902
  100PPPE   C1146515   4.485   0.673   7.854
  100PPPE  H11A46516   4.488   0.574   7.802
  100PPPE  H11B46517   4.507   0.653   7.962
  100PPPE     P46518   4.737   0.735   7.811
  100PPPE   O1346519   4.765   0.598   7.761
  100PPPE   O1446520   4.804   0.852   7.751
  100PPPE   O1146521   4.735   0.743   7.969
  100PPPE   O1246522   4.580   0.763   7.794
  100PPPE    C146523   4.693   0.867   8.028
  100PPPE    HA46524   4.592   0.900   7.991
  100PPPE    HB46525   4.767   0.948   8.006
  100PPPE    C246526   4.686   0.858   8.182
  100PPPE    HS46527   4.790   0.856   8.219
  100PPPE   O2146528   4.628   0.737   8.223
  100PPPE   C2146529   4.626   0.719   8.356
  100PPPE   O2246530   4.640   0.799   8.445
  100PPPE   C2246531   4.575   0.586   8.380
  100PPPE   H2R46532   4.588   0.502   8.313
  100PPPE   H2S46533   4.493   0.632   8.334
  100PPPE    C346534   4.608   0.978   8.237
  100PPPE    HX46535   4.664   1.015   8.327
  100PPPE    HY46536   4.607   1.052   8.155
  100PPPE   O3146537   4.476   0.942   8.279
  100PPPE   C3146538   4.372   1.009   8.231
  100PPPE   O3246539   4.372   1.075   8.130
  100PPPE   C3246540   4.239   0.996   8.310
  100PPPE   H2X46541   4.173   0.933   8.257
  100PPPE   H2Y46542   4.182   1.078   8.348
  100PPPE   C2346543   4.546   0.557   8.525
  100PPPE   H3R46544   4.463   0.492   8.549
  100PPPE   H3S46545   4.526   0.640   8.592
  100PPPE   C2446546   4.664   0.490   8.568
  100PPPE   H4R46547   4.743   0.563   8.543
  100PPPE   H4S46548   4.688   0.413   8.496
  100PPPE   C2546549   4.656   0.468   8.716
  100PPPE   H5R46550   4.646   0.564   8.767
  100PPPE   H5S46551   4.753   0.440   8.738
  100PPPE   C2646552   4.570   0.363   8.783
  100PPPE   H6R46553   4.566   0.264   8.732
  100PPPE   H6S46554   4.469   0.409   8.786
  100PPPE   C2746555   4.616   0.340   8.927
  100PPPE   H7R46556   4.718   0.306   8.938
  100PPPE   H7S46557   4.564   0.246   8.957
  100PPPE   C2846558   4.593   0.469   9.012
  100PPPE   H8R46559   4.485   0.486   9.026
  100PPPE   H8S46560   4.629   0.555   8.956
  100PPPE   C2946561   4.665   0.504   9.137
  100PPPE   H9146562   4.772   0.471   9.132
  100PPPE  C21046563   4.611   0.517   9.262
  100PPPE  H10146564   4.689   0.504   9.332
  100PPPE  C21146565   4.469   0.501   9.331
  100PPPE  H11R46566   4.432   0.483   9.234
  100PPPE  H11S46567   4.456   0.602   9.356
  100PPPE  C21246568   4.384   0.394   9.451
  100PPPE  H12R46569   4.389   0.283   9.462
  100PPPE  H12S46570   4.274   0.381   9.448
  100PPPE  C21346571   4.426   0.380   9.586
  100PPPE  H13R46572   4.531   0.379   9.602
  100PPPE  H13S46573   4.394   0.289   9.644
  100PPPE  C21446574   4.387   0.498   9.633
  100PPPE  H14R46575   4.277   0.489   9.646
  100PPPE  H14S46576   4.432   0.588   9.581
  100PPPE  C21546577   4.448   0.499   9.745
  100PPPE  H15R46578   4.555   0.527   9.725
  100PPPE  H15S46579   4.455   0.398   9.795
  100PPPE  C21646580   4.357   0.588   9.814
  100PPPE  H16R46581   4.356   0.684   9.861
  100PPPE  H16S46582   4.256   0.572   9.839
  100PPPE  H16T46583   4.435   0.641   9.870
  100PPPE   C3346584   4.242   0.951   8.445
  100PPPE   H3X46585   4.326   0.992   8.511
  100PPPE   H3Y46586   4.329   0.891   8.415
  100PPPE   C3446587   4.092   0.871   8.508
  100PPPE   H4X46588   4.025   0.846   8.429
  100PPPE   H4Y46589   4.058   0.965   8.549
  100PPPE   C3546590   4.089   0.712   8.610
  100PPPE   H5X46591   4.170   0.701   8.688
  100PPPE   H5Y46592   4.137   0.611   8.584
  100PPPE   C3646593   4.040   0.668   8.731
  100PPPE   H6X46594   3.975   0.634   8.649
  100PPPE   H6Y46595   4.019   0.754   8.783
  100PPPE   C3746596   4.123   0.571   8.822
  100PPPE   H7X46597   4.172   0.493   8.767
  100PPPE   H7Y46598   4.016   0.557   8.822
  100PPPE   C3846599   4.205   0.615   8.949
  100PPPE   H8X46600   4.213   0.550   9.031
  100PPPE   H8Y46601   4.134   0.656   9.011
  100PPPE   C3946602   4.348   0.685   8.946
  100PPPE   H9X46603   4.337   0.786   8.940
  100PPPE   H9Y46604   4.398   0.672   8.851
  100PPPE  C31046605   4.428   0.759   9.060
  100PPPE  H10X46606   4.501   0.835   9.025
  100PPPE  H10Y46607   4.458   0.675   9.121
  100PPPE  C31146608   4.358   0.869   9.137
  100PPPE  H11X46609   4.292   0.785   9.123
  100PPPE  H11Y46610   4.324   0.960   9.082
  100PPPE  C31246611   4.342   0.899   9.287
  100PPPE  H12X46612   4.417   0.960   9.253
  100PPPE  H12Y46613   4.412   0.821   9.323
  100PPPE  C31346614   4.208   0.943   9.402
  100PPPE  H13X46615   4.138   0.870   9.427
  100PPPE  H13Y46616   4.138   1.023   9.377
  100PPPE  C31446617   4.224   0.981   9.553
  100PPPE  H14X46618   4.291   1.064   9.574
  100PPPE  H14Y46619   4.255   0.888   9.603
  100PPPE  C31546620   4.133   1.004   9.661
  100PPPE  H15X46621   4.052   0.934   9.643
  100PPPE  H15Y46622   4.119   1.109   9.633
  100PPPE  C31646623   4.203   0.990   9.799
  100PPPE  H16X46624   4.298   1.050   9.807
  100PPPE  H16Y46625   4.124   1.028   9.865
  100PPPE  H16Z46626   4.228   0.887   9.836
  101PPPE     N46627   0.620   3.834   7.652
  101PPPE   HN146628   0.558   3.767   7.702
  101PPPE   HN246629   0.568   3.922   7.639
  101PPPE   HN346630   0.651   3.795   7.560
  101PPPE   C1246631   0.736   3.862   7.745
  101PPPE  H12A46632   0.811   3.924   7.691
  101PPPE  H12B46633   0.784   3.767   7.773
  101PPPE   C1146634   0.687   3.936   7.871
  101PPPE  H11A46635   0.778   3.958   7.932
  101PPPE  H11B46636   0.620   3.876   7.937
  101PPPE     P46637   0.661   4.197   7.882
  101PPPE   O1346638   0.791   4.229   7.819
  101PPPE   O1446639   0.547   4.287   7.864
  101PPPE   O1146640   0.686   4.166   8.034
  101PPPE   O1246641   0.616   4.053   7.829
  101PPPE    C146642   0.584   4.120   8.122
  101PPPE    HA46643   0.573   4.009   8.114
  101PPPE    HB46644   0.485   4.168   8.100
  101PPPE    C246645   0.616   4.147   8.271
  101PPPE    HS46646   0.621   4.257   8.292
  101PPPE   O2146647   0.738   4.082   8.312
  101PPPE   C2146648   0.848   4.147   8.284
  101PPPE   O2246649   0.860   4.251   8.223
  101PPPE   C2246650   0.968   4.081   8.351
  101PPPE   H2R46651   1.050   4.145   8.319
  101PPPE   H2S46652   0.990   3.980   8.314
  101PPPE    C346653   0.498   4.090   8.354
  101PPPE    HX46654   0.408   4.153   8.333
  101PPPE    HY46655   0.475   3.987   8.317
  101PPPE   O3146656   0.535   4.086   8.493
  101PPPE   C3146657   0.440   4.099   8.581
  101PPPE   O3246658   0.321   4.101   8.558
  101PPPE   C3246659   0.506   4.109   8.718
  101PPPE   H2X46660   0.576   4.024   8.726
  101PPPE   H2Y46661   0.428   4.094   8.794
  101PPPE   C2346662   0.960   4.086   8.506
  101PPPE   H3R46663   0.911   4.182   8.534
  101PPPE   H3S46664   1.064   4.091   8.545
  101PPPE   C2446665   0.887   3.963   8.563
  101PPPE   H4R46666   0.940   3.870   8.533
  101PPPE   H4S46667   0.784   3.960   8.520
  101PPPE   C2546668   0.871   3.953   8.715
  101PPPE   H5R46669   0.828   3.852   8.736
  101PPPE   H5S46670   0.799   4.030   8.751
  101PPPE   C2646671   1.000   3.960   8.796
  101PPPE   H6R46672   1.042   4.061   8.800
  101PPPE   H6S46673   1.078   3.902   8.744
  101PPPE   C2746674   0.975   3.901   8.937
  101PPPE   H7R46675   1.071   3.905   8.994
  101PPPE   H7S46676   0.940   3.796   8.925
  101PPPE   C2846677   0.857   3.962   9.011
  101PPPE   H8R46678   0.763   3.929   8.964
  101PPPE   H8S46679   0.863   4.072   9.007
  101PPPE   C2946680   0.838   3.929   9.153
  101PPPE   H9146681   0.771   3.845   9.177
  101PPPE  C21046682   0.909   3.983   9.250
  101PPPE  H10146683   0.853   3.974   9.343
  101PPPE  C21146684   1.022   4.082   9.255
  101PPPE  H11R46685   0.998   4.164   9.186
  101PPPE  H11S46686   1.116   4.032   9.220
  101PPPE  C21246687   1.053   4.152   9.391
  101PPPE  H12R46688   1.127   4.231   9.370
  101PPPE  H12S46689   1.095   4.080   9.465
  101PPPE  C21346690   0.931   4.222   9.451
  101PPPE  H13R46691   0.873   4.140   9.497
  101PPPE  H13S46692   0.874   4.267   9.367
  101PPPE  C21446693   0.954   4.332   9.557
  101PPPE  H14R46694   1.003   4.418   9.505
  101PPPE  H14S46695   1.020   4.296   9.639
  101PPPE  C21546696   0.823   4.386   9.622
  101PPPE  H15R46697   0.750   4.410   9.542
  101PPPE  H15S46698   0.843   4.484   9.670
  101PPPE  C21646699   0.756   4.299   9.729
  101PPPE  H16R46700   0.718   4.204   9.686
  101PPPE  H16S46701   0.822   4.276   9.816
  101PPPE  H16T46702   0.667   4.354   9.767
  101PPPE   C3346703   0.582   4.243   8.734
  101PPPE   H3X46704   0.547   4.318   8.659
  101PPPE   H3Y46705   0.690   4.229   8.712
  101PPPE   C3446706   0.575   4.293   8.879
  101PPPE   H4X46707   0.586   4.208   8.948
  101PPPE   H4Y46708   0.479   4.330   8.907
  101PPPE   C3546709   0.674   4.402   8.920
  101PPPE   H5X46710   0.646   4.498   8.872
  101PPPE   H5Y46711   0.774   4.372   8.882
  101PPPE   C3646712   0.684   4.418   9.074
  101PPPE   H6X46713   0.760   4.498   9.085
  101PPPE   H6Y46714   0.725   4.325   9.118
  101PPPE   C3746715   0.549   4.447   9.147
  101PPPE   H7X46716   0.486   4.358   9.138
  101PPPE   H7Y46717   0.499   4.531   9.093
  101PPPE   C3846718   0.556   4.481   9.300
  101PPPE   H8X46719   0.559   4.589   9.321
  101PPPE   H8Y46720   0.646   4.433   9.343
  101PPPE   C3946721   0.431   4.465   9.382
  101PPPE   H9X46722   0.354   4.535   9.343
  101PPPE   H9Y46723   0.448   4.493   9.489
  101PPPE  C31046724   0.383   4.325   9.367
  101PPPE  H10X46725   0.347   4.308   9.265
  101PPPE  H10Y46726   0.289   4.313   9.419
  101PPPE  C31146727   0.487   4.221   9.406
  101PPPE  H11X46728   0.534   4.245   9.505
  101PPPE  H11Y46729   0.566   4.218   9.329
  101PPPE  C31246730   0.416   4.088   9.413
  101PPPE  H12X46731   0.362   4.068   9.318
  101PPPE  H12Y46732   0.340   4.097   9.493
  101PPPE  C31346733   0.507   3.974   9.443
  101PPPE  H13X46734   0.548   3.925   9.351
  101PPPE  H13Y46735   0.450   3.909   9.512
  101PPPE  C31446736   0.606   3.991   9.549
  101PPPE  H14X46737   0.558   4.032   9.641
  101PPPE  H14Y46738   0.691   4.052   9.513
  101PPPE  C31546739   0.649   3.858   9.591
  101PPPE  H15X46740   0.691   3.809   9.499
  101PPPE  H15Y46741   0.578   3.785   9.636
  101PPPE  C31646742   0.748   3.895   9.694
  101PPPE  H16X46743   0.728   3.929   9.796
  101PPPE  H16Y46744   0.762   3.791   9.710
  101PPPE  H16Z46745   0.843   3.936   9.654
  102PPPE     N46746   5.899   1.457   7.664
  102PPPE   HN146747   5.796   1.449   7.659
  102PPPE   HN246748   5.926   1.496   7.757
  102PPPE   HN346749   5.938   1.519   7.590
  102PPPE   C1246750   5.960   1.319   7.657
  102PPPE  H12A46751   5.957   1.289   7.550
  102PPPE  H12B46752   5.894   1.251   7.715
  102PPPE   C1146753   6.107   1.314   7.706
  102PPPE  H11A46754   6.167   1.388   7.648
  102PPPE  H11B46755   6.150   1.214   7.678
  102PPPE     P46756   6.232   1.256   7.930
  102PPPE   O1346757   6.178   1.124   7.971
  102PPPE   O1446758   6.359   1.254   7.854
  102PPPE   O1146759   6.252   1.344   8.058
  102PPPE   O1246760   6.119   1.339   7.847
  102PPPE    C146761   6.235   1.485   8.062
  102PPPE    HA46762   6.191   1.525   7.968
  102PPPE    HB46763   6.336   1.530   8.075
  102PPPE    C246764   6.142   1.520   8.180
  102PPPE    HS46765   6.125   1.629   8.192
  102PPPE   O2146766   6.209   1.468   8.297
  102PPPE   C2146767   6.152   1.468   8.413
  102PPPE   O2246768   6.037   1.503   8.437
  102PPPE   C2246769   6.258   1.431   8.520
  102PPPE   H2R46770   6.343   1.501   8.516
  102PPPE   H2S46771   6.308   1.337   8.492
  102PPPE    C346772   6.002   1.459   8.151
  102PPPE    HX46773   5.924   1.516   8.205
  102PPPE    HY46774   5.981   1.468   8.041
  102PPPE   O3146775   6.005   1.323   8.193
  102PPPE   C3146776   5.892   1.262   8.181
  102PPPE   O3246777   5.796   1.298   8.117
  102PPPE   C3246778   5.898   1.132   8.252
  102PPPE   H2X46779   5.982   1.136   8.324
  102PPPE   H2Y46780   5.935   1.069   8.168
  102PPPE   C2346781   6.200   1.416   8.663
  102PPPE   H3R46782   6.263   1.346   8.722
  102PPPE   H3S46783   6.096   1.380   8.656
  102PPPE   C2446784   6.199   1.543   8.745
  102PPPE   H4R46785   6.219   1.618   8.668
  102PPPE   H4S46786   6.278   1.547   8.823
  102PPPE   C2546787   6.065   1.578   8.808
  102PPPE   H5R46788   5.989   1.597   8.729
  102PPPE   H5S46789   6.086   1.673   8.864
  102PPPE   C2646790   6.014   1.467   8.901
  102PPPE   H6R46791   6.092   1.445   8.977
  102PPPE   H6S46792   5.996   1.375   8.843
  102PPPE   C2746793   5.882   1.501   8.970
  102PPPE   H7R46794   5.847   1.416   9.032
  102PPPE   H7S46795   5.803   1.523   8.894
  102PPPE   C2846796   5.899   1.619   9.062
  102PPPE   H8R46797   5.796   1.645   9.089
  102PPPE   H8S46798   5.946   1.703   9.007
  102PPPE   C2946799   5.971   1.592   9.187
  102PPPE   H9146800   6.079   1.605   9.176
  102PPPE  C21046801   5.917   1.561   9.306
  102PPPE  H10146802   5.986   1.546   9.388
  102PPPE  C21146803   5.771   1.544   9.345
  102PPPE  H11R46804   5.702   1.532   9.258
  102PPPE  H11S46805   5.740   1.640   9.392
  102PPPE  C21246806   5.737   1.425   9.437
  102PPPE  H12R46807   5.756   1.335   9.375
  102PPPE  H12S46808   5.628   1.420   9.458
  102PPPE  C21346809   5.804   1.421   9.576
  102PPPE  H13R46810   5.912   1.402   9.564
  102PPPE  H13S46811   5.765   1.333   9.633
  102PPPE  C21446812   5.790   1.551   9.658
  102PPPE  H14R46813   5.775   1.637   9.591
  102PPPE  H14S46814   5.886   1.570   9.712
  102PPPE  C21546815   5.684   1.549   9.767
  102PPPE  H15R46816   5.592   1.499   9.731
  102PPPE  H15S46817   5.657   1.653   9.801
  102PPPE  C21646818   5.732   1.473   9.889
  102PPPE  H16R46819   5.671   1.506   9.973
  102PPPE  H16S46820   5.724   1.364   9.871
  102PPPE  H16T46821   5.834   1.500   9.921
  102PPPE   C3346822   5.758   1.100   8.320
  102PPPE   H3X46823   5.680   1.079   8.243
  102PPPE   H3Y46824   5.741   1.183   8.389
  102PPPE   C3446825   5.736   0.991   8.423
  102PPPE   H4X46826   5.705   0.909   8.353
  102PPPE   H4Y46827   5.648   0.950   8.474
  102PPPE   C3546828   5.850   0.994   8.529
  102PPPE   H5X46829   5.959   0.999   8.499
  102PPPE   H5Y46830   5.831   0.910   8.597
  102PPPE   C3646831   5.853   1.108   8.623
  102PPPE   H6X46832   5.744   1.115   8.641
  102PPPE   H6Y46833   5.901   1.187   8.562
  102PPPE   C3746834   5.937   1.081   8.748
  102PPPE   H7X46835   5.930   1.173   8.810
  102PPPE   H7Y46836   6.044   1.058   8.732
  102PPPE   C3846837   5.874   0.976   8.835
  102PPPE   H8X46838   5.880   0.873   8.790
  102PPPE   H8Y46839   5.767   1.000   8.839
  102PPPE   C3946840   5.943   0.968   8.972
  102PPPE   H9X46841   6.053   0.965   8.960
  102PPPE   H9Y46842   5.907   0.874   9.011
  102PPPE  C31046843   5.928   1.061   9.088
  102PPPE  H10X46844   5.820   1.084   9.098
  102PPPE  H10Y46845   5.986   1.149   9.057
  102PPPE  C31146846   5.990   1.005   9.219
  102PPPE  H11X46847   6.095   0.971   9.204
  102PPPE  H11Y46848   5.936   0.916   9.257
  102PPPE  C31246849   5.996   1.118   9.323
  102PPPE  H12X46850   5.892   1.150   9.346
  102PPPE  H12Y46851   6.047   1.206   9.277
  102PPPE  C31346852   6.074   1.086   9.451
  102PPPE  H13X46853   6.091   1.180   9.509
  102PPPE  H13Y46854   6.174   1.045   9.425
  102PPPE  C31446855   6.006   0.990   9.546
  102PPPE  H14X46856   6.077   0.960   9.626
  102PPPE  H14Y46857   5.965   0.899   9.497
  102PPPE  C31546858   5.894   1.060   9.615
  102PPPE  H15X46859   5.807   1.080   9.549
  102PPPE  H15Y46860   5.922   1.159   9.660
  102PPPE  C31646861   5.853   0.972   9.726
  102PPPE  H16X46862   5.925   0.959   9.810
  102PPPE  H16Y46863   5.775   1.044   9.756
  102PPPE  H16Z46864   5.809   0.873   9.704
  103PPPE     N46865   1.062   5.565   8.000
  103PPPE   HN146866   0.968   5.600   8.030
  103PPPE   HN246867   1.090   5.483   8.057
  103PPPE   HN346868   1.127   5.644   8.014
  103PPPE   C1246869   1.055   5.528   7.854
  103PPPE  H12A46870   0.963   5.468   7.837
  103PPPE  H12B46871   1.144   5.468   7.826
  103PPPE   C1146872   1.047   5.655   7.771
  103PPPE  H11A46873   1.054   5.624   7.664
  103PPPE  H11B46874   1.133   5.724   7.794
  103PPPE     P46875   0.886   5.865   7.808
  103PPPE   O1346876   0.912   5.931   7.678
  103PPPE   O1446877   0.753   5.881   7.869
  103PPPE   O1146878   0.998   5.910   7.909
  103PPPE   O1246879   0.920   5.712   7.797
  103PPPE    C146880   0.995   6.046   7.956
  103PPPE    HA46881   0.904   6.068   8.016
  103PPPE    HB46882   1.001   6.120   7.873
  103PPPE    C246883   1.115   6.068   8.050
  103PPPE    HS46884   1.207   6.073   7.986
  103PPPE   O2146885   1.117   5.953   8.136
  103PPPE   C2146886   1.219   5.936   8.214
  103PPPE   O2246887   1.318   6.006   8.220
  103PPPE   C2246888   1.199   5.802   8.287
  103PPPE   H2R46889   1.271   5.730   8.243
  103PPPE   H2S46890   1.094   5.768   8.280
  103PPPE    C346891   1.101   6.204   8.126
  103PPPE    HX46892   1.194   6.229   8.181
  103PPPE    HY46893   1.093   6.283   8.047
  103PPPE   O3146894   0.980   6.212   8.206
  103PPPE   C3146895   0.993   6.177   8.334
  103PPPE   O3246896   1.096   6.140   8.387
  103PPPE   C3246897   0.860   6.199   8.409
  103PPPE   H2X46898   0.777   6.146   8.363
  103PPPE   H2Y46899   0.818   6.295   8.384
  103PPPE   C2346900   1.220   5.818   8.437
  103PPPE   H3R46901   1.140   5.877   8.485
  103PPPE   H3S46902   1.304   5.891   8.437
  103PPPE   C2446903   1.236   5.679   8.510
  103PPPE   H4R46904   1.309   5.620   8.449
  103PPPE   H4S46905   1.149   5.614   8.505
  103PPPE   C2546906   1.270   5.674   8.664
  103PPPE   H5R46907   1.379   5.661   8.662
  103PPPE   H5S46908   1.273   5.578   8.716
  103PPPE   C2646909   1.198   5.786   8.753
  103PPPE   H6R46910   1.093   5.761   8.746
  103PPPE   H6S46911   1.196   5.889   8.710
  103PPPE   C2746912   1.231   5.810   8.905
  103PPPE   H7R46913   1.333   5.827   8.942
  103PPPE   H7S46914   1.228   5.718   8.962
  103PPPE   C2846915   1.176   5.945   8.953
  103PPPE   H8R46916   1.068   5.935   8.945
  103PPPE   H8S46917   1.206   6.036   8.894
  103PPPE   C2946918   1.219   5.950   9.094
  103PPPE   H9146919   1.324   5.971   9.111
  103PPPE  C21046920   1.165   5.894   9.197
  103PPPE  H10146921   1.219   5.912   9.290
  103PPPE  C21146922   1.043   5.809   9.201
  103PPPE  H11R46923   0.975   5.837   9.120
  103PPPE  H11S46924   0.998   5.846   9.294
  103PPPE  C21246925   1.044   5.652   9.192
  103PPPE  H12R46926   1.111   5.609   9.111
  103PPPE  H12S46927   0.942   5.613   9.202
  103PPPE  C21346928   1.065   5.563   9.314
  103PPPE  H13R46929   1.172   5.586   9.283
  103PPPE  H13S46930   1.122   5.474   9.322
  103PPPE  C21446931   1.004   5.590   9.461
  103PPPE  H14R46932   0.905   5.605   9.509
  103PPPE  H14S46933   0.999   5.714   9.452
  103PPPE  C21546934   1.113   5.503   9.589
  103PPPE  H15R46935   1.146   5.429   9.639
  103PPPE  H15S46936   1.033   5.549   9.655
  103PPPE  C21646937   1.320   5.534   9.630
  103PPPE  H16R46938   1.378   5.518   9.726
  103PPPE  H16S46939   1.389   5.563   9.561
  103PPPE  H16T46940   1.354   5.640   9.658
  103PPPE   C3346941   0.875   6.182   8.562
  103PPPE   H3X46942   0.795   6.236   8.617
  103PPPE   H3Y46943   0.973   6.220   8.601
  103PPPE   C3446944   0.848   6.038   8.603
  103PPPE   H4X46945   0.926   5.975   8.554
  103PPPE   H4Y46946   0.748   6.007   8.567
  103PPPE   C3546947   0.853   6.019   8.755
  103PPPE   H5X46948   0.939   6.078   8.792
  103PPPE   H5Y46949   0.877   5.912   8.773
  103PPPE   C3646950   0.725   6.063   8.829
  103PPPE   H6X46951   0.633   6.019   8.785
  103PPPE   H6Y46952   0.711   6.173   8.823
  103PPPE   C3746953   0.730   6.027   8.979
  103PPPE   H7X46954   0.755   5.919   8.987
  103PPPE   H7Y46955   0.631   6.043   9.026
  103PPPE   C3846956   0.831   6.119   9.049
  103PPPE   H8X46957   0.807   6.223   9.017
  103PPPE   H8Y46958   0.934   6.093   9.016
  103PPPE   C3946959   0.834   6.114   9.201
  103PPPE   H9X46960   0.857   6.011   9.236
  103PPPE   H9Y46961   0.744   6.146   9.250
  103PPPE  C31046962   0.925   6.215   9.264
  103PPPE  H10X46963   0.885   6.320   9.258
  103PPPE  H10Y46964   1.023   6.214   9.213
  103PPPE  C31146965   0.938   6.175   9.410
  103PPPE  H11X46966   1.011   6.091   9.416
  103PPPE  H11Y46967   0.842   6.147   9.459
  103PPPE  C31246968   0.992   6.290   9.487
  103PPPE  H12X46969   0.923   6.374   9.499
  103PPPE  H12Y46970   1.060   6.333   9.409
  103PPPE  C31346971   1.056   6.241   9.619
  103PPPE  H13X46972   1.120   6.310   9.669
  103PPPE  H13Y46973   1.131   6.162   9.603
  103PPPE  C31446974   0.976   6.236   9.747
  103PPPE  H14X46975   0.922   6.328   9.765
  103PPPE  H14Y46976   1.045   6.245   9.834
  103PPPE  C31546977   0.903   6.106   9.748
  103PPPE  H15X46978   0.842   6.095   9.656
  103PPPE  H15Y46979   0.835   6.105   9.835
  103PPPE  C31646980   1.002   5.990   9.753
  103PPPE  H16X46981   1.075   6.003   9.836
  103PPPE  H16Y46982   0.951   5.894   9.764
  103PPPE  H16Z46983   1.058   5.986   9.657
  104PPPE     N46984   3.641   0.640   7.931
  104PPPE   HN146985   3.541   0.670   7.929
  104PPPE   HN246986   3.651   0.536   7.938
  104PPPE   HN346987   3.688   0.683   8.013
  104PPPE   C1246988   3.711   0.690   7.808
  104PPPE  H12A46989   3.703   0.799   7.811
  104PPPE  H12B46990   3.657   0.651   7.720
  104PPPE   C1146991   3.859   0.650   7.806
  104PPPE  H11A46992   3.911   0.677   7.901
  104PPPE  H11B46993   3.910   0.707   7.725
  104PPPE     P46994   3.994   0.429   7.822
  104PPPE   O1346995   3.993   0.300   7.748
  104PPPE   O1446996   4.113   0.516   7.822
  104PPPE   O1146997   3.956   0.401   7.973
  104PPPE   O1246998   3.867   0.512   7.777
  104PPPE    C146999   4.062   0.352   8.056
  104PPPE    HA47000   4.140   0.431   8.068
  104PPPE    HB47001   4.111   0.262   8.012
  104PPPE    C247002   4.011   0.304   8.195
  104PPPE    HS47003   3.940   0.220   8.181
  104PPPE   O2147004   3.953   0.415   8.266
  104PPPE   C2147005   3.832   0.447   8.227
  104PPPE   O2247006   3.752   0.378   8.167
  104PPPE   C2247007   3.804   0.591   8.266
  104PPPE   H2R47008   3.715   0.629   8.213
  104PPPE   H2S47009   3.892   0.652   8.233
  104PPPE    C347010   4.131   0.247   8.270
  104PPPE    HX47011   4.111   0.214   8.374
  104PPPE    HY47012   4.172   0.161   8.215
  104PPPE   O3147013   4.228   0.346   8.266
  104PPPE   C3147014   4.210   0.431   8.358
  104PPPE   O3247015   4.160   0.419   8.468
  104PPPE   C3247016   4.313   0.521   8.325
  104PPPE   H2X47017   4.391   0.485   8.257
  104PPPE   H2Y47018   4.347   0.539   8.427
  104PPPE   C2347019   3.788   0.600   8.418
  104PPPE   H3R47020   3.783   0.708   8.444
  104PPPE   H3S47021   3.878   0.556   8.467
  104PPPE   C2447022   3.664   0.531   8.476
  104PPPE   H4R47023   3.667   0.420   8.470
  104PPPE   H4S47024   3.573   0.568   8.422
  104PPPE   C2547025   3.637   0.574   8.619
  104PPPE   H5R47026   3.547   0.523   8.654
  104PPPE   H5S47027   3.622   0.685   8.613
  104PPPE   C2647028   3.737   0.541   8.727
  104PPPE   H6R47029   3.708   0.583   8.822
  104PPPE   H6S47030   3.824   0.588   8.699
  104PPPE   C2747031   3.765   0.400   8.769
  104PPPE   H7R47032   3.832   0.355   8.692
  104PPPE   H7S47033   3.664   0.355   8.771
  104PPPE   C2847034   3.810   0.379   8.915
  104PPPE   H8R47035   3.814   0.269   8.921
  104PPPE   H8S47036   3.737   0.420   8.987
  104PPPE   C2947037   3.932   0.431   8.976
  104PPPE   H9147038   3.940   0.540   8.977
  104PPPE  C21047039   4.012   0.381   9.062
  104PPPE  H10147040   4.087   0.447   9.101
  104PPPE  C21147041   4.001   0.252   9.128
  104PPPE  H11R47042   4.091   0.192   9.124
  104PPPE  H11S47043   3.920   0.188   9.090
  104PPPE  C21247044   4.006   0.288   9.278
  104PPPE  H12R47045   4.095   0.323   9.331
  104PPPE  H12S47046   4.024   0.181   9.304
  104PPPE  C21347047   3.901   0.391   9.335
  104PPPE  H13R47048   3.820   0.372   9.262
  104PPPE  H13S47049   3.933   0.495   9.314
  104PPPE  C21447050   3.871   0.389   9.494
  104PPPE  H14R47051   3.956   0.342   9.548
  104PPPE  H14S47052   3.788   0.328   9.531
  104PPPE  C21547053   3.769   0.477   9.566
  104PPPE  H15R47054   3.668   0.473   9.515
  104PPPE  H15S47055   3.828   0.567   9.556
  104PPPE  C21647056   3.753   0.430   9.711
  104PPPE  H16R47057   3.858   0.406   9.744
  104PPPE  H16S47058   3.707   0.495   9.785
  104PPPE  H16T47059   3.687   0.338   9.712
  104PPPE   C3347060   4.280   0.655   8.284
  104PPPE   H3X47061   4.203   0.649   8.203
  104PPPE   H3Y47062   4.352   0.738   8.274
  104PPPE   C3447063   4.234   0.696   8.411
  104PPPE   H4X47064   4.132   0.644   8.412
  104PPPE   H4Y47065   4.177   0.765   8.346
  104PPPE   C3547066   4.326   0.754   8.570
  104PPPE   H5X47067   4.418   0.805   8.564
  104PPPE   H5Y47068   4.337   0.655   8.615
  104PPPE   C3647069   4.261   0.892   8.689
  104PPPE   H6X47070   4.148   0.898   8.702
  104PPPE   H6Y47071   4.239   0.997   8.663
  104PPPE   C3747072   4.225   0.909   8.825
  104PPPE   H7X47073   4.315   0.955   8.862
  104PPPE   H7Y47074   4.189   0.809   8.848
  104PPPE   C3847075   4.103   0.943   8.896
  104PPPE   H8X47076   4.018   0.926   8.837
  104PPPE   H8Y47077   4.115   1.051   8.913
  104PPPE   C3947078   4.048   0.854   9.022
  104PPPE   H9X47079   3.994   0.761   9.007
  104PPPE   H9Y47080   3.969   0.884   9.093
  104PPPE  C31047081   4.098   0.886   9.150
  104PPPE  H10X47082   4.131   0.991   9.174
  104PPPE  H10Y47083   4.162   0.879   9.067
  104PPPE  C31147084   4.097   0.756   9.238
  104PPPE  H11X47085   4.065   0.667   9.186
  104PPPE  H11Y47086   4.025   0.796   9.309
  104PPPE  C31247087   4.218   0.682   9.304
  104PPPE  H12X47088   4.256   0.737   9.390
  104PPPE  H12Y47089   4.313   0.664   9.252
  104PPPE  C31347090   4.209   0.587   9.400
  104PPPE  H13X47091   4.303   0.595   9.459
  104PPPE  H13Y47092   4.214   0.506   9.328
  104PPPE  C31447093   4.103   0.599   9.495
  104PPPE  H14X47094   4.097   0.496   9.529
  104PPPE  H14Y47095   4.019   0.646   9.441
  104PPPE  C31547096   4.138   0.679   9.614
  104PPPE  H15X47097   4.126   0.770   9.567
  104PPPE  H15Y47098   4.243   0.681   9.639
  104PPPE  C31647099   4.037   0.698   9.720
  104PPPE  H16X47100   3.944   0.728   9.667
  104PPPE  H16Y47101   4.032   0.606   9.779
  104PPPE  H16Z47102   4.062   0.784   9.785
  105PPPE     N47103   1.898   6.847   8.017
  105PPPE   HN147104   1.831   6.916   8.055
  105PPPE   HN247105   1.846   6.778   7.959
  105PPPE   HN347106   1.942   6.798   8.097
  105PPPE   C1247107   2.014   6.914   7.946
  105PPPE  H12A47108   2.084   6.835   7.913
  105PPPE  H12B47109   2.065   6.979   8.021
  105PPPE   C1147110   1.977   7.000   7.824
  105PPPE  H11A47111   1.907   7.080   7.857
  105PPPE  H11B47112   1.928   6.939   7.743
  105PPPE     P47113   2.141   7.204   7.783
  105PPPE   O1347114   2.183   7.223   7.923
  105PPPE   O1447115   2.230   7.244   7.674
  105PPPE   O1147116   2.003   7.277   7.760
  105PPPE   O1247117   2.097   7.052   7.768
  105PPPE    C147118   2.004   7.417   7.792
  105PPPE    HA47119   1.973   7.477   7.705
  105PPPE    HB47120   2.104   7.460   7.817
  105PPPE    C247121   1.902   7.442   7.903
  105PPPE    HS47122   1.906   7.552   7.927
  105PPPE   O2147123   1.918   7.357   8.017
  105PPPE   C2147124   2.010   7.406   8.089
  105PPPE   O2247125   2.075   7.506   8.063
  105PPPE   C2247126   2.007   7.325   8.221
  105PPPE   H2R47127   2.077   7.239   8.215
  105PPPE   H2S47128   1.906   7.300   8.256
  105PPPE    C347129   1.761   7.415   7.857
  105PPPE    HX47130   1.755   7.442   7.751
  105PPPE    HY47131   1.729   7.309   7.865
  105PPPE   O3147132   1.683   7.506   7.931
  105PPPE   C3147133   1.633   7.461   8.042
  105PPPE   O3247134   1.606   7.343   8.067
  105PPPE   C3247135   1.628   7.577   8.142
  105PPPE   H2X47136   1.578   7.671   8.121
  105PPPE   H2Y47137   1.717   7.626   8.174
  105PPPE   C2347138   2.054   7.412   8.332
  105PPPE   H3R47139   2.003   7.509   8.350
  105PPPE   H3S47140   2.142   7.437   8.270
  105PPPE   C2447141   2.088   7.344   8.463
  105PPPE   H4R47142   2.144   7.415   8.520
  105PPPE   H4S47143   2.151   7.253   8.459
  105PPPE   C2547144   1.979   7.338   8.565
  105PPPE   H5R47145   1.929   7.245   8.532
  105PPPE   H5S47146   1.911   7.425   8.555
  105PPPE   C2647147   2.032   7.336   8.710
  105PPPE   H6R47148   2.122   7.278   8.732
  105PPPE   H6S47149   1.968   7.263   8.752
  105PPPE   C2747150   2.037   7.472   8.785
  105PPPE   H7R47151   1.947   7.527   8.799
  105PPPE   H7S47152   2.085   7.547   8.723
  105PPPE   C2847153   2.098   7.465   8.925
  105PPPE   H8R47154   2.206   7.466   8.909
  105PPPE   H8S47155   2.077   7.362   8.961
  105PPPE   C2947156   2.062   7.576   9.023
  105PPPE   H9147157   2.102   7.675   9.003
  105PPPE  C21047158   2.006   7.555   9.141
  105PPPE  H10147159   1.969   7.638   9.205
  105PPPE  C21147160   1.976   7.414   9.178
  105PPPE  H11R47161   1.986   7.337   9.107
  105PPPE  H11S47162   1.873   7.410   9.144
  105PPPE  C21247163   2.010   7.339   9.310
  105PPPE  H12R47164   2.109   7.338   9.332
  105PPPE  H12S47165   1.974   7.237   9.315
  105PPPE  C21347166   1.980   7.399   9.440
  105PPPE  H13R47167   1.885   7.345   9.486
  105PPPE  H13S47168   1.958   7.509   9.402
  105PPPE  C21447169   2.056   7.375   9.544
  105PPPE  H14R47170   2.159   7.403   9.525
  105PPPE  H14S47171   2.037   7.279   9.598
  105PPPE  C21547172   1.981   7.482   9.594
  105PPPE  H15R47173   1.992   7.591   9.557
  105PPPE  H15S47174   2.016   7.459   9.687
  105PPPE  C21647175   1.899   7.471   9.689
  105PPPE  H16R47176   1.854   7.557   9.652
  105PPPE  H16S47177   1.844   7.372   9.702
  105PPPE  H16T47178   1.879   7.560   9.755
  105PPPE   C3347179   1.545   7.531   8.248
  105PPPE   H3X47180   1.478   7.450   8.214
  105PPPE   H3Y47181   1.480   7.621   8.268
  105PPPE   C3447182   1.622   7.484   8.358
  105PPPE   H4X47183   1.669   7.581   8.390
  105PPPE   H4Y47184   1.681   7.399   8.326
  105PPPE   C3547185   1.551   7.414   8.464
  105PPPE   H5X47186   1.461   7.362   8.483
  105PPPE   H5Y47187   1.518   7.512   8.490
  105PPPE   C3647188   1.607   7.401   8.577
  105PPPE   H6X47189   1.668   7.497   8.575
  105PPPE   H6Y47190   1.688   7.332   8.553
  105PPPE   C3747191   1.512   7.345   8.699
  105PPPE   H7X47192   1.548   7.369   8.795
  105PPPE   H7Y47193   1.527   7.241   8.696
  105PPPE   C3847194   1.416   7.404   8.812
  105PPPE   H8X47195   1.357   7.355   8.753
  105PPPE   H8Y47196   1.369   7.497   8.805
  105PPPE   C3947197   1.419   7.416   8.969
  105PPPE   H9X47198   1.341   7.482   9.011
  105PPPE   H9Y47199   1.477   7.494   9.005
  105PPPE  C31047200   1.448   7.296   9.054
  105PPPE  H10X47201   1.550   7.341   9.052
  105PPPE  H10Y47202   1.449   7.201   9.003
  105PPPE  C31147203   1.384   7.264   9.190
  105PPPE  H11X47204   1.285   7.224   9.172
  105PPPE  H11Y47205   1.387   7.368   9.206
  105PPPE  C31247206   1.438   7.156   9.289
  105PPPE  H12X47207   1.540   7.142   9.324
  105PPPE  H12Y47208   1.419   7.075   9.221
  105PPPE  C31347209   1.406   7.125   9.432
  105PPPE  H13X47210   1.475   7.052   9.480
  105PPPE  H13Y47211   1.298   7.120   9.425
  105PPPE  C31447212   1.461   7.231   9.509
  105PPPE  H14X47213   1.372   7.289   9.466
  105PPPE  H14Y47214   1.568   7.230   9.474
  105PPPE  C31547215   1.502   7.266   9.644
  105PPPE  H15X47216   1.578   7.317   9.698
  105PPPE  H15Y47217   1.567   7.185   9.672
  105PPPE  C31647218   1.425   7.375   9.711
  105PPPE  H16X47219   1.348   7.393   9.636
  105PPPE  H16Y47220   1.355   7.355   9.792
  105PPPE  H16Z47221   1.430   7.402   9.816
  106PPPE     N47222   7.191   5.194   7.818
  106PPPE   HN147223   7.132   5.112   7.790
  106PPPE   HN247224   7.189   5.193   7.920
  106PPPE   HN347225   7.154   5.287   7.789
  106PPPE   C1247226   7.335   5.173   7.782
  106PPPE  H12A47227   7.345   5.203   7.677
  106PPPE  H12B47228   7.362   5.066   7.790
  106PPPE   C1147229   7.424   5.255   7.877
  106PPPE  H11A47230   7.432   5.208   7.978
  106PPPE  H11B47231   7.378   5.356   7.894
  106PPPE     P47232   7.668   5.167   7.833
  106PPPE   O1347233   7.630   5.042   7.762
  106PPPE   O1447234   7.799   5.225   7.797
  106PPPE   O1147235   7.669   5.140   7.991
  106PPPE   O1247236   7.552   5.274   7.818
  106PPPE    C147237   7.750   5.036   8.049
  106PPPE    HA47238   7.851   5.039   8.003
  106PPPE    HB47239   7.700   4.938   8.028
  106PPPE    C247240   7.775   5.037   8.206
  106PPPE    HS47241   7.832   4.946   8.232
  106PPPE   O2147242   7.650   5.024   8.277
  106PPPE   C2147243   7.641   5.060   8.407
  106PPPE   O2247244   7.709   5.017   8.498
  106PPPE   C2247245   7.520   5.151   8.442
  106PPPE   H2R47246   7.470   5.061   8.451
  106PPPE   H2S47247   7.464   5.211   8.369
  106PPPE    C347248   7.851   5.167   8.252
  106PPPE    HX47249   7.869   5.163   8.362
  106PPPE    HY47250   7.951   5.157   8.204
  106PPPE   O3147251   7.783   5.291   8.222
  106PPPE   C3147252   7.850   5.376   8.141
  106PPPE   O3247253   7.956   5.350   8.090
  106PPPE   C3247254   7.777   5.513   8.136
  106PPPE   H2X47255   7.736   5.528   8.035
  106PPPE   H2Y47256   7.852   5.592   8.151
  106PPPE   C2347257   7.467   5.168   8.587
  106PPPE   H3R47258   7.507   5.259   8.620
  106PPPE   H3S47259   7.524   5.104   8.657
  106PPPE   C2447260   7.314   5.144   8.617
  106PPPE   H4R47261   7.305   5.121   8.726
  106PPPE   H4S47262   7.271   5.061   8.559
  106PPPE   C2547263   7.204   5.234   8.583
  106PPPE   H5R47264   7.110   5.214   8.640
  106PPPE   H5S47265   7.175   5.216   8.477
  106PPPE   C2647266   7.271   5.362   8.613
  106PPPE   H6R47267   7.194   5.430   8.600
  106PPPE   H6S47268   7.355   5.378   8.544
  106PPPE   C2747269   7.310   5.407   8.753
  106PPPE   H7R47270   7.368   5.500   8.738
  106PPPE   H7S47271   7.374   5.326   8.794
  106PPPE   C2847272   7.197   5.461   8.840
  106PPPE   H8R47273   7.118   5.527   8.804
  106PPPE   H8S47274   7.236   5.502   8.934
  106PPPE   C2947275   7.143   5.333   8.860
  106PPPE   H9147276   7.037   5.322   8.825
  106PPPE  C21047277   7.191   5.256   8.960
  106PPPE  H10147278   7.145   5.166   8.980
  106PPPE  C21147279   7.287   5.247   9.069
  106PPPE  H11R47280   7.376   5.278   9.013
  106PPPE  H11S47281   7.285   5.141   9.099
  106PPPE  C21247282   7.274   5.319   9.207
  106PPPE  H12R47283   7.266   5.420   9.158
  106PPPE  H12S47284   7.374   5.319   9.247
  106PPPE  C21347285   7.179   5.274   9.331
  106PPPE  H13R47286   7.177   5.171   9.352
  106PPPE  H13S47287   7.077   5.288   9.285
  106PPPE  C21447288   7.194   5.344   9.463
  106PPPE  H14R47289   7.272   5.363   9.500
  106PPPE  H14S47290   7.105   5.277   9.516
  106PPPE  C21547291   7.205   5.594   9.475
  106PPPE  H15R47292   7.128   5.710   9.449
  106PPPE  H15S47293   7.201   5.649   9.397
  106PPPE  C21647294   7.269   5.644   9.554
  106PPPE  H16R47295   7.332   5.564   9.580
  106PPPE  H16S47296   7.253   5.646   9.654
  106PPPE  H16T47297   7.157   5.652   9.592
  106PPPE   C3347298   7.663   5.528   8.241
  106PPPE   H3X47299   7.599   5.439   8.240
  106PPPE   H3Y47300   7.599   5.615   8.217
  106PPPE   C3447301   7.712   5.559   8.381
  106PPPE   H4X47302   7.737   5.666   8.364
  106PPPE   H4Y47303   7.798   5.496   8.409
  106PPPE   C3547304   7.609   5.560   8.492
  106PPPE   H5X47305   7.519   5.519   8.444
  106PPPE   H5Y47306   7.591   5.664   8.530
  106PPPE   C3647307   7.641   5.468   8.609
  106PPPE   H6X47308   7.688   5.377   8.565
  106PPPE   H6Y47309   7.546   5.440   8.657
  106PPPE   C3747310   7.722   5.532   8.720
  106PPPE   H7X47311   7.669   5.615   8.770
  106PPPE   H7Y47312   7.800   5.587   8.669
  106PPPE   C3847313   7.772   5.427   8.820
  106PPPE   H8X47314   7.878   5.441   8.846
  106PPPE   H8Y47315   7.765   5.328   8.769
  106PPPE   C3947316   7.689   5.421   8.947
  106PPPE   H9X47317   7.692   5.321   8.995
  106PPPE   H9Y47318   7.585   5.445   8.914
  106PPPE  C31047319   7.733   5.518   9.054
  106PPPE  H10X47320   7.797   5.599   9.010
  106PPPE  H10Y47321   7.794   5.470   9.135
  106PPPE  C31147322   7.612   5.583   9.112
  106PPPE  H11X47323   7.530   5.517   9.148
  106PPPE  H11Y47324   7.569   5.652   9.038
  106PPPE  C31247325   7.659   5.660   9.228
  106PPPE  H12X47326   7.575   5.728   9.248
  106PPPE  H12Y47327   7.742   5.725   9.195
  106PPPE  C31347328   7.694   5.577   9.354
  106PPPE  H13X47329   7.722   5.636   9.436
  106PPPE  H13Y47330   7.788   5.522   9.350
  106PPPE  C31447331   7.573   5.512   9.419
  106PPPE  H14X47332   7.561   5.423   9.354
  106PPPE  H14Y47333   7.490   5.585   9.408
  106PPPE  C31547334   7.585   5.464   9.566
  106PPPE  H15X47335   7.670   5.393   9.567
  106PPPE  H15Y47336   7.490   5.410   9.587
  106PPPE  C31647337   7.606   5.561   9.684
  106PPPE  H16X47338   7.554   5.658   9.666
  106PPPE  H16Y47339   7.567   5.521   9.779
  106PPPE  H16Z47340   7.715   5.580   9.697
  107PPPE     N47341   1.530   6.413   7.750
  107PPPE   HN147342   1.615   6.401   7.691
  107PPPE   HN247343   1.555   6.423   7.851
  107PPPE   HN347344   1.472   6.327   7.740
  107PPPE   C1247345   1.451   6.532   7.705
  107PPPE  H12A47346   1.385   6.502   7.620
  107PPPE  H12B47347   1.522   6.608   7.669
  107PPPE   C1147348   1.367   6.587   7.820
  107PPPE  H11A47349   1.438   6.615   7.902
  107PPPE  H11B47350   1.294   6.512   7.858
  107PPPE     P47351   1.220   6.791   7.875
  107PPPE   O1347352   1.230   6.932   7.834
  107PPPE   O1447353   1.090   6.727   7.889
  107PPPE   O1147354   1.300   6.765   8.011
  107PPPE   O1247355   1.300   6.702   7.772
  107PPPE    C147356   1.265   6.838   8.130
  107PPPE    HA47357   1.157   6.863   8.134
  107PPPE    HB47358   1.323   6.933   8.135
  107PPPE    C247359   1.304   6.758   8.258
  107PPPE    HS47360   1.272   6.819   8.346
  107PPPE   O2147361   1.443   6.726   8.258
  107PPPE   C2147362   1.504   6.739   8.373
  107PPPE   O2247363   1.461   6.791   8.474
  107PPPE   C2247364   1.641   6.684   8.359
  107PPPE   H2R47365   1.713   6.758   8.397
  107PPPE   H2S47366   1.665   6.656   8.254
  107PPPE    C347367   1.230   6.624   8.264
  107PPPE    HX47368   1.128   6.648   8.279
  107PPPE    HY47369   1.240   6.573   8.165
  107PPPE   O3147370   1.274   6.536   8.367
  107PPPE   C3147371   1.215   6.555   8.483
  107PPPE   O3247372   1.130   6.638   8.509
  107PPPE   C3247373   1.275   6.465   8.582
  107PPPE   H2X47374   1.376   6.507   8.598
  107PPPE   H2Y47375   1.280   6.362   8.539
  107PPPE   C2347376   1.653   6.568   8.452
  107PPPE   H3R47377   1.746   6.518   8.415
  107PPPE   H3S47378   1.569   6.493   8.435
  107PPPE   C2447379   1.681   6.604   8.602
  107PPPE   H4R47380   1.596   6.660   8.647
  107PPPE   H4S47381   1.782   6.646   8.614
  107PPPE   C2547382   1.692   6.486   8.695
  107PPPE   H5R47383   1.776   6.420   8.675
  107PPPE   H5S47384   1.600   6.454   8.646
  107PPPE   C2647385   1.699   6.490   8.843
  107PPPE   H6R47386   1.624   6.563   8.880
  107PPPE   H6S47387   1.804   6.505   8.868
  107PPPE   C2747388   1.687   6.360   8.918
  107PPPE   H7R47389   1.709   6.258   8.883
  107PPPE   H7S47390   1.584   6.362   8.909
  107PPPE   C2847391   1.711   6.374   9.066
  107PPPE   H8R47392   1.815   6.369   9.091
  107PPPE   H8S47393   1.699   6.262   9.081
  107PPPE   C2947394   1.619   6.486   9.134
  107PPPE   H9147395   1.587   6.565   9.067
  107PPPE  C21047396   1.552   6.492   9.259
  107PPPE  H10147397   1.465   6.550   9.285
  107PPPE  C21147398   1.533   6.409   9.381
  107PPPE  H11R47399   1.574   6.430   9.475
  107PPPE  H11S47400   1.610   6.369   9.319
  107PPPE  C21247401   1.426   6.313   9.459
  107PPPE  H12R47402   1.456   6.236   9.532
  107PPPE  H12S47403   1.386   6.221   9.420
  107PPPE  C21347404   1.294   6.360   9.452
  107PPPE  H13R47405   1.223   6.273   9.447
  107PPPE  H13S47406   1.281   6.427   9.365
  107PPPE  C21447407   1.309   6.408   9.587
  107PPPE  H14R47408   1.406   6.466   9.595
  107PPPE  H14S47409   1.307   6.304   9.639
  107PPPE  C21547410   1.200   6.506   9.605
  107PPPE  H15R47411   1.103   6.472   9.569
  107PPPE  H15S47412   1.208   6.588   9.533
  107PPPE  C21647413   1.192   6.535   9.751
  107PPPE  H16R47414   1.097   6.587   9.767
  107PPPE  H16S47415   1.193   6.446   9.818
  107PPPE  H16T47416   1.282   6.595   9.772
  107PPPE   C3347417   1.189   6.469   8.708
  107PPPE   H3X47418   1.186   6.362   8.737
  107PPPE   H3Y47419   1.081   6.484   8.694
  107PPPE   C3447420   1.248   6.564   8.816
  107PPPE   H4X47421   1.357   6.544   8.832
  107PPPE   H4Y47422   1.198   6.543   8.913
  107PPPE   C3547423   1.246   6.712   8.783
  107PPPE   H5X47424   1.144   6.739   8.747
  107PPPE   H5Y47425   1.319   6.730   8.700
  107PPPE   C3647426   1.280   6.797   8.905
  107PPPE   H6X47427   1.202   6.774   8.981
  107PPPE   H6Y47428   1.274   6.904   8.876
  107PPPE   C3747429   1.411   6.766   8.978
  107PPPE   H7X47430   1.502   6.785   8.917
  107PPPE   H7Y47431   1.413   6.659   9.007
  107PPPE   C3847432   1.418   6.849   9.105
  107PPPE   H8X47433   1.339   6.816   9.177
  107PPPE   H8Y47434   1.397   6.954   9.074
  107PPPE   C3947435   1.556   6.835   9.170
  107PPPE   H9X47436   1.631   6.871   9.097
  107PPPE   H9Y47437   1.575   6.734   9.202
  107PPPE  C31047438   1.568   6.911   9.299
  107PPPE  H10X47439   1.467   6.916   9.346
  107PPPE  H10Y47440   1.594   6.996   9.237
  107PPPE  C31147441   1.684   6.921   9.397
  107PPPE  H11X47442   1.659   6.982   9.487
  107PPPE  H11Y47443   1.772   6.972   9.354
  107PPPE  C31247444   1.719   6.781   9.430
  107PPPE  H12X47445   1.808   6.783   9.495
  107PPPE  H12Y47446   1.746   6.733   9.333
  107PPPE  C31347447   1.602   6.704   9.492
  107PPPE  H13X47448   1.639   6.601   9.504
  107PPPE  H13Y47449   1.514   6.698   9.424
  107PPPE  C31447450   1.555   6.754   9.629
  107PPPE  H14X47451   1.632   6.824   9.670
  107PPPE  H14Y47452   1.547   6.668   9.699
  107PPPE  C31547453   1.418   6.820   9.628
  107PPPE  H15X47454   1.338   6.756   9.586
  107PPPE  H15Y47455   1.421   6.906   9.561
  107PPPE  C31647456   1.369   6.863   9.763
  107PPPE  H16X47457   1.368   6.796   9.849
  107PPPE  H16Y47458   1.446   6.927   9.807
  107PPPE  H16Z47459   1.269   6.913   9.749
  108PPPE     N47460   3.647   7.845   7.624
  108PPPE   HN147461   3.736   7.891   7.657
  108PPPE   HN247462   3.665   7.795   7.534
  108PPPE   HN347463   3.578   7.923   7.613
  108PPPE   C1247464   3.597   7.752   7.732
  108PPPE  H12A47465   3.679   7.680   7.755
  108PPPE  H12B47466   3.508   7.699   7.692
  108PPPE   C1147467   3.557   7.830   7.858
  108PPPE  H11A47468   3.633   7.909   7.878
  108PPPE  H11B47469   3.555   7.762   7.947
  108PPPE     P47470   3.383   8.021   7.901
  108PPPE   O1347471   3.429   8.125   7.809
  108PPPE   O1447472   3.239   8.022   7.929
  108PPPE   O1147473   3.472   8.032   8.031
  108PPPE   O1247474   3.426   7.881   7.839
  108PPPE    C147475   3.420   8.106   8.141
  108PPPE    HA47476   3.317   8.072   8.167
  108PPPE    HB47477   3.413   8.215   8.116
  108PPPE    C247478   3.510   8.087   8.266
  108PPPE    HS47479   3.598   8.154   8.251
  108PPPE   O2147480   3.551   7.949   8.281
  108PPPE   C2147481   3.669   7.933   8.341
  108PPPE   O2247482   3.730   8.020   8.400
  108PPPE   C2247483   3.723   7.794   8.312
  108PPPE   H2R47484   3.833   7.804   8.299
  108PPPE   H2S47485   3.677   7.753   8.220
  108PPPE    C347486   3.434   8.135   8.391
  108PPPE    HX47487   3.501   8.127   8.479
  108PPPE    HY47488   3.412   8.243   8.372
  108PPPE   O3147489   3.309   8.065   8.405
  108PPPE   C3147490   3.300   7.975   8.501
  108PPPE   O3247491   3.379   7.957   8.593
  108PPPE   C3247492   3.175   7.895   8.480
  108PPPE   H2X47493   3.100   7.954   8.423
  108PPPE   H2Y47494   3.129   7.868   8.577
  108PPPE   C2347495   3.701   7.697   8.428
  108PPPE   H3R47496   3.734   7.596   8.397
  108PPPE   H3S47497   3.593   7.687   8.451
  108PPPE   C2447498   3.777   7.745   8.552
  108PPPE   H4R47499   3.861   7.814   8.527
  108PPPE   H4S47500   3.813   7.660   8.608
  108PPPE   C2547501   3.690   7.798   8.664
  108PPPE   H5R47502   3.607   7.725   8.679
  108PPPE   H5S47503   3.648   7.892   8.624
  108PPPE   C2647504   3.767   7.822   8.795
  108PPPE   H6R47505   3.835   7.909   8.786
  108PPPE   H6S47506   3.838   7.739   8.807
  108PPPE   C2747507   3.674   7.841   8.918
  108PPPE   H7R47508   3.625   7.743   8.936
  108PPPE   H7S47509   3.587   7.903   8.887
  108PPPE   C2847510   3.731   7.913   9.046
  108PPPE   H8R47511   3.640   7.952   9.094
  108PPPE   H8S47512   3.799   7.994   9.012
  108PPPE   C2947513   3.794   7.857   9.166
  108PPPE   H9147514   3.896   7.826   9.134
  108PPPE  C21047515   3.718   7.781   9.254
  108PPPE  H10147516   3.745   7.685   9.303
  108PPPE  C21147517   3.585   7.735   9.267
  108PPPE  H11R47518   3.573   7.629   9.230
  108PPPE  H11S47519   3.537   7.805   9.204
  108PPPE  C21247520   3.589   7.754   9.418
  108PPPE  H12R47521   3.641   7.675   9.479
  108PPPE  H12S47522   3.483   7.744   9.443
  108PPPE  C21347523   3.643   7.896   9.455
  108PPPE  H13R47524   3.573   7.964   9.403
  108PPPE  H13S47525   3.745   7.930   9.420
  108PPPE  C21447526   3.656   7.908   9.601
  108PPPE  H14R47527   3.708   8.002   9.620
  108PPPE  H14S47528   3.719   7.827   9.642
  108PPPE  C21547529   3.516   7.904   9.655
  108PPPE  H15R47530   3.473   7.803   9.639
  108PPPE  H15S47531   3.458   7.977   9.594
  108PPPE  C21647532   3.509   7.942   9.801
  108PPPE  H16R47533   3.574   7.878   9.864
  108PPPE  H16S47534   3.541   8.046   9.812
  108PPPE  H16T47535   3.405   7.936   9.836
  108PPPE   C3347536   3.223   7.776   8.398
  108PPPE   H3X47537   3.274   7.803   8.303
  108PPPE   H3Y47538   3.131   7.725   8.373
  108PPPE   C3447539   3.302   7.669   8.471
  108PPPE   H4X47540   3.396   7.702   8.519
  108PPPE   H4Y47541   3.333   7.588   8.401
  108PPPE   C3547542   3.219   7.611   8.579
  108PPPE   H5X47543   3.110   7.611   8.562
  108PPPE   H5Y47544   3.222   7.668   8.673
  108PPPE   C3647545   3.267   7.471   8.595
  108PPPE   H6X47546   3.258   7.406   8.505
  108PPPE   H6Y47547   3.189   7.449   8.669
  108PPPE   C3747548   3.410   7.440   8.638
  108PPPE   H7X47549   3.477   7.462   8.555
  108PPPE   H7Y47550   3.423   7.329   8.651
  108PPPE   C3847551   3.453   7.512   8.763
  108PPPE   H8X47552   3.416   7.618   8.767
  108PPPE   H8Y47553   3.561   7.500   8.780
  108PPPE   C3947554   3.388   7.450   8.880
  108PPPE   H9X47555   3.419   7.342   8.885
  108PPPE   H9Y47556   3.287   7.460   8.839
  108PPPE  C31047557   3.401   7.531   9.012
  108PPPE  H10X47558   3.369   7.632   9.022
  108PPPE  H10Y47559   3.510   7.517   9.030
  108PPPE  C31147560   3.299   7.489   9.120
  108PPPE  H11X47561   3.333   7.391   9.069
  108PPPE  H11Y47562   3.197   7.493   9.107
  108PPPE  C31247563   3.278   7.514   9.284
  108PPPE  H12X47564   3.244   7.615   9.284
  108PPPE  H12Y47565   3.364   7.543   9.337
  108PPPE  C31347566   3.202   7.423   9.395
  108PPPE  H13X47567   3.229   7.321   9.435
  108PPPE  H13Y47568   3.104   7.405   9.355
  108PPPE  C31447569   3.194   7.474   9.538
  108PPPE  H14X47570   3.133   7.399   9.596
  108PPPE  H14Y47571   3.150   7.574   9.533
  108PPPE  C31547572   3.321   7.467   9.616
  108PPPE  H15X47573   3.397   7.542   9.582
  108PPPE  H15Y47574   3.356   7.363   9.638
  108PPPE  C31647575   3.311   7.518   9.742
  108PPPE  H16X47576   3.300   7.628   9.714
  108PPPE  H16Y47577   3.223   7.480   9.793
  108PPPE  H16Z47578   3.403   7.504   9.807
  109PPPE     N47579   6.639   7.129   7.632
  109PPPE   HN147580   6.705   7.136   7.552
  109PPPE   HN247581   6.687   7.163   7.719
  109PPPE   HN347582   6.609   7.030   7.648
  109PPPE   C1247583   6.510   7.204   7.606
  109PPPE  H12A47584   6.458   7.157   7.521
  109PPPE  H12B47585   6.538   7.304   7.570
  109PPPE   C1147586   6.422   7.225   7.732
  109PPPE  H11A47587   6.333   7.286   7.702
  109PPPE  H11B47588   6.480   7.289   7.802
  109PPPE     P47589   6.344   7.085   7.947
  109PPPE   O1347590   6.284   7.209   7.999
  109PPPE   O1447591   6.275   6.956   7.970
  109PPPE   O1147592   6.487   7.079   8.007
  109PPPE   O1247593   6.382   7.101   7.791
  109PPPE    C147594   6.584   6.983   7.972
  109PPPE    HA47595   6.672   7.020   8.027
  109PPPE    HB47596   6.609   6.986   7.865
  109PPPE    C247597   6.544   6.837   8.005
  109PPPE    HS47598   6.467   6.798   7.936
  109PPPE   O2147599   6.492   6.845   8.138
  109PPPE   C2147600   6.430   6.746   8.182
  109PPPE   O2247601   6.427   6.631   8.136
  109PPPE   C2247602   6.369   6.794   8.316
  109PPPE   H2R47603   6.341   6.704   8.359
  109PPPE   H2S47604   6.264   6.815   8.326
  109PPPE    C347605   6.661   6.743   7.991
  109PPPE    HX47606   6.640   6.635   8.004
  109PPPE    HY47607   6.720   6.759   7.899
  109PPPE   O3147608   6.729   6.783   8.102
  109PPPE   C3147609   6.827   6.867   8.094
  109PPPE   O3247610   6.882   6.906   7.993
  109PPPE   C3247611   6.870   6.871   8.236
  109PPPE   H2X47612   6.973   6.913   8.259
  109PPPE   H2Y47613   6.850   6.762   8.252
  109PPPE   C2347614   6.458   6.883   8.406
  109PPPE   H3R47615   6.565   6.875   8.379
  109PPPE   H3S47616   6.457   6.856   8.515
  109PPPE   C2447617   6.403   7.021   8.394
  109PPPE   H4R47618   6.319   7.017   8.321
  109PPPE   H4S47619   6.482   7.082   8.346
  109PPPE   C2547620   6.352   7.072   8.528
  109PPPE   H5R47621   6.286   6.995   8.574
  109PPPE   H5S47622   6.292   7.163   8.509
  109PPPE   C2647623   6.466   7.101   8.625
  109PPPE   H6R47624   6.541   7.164   8.572
  109PPPE   H6S47625   6.515   7.005   8.652
  109PPPE   C2747626   6.414   7.166   8.754
  109PPPE   H7R47627   6.326   7.112   8.793
  109PPPE   H7S47628   6.381   7.269   8.727
  109PPPE   C2847629   6.514   7.170   8.871
  109PPPE   H8R47630   6.462   7.230   8.949
  109PPPE   H8S47631   6.602   7.231   8.839
  109PPPE   C2947632   6.555   7.032   8.919
  109PPPE   H9147633   6.603   6.967   8.845
  109PPPE  C21047634   6.522   6.971   9.035
  109PPPE  H10147635   6.574   6.876   9.061
  109PPPE  C21147636   6.433   7.032   9.142
  109PPPE  H11R47637   6.377   6.953   9.197
  109PPPE  H11S47638   6.360   7.104   9.101
  109PPPE  C21247639   6.501   7.116   9.247
  109PPPE  H12R47640   6.506   7.225   9.235
  109PPPE  H12S47641   6.606   7.078   9.229
  109PPPE  C21347642   6.442   7.084   9.389
  109PPPE  H13R47643   6.472   6.976   9.395
  109PPPE  H13S47644   6.334   7.080   9.397
  109PPPE  C21447645   6.469   7.165   9.521
  109PPPE  H14R47646   6.438   7.266   9.549
  109PPPE  H14S47647   6.565   7.217   9.532
  109PPPE  C21547648   6.472   7.075   9.641
  109PPPE  H15R47649   6.519   7.150   9.709
  109PPPE  H15S47650   6.524   6.975   9.634
  109PPPE  C21647651   6.373   6.991   9.704
  109PPPE  H16R47652   6.419   6.911   9.770
  109PPPE  H16S47653   6.345   7.079   9.763
  109PPPE  H16T47654   6.335   6.949   9.608
  109PPPE   C3347655   6.839   6.952   8.348
  109PPPE   H3X47656   6.753   6.889   8.376
  109PPPE   H3Y47657   6.836   7.046   8.292
  109PPPE   C3447658   6.953   6.960   8.450
  109PPPE   H4X47659   7.060   6.930   8.435
  109PPPE   H4Y47660   6.928   6.872   8.502
  109PPPE   C3547661   6.907   7.017   8.572
  109PPPE   H5X47662   6.799   7.040   8.568
  109PPPE   H5Y47663   6.966   7.101   8.576
  109PPPE   C3647664   6.982   6.974   8.693
  109PPPE   H6X47665   7.090   6.998   8.689
  109PPPE   H6Y47666   6.983   6.876   8.727
  109PPPE   C3747667   6.921   7.051   8.797
  109PPPE   H7X47668   6.809   7.044   8.797
  109PPPE   H7Y47669   6.940   7.156   8.762
  109PPPE   C3847670   6.986   7.014   8.931
  109PPPE   H8X47671   7.091   7.048   8.935
  109PPPE   H8Y47672   6.964   6.910   8.950
  109PPPE   C3947673   6.921   7.059   9.057
  109PPPE   H9X47674   6.811   7.043   9.042
  109PPPE   H9Y47675   6.969   7.160   9.067
  109PPPE  C31047676   6.958   7.034   9.196
  109PPPE  H10X47677   6.910   7.107   9.254
  109PPPE  H10Y47678   7.061   7.064   9.220
  109PPPE  C31147679   6.885   6.914   9.237
  109PPPE  H11X47680   6.928   6.844   9.165
  109PPPE  H11Y47681   6.775   6.912   9.219
  109PPPE  C31247682   6.916   6.867   9.371
  109PPPE  H12X47683   6.909   6.931   9.460
  109PPPE  H12Y47684   7.019   6.869   9.369
  109PPPE  C31347685   6.858   6.727   9.380
  109PPPE  H13X47686   6.925   6.661   9.318
  109PPPE  H13Y47687   6.751   6.722   9.363
  109PPPE  C31447688   6.862   6.674   9.516
  109PPPE  H14X47689   6.962   6.726   9.515
  109PPPE  H14Y47690   6.889   6.566   9.517
  109PPPE  C31547691   6.750   6.707   9.632
  109PPPE  H15X47692   6.687   6.622   9.612
  109PPPE  H15Y47693   6.710   6.800   9.614
  109PPPE  C31647694   6.739   6.740   9.791
  109PPPE  H16X47695   6.665   6.710   9.865
  109PPPE  H16Y47696   6.754   6.660   9.866
  109PPPE  H16Z47697   6.814   6.818   9.820
  110PPPE     N47698   0.561   1.854   7.828
  110PPPE   HN147699   0.515   1.763   7.811
  110PPPE   HN247700   0.554   1.884   7.928
  110PPPE   HN347701   0.528   1.928   7.765
  110PPPE   C1247702   0.706   1.840   7.792
  110PPPE  H12A47703   0.741   1.942   7.767
  110PPPE  H12B47704   0.713   1.774   7.703
  110PPPE   C1147705   0.785   1.781   7.909
  110PPPE  H11A47706   0.726   1.701   7.959
  110PPPE  H11B47707   0.807   1.857   7.988
  110PPPE     P47708   1.035   1.803   7.824
  110PPPE   O1347709   1.144   1.705   7.801
  110PPPE   O1447710   1.001   1.900   7.719
  110PPPE   O1147711   1.058   1.881   7.959
  110PPPE   O1247712   0.903   1.721   7.857
  110PPPE    C147713   1.131   1.819   8.065
  110PPPE    HA47714   1.145   1.897   8.142
  110PPPE    HB47715   1.232   1.784   8.032
  110PPPE    C247716   1.057   1.700   8.130
  110PPPE    HS47717   1.021   1.631   8.050
  110PPPE   O2147718   0.951   1.755   8.208
  110PPPE   C2147719   0.856   1.673   8.235
  110PPPE   O2247720   0.829   1.568   8.178
  110PPPE   C2247721   0.785   1.731   8.356
  110PPPE   H2R47722   0.763   1.838   8.348
  110PPPE   H2S47723   0.853   1.717   8.442
  110PPPE    C347724   1.152   1.614   8.218
  110PPPE    HX47725   1.111   1.511   8.224
  110PPPE    HY47726   1.249   1.607   8.163
  110PPPE   O3147727   1.174   1.676   8.347
  110PPPE   C3147728   1.152   1.600   8.453
  110PPPE   O3247729   1.121   1.482   8.452
  110PPPE   C3247730   1.178   1.681   8.579
  110PPPE   H2X47731   1.125   1.778   8.570
  110PPPE   H2Y47732   1.287   1.694   8.587
  110PPPE   C2347733   0.648   1.669   8.369
  110PPPE   H3R47734   0.666   1.562   8.349
  110PPPE   H3S47735   0.578   1.695   8.287
  110PPPE   C2447736   0.583   1.721   8.498
  110PPPE   H4R47737   0.489   1.672   8.532
  110PPPE   H4S47738   0.547   1.823   8.479
  110PPPE   C2547739   0.681   1.731   8.617
  110PPPE   H5R47740   0.607   1.761   8.699
  110PPPE   H5S47741   0.753   1.810   8.611
  110PPPE   C2647742   0.784   1.608   8.647
  110PPPE   H6R47743   0.807   1.510   8.606
  110PPPE   H6S47744   0.693   1.570   8.618
  110PPPE   C2747745   0.827   1.593   8.795
  110PPPE   H7R47746   0.751   1.673   8.804
  110PPPE   H7S47747   0.879   1.679   8.838
  110PPPE   C2847748   0.829   1.450   8.907
  110PPPE   H8R47749   0.907   1.502   8.972
  110PPPE   H8S47750   0.888   1.383   8.845
  110PPPE   C2947751   0.698   1.374   9.007
  110PPPE   H9147752   0.639   1.319   8.938
  110PPPE  C21047753   0.603   1.411   9.142
  110PPPE  H10147754   0.497   1.363   9.127
  110PPPE  C21147755   0.625   1.637   9.272
  110PPPE  H11R47756   0.586   1.712   9.179
  110PPPE  H11S47757   0.694   1.735   9.223
  110PPPE  C21247758   0.659   1.552   9.368
  110PPPE  H12R47759   0.593   1.467   9.363
  110PPPE  H12S47760   0.643   1.642   9.425
  110PPPE  C21347761   0.763   1.449   9.394
  110PPPE  H13R47762   0.862   1.475   9.358
  110PPPE  H13S47763   0.737   1.345   9.357
  110PPPE  C21447764   0.760   1.447   9.539
  110PPPE  H14R47765   0.672   1.382   9.563
  110PPPE  H14S47766   0.744   1.555   9.566
  110PPPE  C21547767   0.900   1.413   9.576
  110PPPE  H15R47768   0.966   1.490   9.527
  110PPPE  H15S47769   0.927   1.313   9.536
  110PPPE  C21647770   0.914   1.424   9.724
  110PPPE  H16R47771   1.015   1.390   9.749
  110PPPE  H16S47772   0.901   1.530   9.757
  110PPPE  H16T47773   0.837   1.360   9.772
  110PPPE   C3347774   1.131   1.603   8.702
  110PPPE   H3X47775   1.137   1.493   8.692
  110PPPE   H3Y47776   1.027   1.627   8.712
  110PPPE   C3447777   1.206   1.634   8.832
  110PPPE   H4X47778   1.313   1.655   8.811
  110PPPE   H4Y47779   1.200   1.540   8.892
  110PPPE   C3547780   1.142   1.749   8.909
  110PPPE   H5X47781   1.036   1.723   8.929
  110PPPE   H5Y47782   1.145   1.840   8.845
  110PPPE   C3647783   1.210   1.780   9.041
  110PPPE   H6X47784   1.159   1.869   9.087
  110PPPE   H6Y47785   1.317   1.803   9.026
  110PPPE   C3747786   1.204   1.663   9.139
  110PPPE   H7X47787   1.250   1.572   9.095
  110PPPE   H7Y47788   1.097   1.642   9.158
  110PPPE   C3847789   1.283   1.694   9.266
  110PPPE   H8X47790   1.390   1.712   9.241
  110PPPE   H8Y47791   1.279   1.603   9.330
  110PPPE   C3947792   1.229   1.813   9.344
  110PPPE   H9X47793   1.225   1.912   9.293
  110PPPE   H9Y47794   1.298   1.825   9.431
  110PPPE  C31047795   1.085   1.793   9.385
  110PPPE  H10X47796   1.083   1.700   9.449
  110PPPE  H10Y47797   1.011   1.782   9.304
  110PPPE  C31147798   1.043   1.923   9.454
  110PPPE  H11X47799   1.120   2.000   9.470
  110PPPE  H11Y47800   1.043   1.867   9.540
  110PPPE  C31247801   0.901   1.958   9.493
  110PPPE  H12X47802   0.857   1.996   9.401
  110PPPE  H12Y47803   0.901   2.036   9.574
  110PPPE  C31347804   0.819   1.840   9.544
  110PPPE  H13X47805   0.842   1.819   9.651
  110PPPE  H13Y47806   0.843   1.747   9.487
  110PPPE  C31447807   0.673   1.872   9.525
  110PPPE  H14X47808   0.640   1.848   9.422
  110PPPE  H14Y47809   0.654   1.982   9.537
  110PPPE  C31547810   0.588   1.789   9.620
  110PPPE  H15X47811   0.568   1.687   9.588
  110PPPE  H15Y47812   0.493   1.828   9.611
  110PPPE  C31647813   0.609   1.804   9.768
  110PPPE  H16X47814   0.511   1.821   9.819
  110PPPE  H16Y47815   0.655   1.710   9.804
  110PPPE  H16Z47816   0.678   1.889   9.786
  111PPPE     N47817   7.780   2.738   7.534
  111PPPE   HN147818   7.743   2.650   7.576
  111PPPE   HN247819   7.716   2.768   7.459
  111PPPE   HN347820   7.876   2.722   7.499
  111PPPE   C1247821   7.777   2.849   7.636
  111PPPE  H12A47822   7.694   2.830   7.706
  111PPPE  H12B47823   7.758   2.945   7.583
  111PPPE   C1147824   7.904   2.850   7.721
  111PPPE  H11A47825   7.995   2.856   7.658
  111PPPE  H11B47826   7.905   2.753   7.776
  111PPPE     P47827   7.949   2.944   7.958
  111PPPE   O1347828   8.077   2.879   7.946
  111PPPE   O1447829   7.934   3.071   8.035
  111PPPE   O1147830   7.847   2.837   8.011
  111PPPE   O1247831   7.897   2.962   7.810
  111PPPE    C147832   7.715   2.867   8.044
  111PPPE    HA47833   7.646   2.794   7.994
  111PPPE    HB47834   7.685   2.968   8.004
  111PPPE    C247835   7.702   2.861   8.200
  111PPPE    HS47836   7.764   2.946   8.238
  111PPPE   O2147837   7.736   2.740   8.266
  111PPPE   C2147838   7.709   2.735   8.396
  111PPPE   O2247839   7.655   2.816   8.469
  111PPPE   C2247840   7.763   2.608   8.450
  111PPPE   H2R47841   7.718   2.525   8.393
  111PPPE   H2S47842   7.727   2.607   8.555
  111PPPE    C347843   7.560   2.888   8.234
  111PPPE    HX47844   7.539   2.929   8.331
  111PPPE    HY47845   7.562   2.976   8.167
  111PPPE   O3147846   7.472   2.775   8.204
  111PPPE   C3147847   7.350   2.745   8.253
  111PPPE   O3247848   7.260   2.806   8.303
  111PPPE   C3247849   7.317   2.608   8.247
  111PPPE   H2X47850   7.394   2.560   8.186
  111PPPE   H2Y47851   7.216   2.620   8.198
  111PPPE   C2347852   7.914   2.618   8.438
  111PPPE   H3R47853   7.947   2.621   8.331
  111PPPE   H3S47854   7.963   2.529   8.480
  111PPPE   C2447855   7.973   2.736   8.513
  111PPPE   H4R47856   7.954   2.834   8.463
  111PPPE   H4S47857   8.081   2.711   8.512
  111PPPE   C2547858   7.935   2.746   8.658
  111PPPE   H5R47859   7.962   2.648   8.705
  111PPPE   H5S47860   7.833   2.780   8.680
  111PPPE   C2647861   8.008   2.847   8.738
  111PPPE   H6R47862   7.985   2.955   8.740
  111PPPE   H6S47863   8.105   2.839   8.698
  111PPPE   C2747864   8.010   2.788   8.872
  111PPPE   H7R47865   8.086   2.816   8.932
  111PPPE   H7S47866   8.061   2.690   8.867
  111PPPE   C2847867   7.894   2.822   8.961
  111PPPE   H8R47868   7.900   2.789   9.066
  111PPPE   H8S47869   7.817   2.767   8.909
  111PPPE   C2947870   7.875   2.967   8.969
  111PPPE   H9147871   7.829   3.018   8.883
  111PPPE  C21047872   7.886   3.034   9.082
  111PPPE  H10147873   7.881   3.140   9.059
  111PPPE  C21147874   7.915   2.998   9.227
  111PPPE  H11R47875   8.013   3.042   9.254
  111PPPE  H11S47876   7.919   2.889   9.244
  111PPPE  C21247877   7.824   3.052   9.339
  111PPPE  H12R47878   7.715   3.031   9.328
  111PPPE  H12S47879   7.831   3.161   9.349
  111PPPE  C21347880   7.867   3.010   9.476
  111PPPE  H13R47881   7.964   3.049   9.509
  111PPPE  H13S47882   7.849   2.901   9.479
  111PPPE  C21447883   7.782   3.083   9.572
  111PPPE  H14R47884   7.683   3.065   9.517
  111PPPE  H14S47885   7.787   3.187   9.580
  111PPPE  C21547886   7.803   3.053   9.727
  111PPPE  H15R47887   7.907   3.063   9.751
  111PPPE  H15S47888   7.799   2.945   9.720
  111PPPE  C21647889   7.703   3.096   9.846
  111PPPE  H16R47890   7.715   3.045   9.943
  111PPPE  H16S47891   7.692   3.202   9.853
  111PPPE  H16T47892   7.594   3.068   9.833
  111PPPE   C3347893   7.289   2.560   8.391
  111PPPE   H3X47894   7.259   2.456   8.371
  111PPPE   H3Y47895   7.204   2.615   8.439
  111PPPE   C3447896   7.410   2.562   8.485
  111PPPE   H4X47897   7.460   2.661   8.484
  111PPPE   H4Y47898   7.480   2.486   8.445
  111PPPE   C3547899   7.379   2.529   8.632
  111PPPE   H5X47900   7.461   2.462   8.663
  111PPPE   H5Y47901   7.283   2.473   8.644
  111PPPE   C3647902   7.384   2.650   8.728
  111PPPE   H6X47903   7.280   2.683   8.732
  111PPPE   H6Y47904   7.437   2.739   8.688
  111PPPE   C3747905   7.431   2.616   8.871
  111PPPE   H7X47906   7.399   2.512   8.893
  111PPPE   H7Y47907   7.376   2.680   8.944
  111PPPE   C3847908   7.581   2.637   8.902
  111PPPE   H8X47909   7.604   2.745   8.888
  111PPPE   H8Y47910   7.647   2.583   8.831
  111PPPE   C3947911   7.621   2.596   9.046
  111PPPE   H9X47912   7.727   2.625   9.059
  111PPPE   H9Y47913   7.617   2.485   9.056
  111PPPE  C31047914   7.537   2.661   9.159
  111PPPE  H10X47915   7.433   2.620   9.157
  111PPPE  H10Y47916   7.532   2.771   9.147
  111PPPE  C31147917   7.586   2.639   9.301
  111PPPE  H11X47918   7.684   2.686   9.323
  111PPPE  H11Y47919   7.599   2.532   9.315
  111PPPE  C31247920   7.478   2.688   9.395
  111PPPE  H12X47921   7.380   2.637   9.392
  111PPPE  H12Y47922   7.464   2.798   9.378
  111PPPE  C31347923   7.518   2.676   9.536
  111PPPE  H13X47924   7.440   2.744   9.580
  111PPPE  H13Y47925   7.628   2.701   9.537
  111PPPE  C31447926   7.511   2.557   9.621
  111PPPE  H14X47927   7.572   2.493   9.565
  111PPPE  H14Y47928   7.410   2.523   9.644
  111PPPE  C31547929   7.602   2.552   9.737
  111PPPE  H15X47930   7.610   2.618   9.805
  111PPPE  H15Y47931   7.701   2.589   9.716
  111PPPE  C31647932   7.573   2.456   9.847
  111PPPE  H16X47933   7.509   2.372   9.823
  111PPPE  H16Y47934   7.679   2.442   9.829
  111PPPE  H16Z47935   7.597   2.465   9.954
  112PPPE     N47936   4.307  -0.260   7.609
  112PPPE   HN147937   4.258  -0.352   7.616
  112PPPE   HN247938   4.284  -0.211   7.521
  112PPPE   HN347939   4.410  -0.274   7.613
  112PPPE   C1247940   4.268  -0.175   7.726
  112PPPE  H12A47941   4.159  -0.189   7.743
  112PPPE  H12B47942   4.289  -0.070   7.696
  112PPPE   C1147943   4.348  -0.217   7.850
  112PPPE  H11A47944   4.346  -0.328   7.857
  112PPPE  H11B47945   4.296  -0.179   7.942
  112PPPE     P47946   4.539  -0.039   7.897
  112PPPE   O1347947   4.686  -0.045   7.913
  112PPPE   O1447948   4.486   0.063   7.803
  112PPPE   O1147949   4.466  -0.023   8.037
  112PPPE   O1247950   4.485  -0.178   7.841
  112PPPE    C147951   4.472   0.109   8.095
  112PPPE    HA47952   4.386   0.124   8.163
  112PPPE    HB47953   4.464   0.189   8.017
  112PPPE    C247954   4.606   0.136   8.169
  112PPPE    HS47955   4.687   0.132   8.094
  112PPPE   O2147956   4.625   0.039   8.270
  112PPPE   C2147957   4.752   0.018   8.294
  112PPPE   O2247958   4.850   0.068   8.245
  112PPPE   C2247959   4.757  -0.088   8.390
  112PPPE   H2R47960   4.856  -0.137   8.390
  112PPPE   H2S47961   4.716  -0.157   8.313
  112PPPE    C347962   4.607   0.273   8.237
  112PPPE    HX47963   4.704   0.301   8.283
  112PPPE    HY47964   4.588   0.350   8.159
  112PPPE   O3147965   4.501   0.279   8.332
  112PPPE   C3147966   4.526   0.246   8.460
  112PPPE   O3247967   4.631   0.210   8.506
  112PPPE   C3247968   4.403   0.268   8.542
  112PPPE   H2X47969   4.359   0.333   8.476
  112PPPE   H2Y47970   4.397   0.334   8.628
  112PPPE   C2347971   4.672  -0.054   8.531
  112PPPE   H3R47972   4.570  -0.024   8.499
  112PPPE   H3S47973   4.737   0.025   8.572
  112PPPE   C2447974   4.633  -0.144   8.661
  112PPPE   H4R47975   4.721  -0.173   8.720
  112PPPE   H4S47976   4.581  -0.242   8.654
  112PPPE   C2547977   4.566  -0.104   8.779
  112PPPE   H5R47978   4.473  -0.080   8.722
  112PPPE   H5S47979   4.640  -0.031   8.815
  112PPPE   C2647980   4.549  -0.231   8.861
  112PPPE   H6R47981   4.630  -0.306   8.879
  112PPPE   H6S47982   4.465  -0.272   8.801
  112PPPE   C2747983   4.490  -0.204   8.991
  112PPPE   H7R47984   4.443  -0.295   9.014
  112PPPE   H7S47985   4.412  -0.129   8.971
  112PPPE   C2847986   4.595  -0.166   9.089
  112PPPE   H8R47987   4.641  -0.101   9.016
  112PPPE   H8S47988   4.671  -0.241   9.122
  112PPPE   C2947989   4.541  -0.073   9.190
  112PPPE   H9147990   4.507   0.021   9.149
  112PPPE  C21047991   4.525  -0.098   9.319
  112PPPE  H10147992   4.483  -0.022   9.384
  112PPPE  C21147993   4.561  -0.227   9.380
  112PPPE  H11R47994   4.617  -0.290   9.307
  112PPPE  H11S47995   4.469  -0.277   9.410
  112PPPE  C21247996   4.648  -0.220   9.501
  112PPPE  H12R47997   4.730  -0.165   9.463
  112PPPE  H12S47998   4.695  -0.315   9.517
  112PPPE  C21347999   4.594  -0.151   9.626
  112PPPE  H13R48000   4.566  -0.052   9.589
  112PPPE  H13S48001   4.671  -0.132   9.701
  112PPPE  C21448002   4.491  -0.229   9.707
  112PPPE  H14R48003   4.534  -0.323   9.721
  112PPPE  H14S48004   4.393  -0.240   9.652
  112PPPE  C21548005   4.489  -0.204   9.857
  112PPPE  H15R48006   4.584  -0.223   9.905
  112PPPE  H15S48007   4.409  -0.271   9.901
  112PPPE  C21648008   4.479  -0.062   9.900
  112PPPE  H16R48009   4.442  -0.028   9.996
  112PPPE  H16S48010   4.503   0.026   9.837
  112PPPE  H16T48011   4.384  -0.095   9.868
  112PPPE   C3348012   4.331   0.142   8.563
  112PPPE   H3X48013   4.401   0.090   8.630
  112PPPE   H3Y48014   4.327   0.093   8.463
  112PPPE   C3448015   4.190   0.157   8.621
  112PPPE   H4X48016   4.143   0.059   8.599
  112PPPE   H4Y48017   4.125   0.230   8.572
  112PPPE   C3548018   4.185   0.194   8.769
  112PPPE   H5X48019   4.084   0.167   8.806
  112PPPE   H5Y48020   4.194   0.303   8.786
  112PPPE   C3648021   4.298   0.126   8.845
  112PPPE   H6X48022   4.397   0.167   8.817
  112PPPE   H6Y48023   4.299   0.017   8.828
  112PPPE   C3748024   4.283   0.148   8.990
  112PPPE   H7X48025   4.352   0.087   9.050
  112PPPE   H7Y48026   4.186   0.102   9.008
  112PPPE   C3848027   4.312   0.292   9.021
  112PPPE   H8X48028   4.279   0.374   8.955
  112PPPE   H8Y48029   4.418   0.301   9.036
  112PPPE   C3948030   4.301   0.327   9.160
  112PPPE   H9X48031   4.206   0.334   9.195
  112PPPE   H9Y48032   4.286   0.437   9.156
  112PPPE  C31048033   4.383   0.231   9.254
  112PPPE  H10X48034   4.380   0.128   9.239
  112PPPE  H10Y48035   4.295   0.221   9.324
  112PPPE  C31148036   4.544   0.244   9.300
  112PPPE  H11X48037   4.570   0.324   9.367
  112PPPE  H11Y48038   4.594   0.281   9.213
  112PPPE  C31248039   4.622   0.230   9.442
  112PPPE  H12X48040   4.638   0.127   9.444
  112PPPE  H12Y48041   4.559   0.212   9.528
  112PPPE  C31348042   4.725   0.344   9.498
  112PPPE  H13X48043   4.690   0.452   9.502
  112PPPE  H13Y48044   4.808   0.337   9.427
  112PPPE  C31448045   4.759   0.335   9.647
  112PPPE  H14X48046   4.683   0.369   9.721
  112PPPE  H14Y48047   4.847   0.399   9.664
  112PPPE  C31548048   4.785   0.193   9.680
  112PPPE  H15X48049   4.852   0.164   9.597
  112PPPE  H15Y48050   4.693   0.129   9.677
  112PPPE  C31648051   4.849   0.190   9.816
  112PPPE  H16X48052   4.952   0.231   9.817
  112PPPE  H16Y48053   4.781   0.219   9.898
  112PPPE  H16Z48054   4.867   0.093   9.851
  113PPPE     N48055   2.748   7.590   7.985
  113PPPE   HN148056   2.664   7.529   7.976
  113PPPE   HN248057   2.767   7.555   7.888
  113PPPE   HN348058   2.779   7.528   8.063
  113PPPE   C1248059   2.647   7.693   8.010
  113PPPE  H12A48060   2.685   7.749   8.096
  113PPPE  H12B48061   2.545   7.652   8.034
  113PPPE   C1148062   2.641   7.762   7.877
  113PPPE  H11A48063   2.742   7.773   7.832
  113PPPE  H11B48064   2.606   7.864   7.901
  113PPPE     P48065   2.412   7.742   7.748
  113PPPE   O1348066   2.425   7.855   7.654
  113PPPE   O1448067   2.317   7.636   7.711
  113PPPE   O1148068   2.375   7.796   7.890
  113PPPE   O1248069   2.558   7.687   7.788
  113PPPE    C148070   2.253   7.747   7.943
  113PPPE    HA48071   2.256   7.644   7.975
  113PPPE    HB48072   2.166   7.773   7.877
  113PPPE    C248073   2.235   7.814   8.069
  113PPPE    HS48074   2.227   7.910   7.997
  113PPPE   O2148075   2.351   7.813   8.149
  113PPPE   C2148076   2.335   7.929   8.191
  113PPPE   O2248077   2.229   7.990   8.172
  113PPPE   C2248078   2.485   7.940   8.211
  113PPPE   H2R48079   2.535   8.017   8.248
  113PPPE   H2S48080   2.541   7.934   8.117
  113PPPE    C348081   2.121   7.760   8.166
  113PPPE    HX48082   2.083   7.817   8.250
  113PPPE    HY48083   2.029   7.741   8.107
  113PPPE   O3148084   2.172   7.651   8.236
  113PPPE   C3148085   2.204   7.658   8.362
  113PPPE   O3248086   2.161   7.732   8.449
  113PPPE   C3248087   2.307   7.552   8.382
  113PPPE   H2X48088   2.378   7.559   8.300
  113PPPE   H2Y48089   2.284   7.447   8.362
  113PPPE   C2348090   2.547   7.899   8.340
  113PPPE   H3R48091   2.537   7.794   8.320
  113PPPE   H3S48092   2.485   7.931   8.428
  113PPPE   C2448093   2.690   7.965   8.356
  113PPPE   H4R48094   2.704   8.040   8.435
  113PPPE   H4S48095   2.752   7.985   8.267
  113PPPE   C2548096   2.761   7.878   8.426
  113PPPE   H5R48097   2.870   7.902   8.442
  113PPPE   H5S48098   2.734   7.794   8.361
  113PPPE   C2648099   2.700   7.861   8.551
  113PPPE   H6R48100   2.788   7.801   8.580
  113PPPE   H6S48101   2.599   7.813   8.564
  113PPPE   C2748102   2.745   7.947   8.656
  113PPPE   H7R48103   2.680   8.034   8.629
  113PPPE   H7S48104   2.859   7.951   8.662
  113PPPE   C2848105   2.685   7.919   8.775
  113PPPE   H8R48106   2.789   7.871   8.838
  113PPPE   H8S48107   2.601   7.890   8.759
  113PPPE   C2948108   2.686   8.037   8.875
  113PPPE   H9148109   2.752   8.035   8.885
  113PPPE  C21048110   2.564   8.038   8.966
  113PPPE  H10148111   2.623   8.120   9.018
  113PPPE  C21148112   2.501   7.934   9.065
  113PPPE  H11R48113   2.525   7.907   9.162
  113PPPE  H11S48114   2.452   7.874   8.989
  113PPPE  C21248115   2.355   7.986   9.093
  113PPPE  H12R48116   2.295   7.892   9.101
  113PPPE  H12S48117   2.336   8.043   9.001
  113PPPE  C21348118   2.347   8.058   9.219
  113PPPE  H13R48119   2.239   8.074   9.224
  113PPPE  H13S48120   2.393   8.160   9.214
  113PPPE  C21448121   2.378   7.979   9.345
  113PPPE  H14R48122   2.489   7.965   9.352
  113PPPE  H14S48123   2.373   7.871   9.365
  113PPPE  C21548124   2.299   8.065   9.446
  113PPPE  H15R48125   2.201   8.099   9.411
  113PPPE  H15S48126   2.328   8.171   9.454
  113PPPE  C21648127   2.281   7.993   9.575
  113PPPE  H16R48128   2.209   7.914   9.563
  113PPPE  H16S48129   2.363   7.921   9.583
  113PPPE  H16T48130   2.275   8.058   9.666
  113PPPE   C3348131   2.335   7.537   8.526
  113PPPE   H3X48132   2.250   7.541   8.597
  113PPPE   H3Y48133   2.400   7.619   8.556
  113PPPE   C3448134   2.387   7.397   8.535
  113PPPE   H4X48135   2.473   7.406   8.464
  113PPPE   H4Y48136   2.328   7.311   8.496
  113PPPE   C3548137   2.425   7.349   8.668
  113PPPE   H5X48138   2.516   7.282   8.666
  113PPPE   H5Y48139   2.348   7.315   8.738
  113PPPE   C3648140   2.483   7.459   8.722
  113PPPE   H6X48141   2.430   7.554   8.743
  113PPPE   H6Y48142   2.568   7.464   8.650
  113PPPE   C3748143   2.538   7.412   8.856
  113PPPE   H7X48144   2.635   7.376   8.810
  113PPPE   H7Y48145   2.474   7.366   8.931
  113PPPE   C3848146   2.653   7.463   8.925
  113PPPE   H8X48147   2.585   7.531   8.856
  113PPPE   H8Y48148   2.750   7.513   8.938
  113PPPE   C3948149   2.730   7.515   9.043
  113PPPE   H9X48150   2.604   7.522   9.014
  113PPPE   H9Y48151   2.773   7.636   9.126
  113PPPE  C31048152   2.743   7.377   9.162
  113PPPE  H10X48153   2.837   7.376   9.110
  113PPPE  H10Y48154   2.673   7.300   9.174
  113PPPE  C31148155   2.755   7.426   9.362
  113PPPE  H11X48156   2.820   7.532   9.373
  113PPPE  H11Y48157   2.818   7.378   9.413
  113PPPE  C31248158   2.666   7.536   9.433
  113PPPE  H12X48159   2.591   7.463   9.426
  113PPPE  H12Y48160   2.629   7.636   9.395
  113PPPE  C31348161   2.681   7.607   9.555
  113PPPE  H13X48162   2.767   7.672   9.535
  113PPPE  H13Y48163   2.722   7.510   9.591
  113PPPE  C31448164   2.529   7.663   9.589
  113PPPE  H14X48165   2.452   7.627   9.521
  113PPPE  H14Y48166   2.501   7.757   9.548
  113PPPE  C31548167   2.455   7.623   9.733
  113PPPE  H15X48168   2.391   7.701   9.762
  113PPPE  H15Y48169   2.561   7.649   9.744
  113PPPE  C31648170   2.388   7.486   9.819
  113PPPE  H16X48171   2.332   7.407   9.773
  113PPPE  H16Y48172   2.436   7.386   9.843
  113PPPE  H16Z48173   2.344   7.502   9.911
  114PPPE     N48174  -0.010   3.717   7.569
  114PPPE   HN148175  -0.079   3.757   7.502
  114PPPE   HN248176   0.047   3.797   7.606
  114PPPE   HN348177   0.057   3.649   7.529
  114PPPE   C1248178  -0.080   3.648   7.681
  114PPPE  H12A48179  -0.009   3.620   7.760
  114PPPE  H12B48180  -0.129   3.561   7.635
  114PPPE   C1148181  -0.188   3.735   7.737
  114PPPE  H11A48182  -0.257   3.680   7.806
  114PPPE  H11B48183  -0.247   3.755   7.648
  114PPPE     P48184  -0.112   3.856   7.950
  114PPPE   O1348185   0.003   3.942   7.978
  114PPPE   O1448186  -0.243   3.881   8.016
  114PPPE   O1148187  -0.065   3.709   7.969
  114PPPE   O1248188  -0.136   3.856   7.792
  114PPPE    C148189  -0.134   3.621   8.056
  114PPPE    HA48190  -0.178   3.542   7.992
  114PPPE    HB48191  -0.218   3.669   8.113
  114PPPE    C248192  -0.038   3.562   8.162
  114PPPE    HS48193  -0.097   3.502   8.235
  114PPPE   O2148194   0.035   3.668   8.229
  114PPPE   C2148195  -0.034   3.744   8.314
  114PPPE   O2248196  -0.149   3.725   8.350
  114PPPE   C2248197   0.052   3.857   8.368
  114PPPE   H2R48198  -0.013   3.919   8.433
  114PPPE   H2S48199   0.085   3.918   8.282
  114PPPE    C348200   0.061   3.466   8.091
  114PPPE    HX48201   0.001   3.401   8.023
  114PPPE    HY48202   0.129   3.526   8.027
  114PPPE   O3148203   0.131   3.380   8.183
  114PPPE   C3148204   0.256   3.411   8.219
  114PPPE   O3248205   0.317   3.513   8.191
  114PPPE   C3248206   0.306   3.307   8.319
  114PPPE   H2X48207   0.413   3.285   8.299
  114PPPE   H2Y48208   0.250   3.212   8.307
  114PPPE   C2348209   0.174   3.810   8.450
  114PPPE   H3R48210   0.228   3.905   8.471
  114PPPE   H3S48211   0.244   3.746   8.393
  114PPPE   C2448212   0.140   3.745   8.584
  114PPPE   H4R48213   0.098   3.644   8.566
  114PPPE   H4S48214   0.061   3.804   8.638
  114PPPE   C2548215   0.264   3.738   8.674
  114PPPE   H5R48216   0.327   3.828   8.659
  114PPPE   H5S48217   0.325   3.650   8.644
  114PPPE   C2648218   0.231   3.728   8.823
  114PPPE   H6R48219   0.189   3.628   8.845
  114PPPE   H6S48220   0.154   3.803   8.853
  114PPPE   C2748221   0.358   3.745   8.906
  114PPPE   H7R48222   0.388   3.853   8.910
  114PPPE   H7S48223   0.442   3.691   8.858
  114PPPE   C2848224   0.343   3.694   9.048
  114PPPE   H8R48225   0.447   3.698   9.088
  114PPPE   H8S48226   0.309   3.589   9.056
  114PPPE   C2948227   0.261   3.793   9.124
  114PPPE   H9148228   0.168   3.834   9.081
  114PPPE  C21048229   0.279   3.805   9.253
  114PPPE  H10148230   0.226   3.887   9.302
  114PPPE  C21148231   0.375   3.726   9.337
  114PPPE  H11R48232   0.392   3.776   9.426
  114PPPE  H11S48233   0.476   3.716   9.292
  114PPPE  C21248234   0.328   3.601   9.412
  114PPPE  H12R48235   0.411   3.552   9.467
  114PPPE  H12S48236   0.294   3.561   9.315
  114PPPE  C21348237   0.203   3.576   9.497
  114PPPE  H13R48238   0.170   3.473   9.514
  114PPPE  H13S48239   0.119   3.602   9.432
  114PPPE  C21448240   0.208   3.617   9.644
  114PPPE  H14R48241   0.107   3.637   9.683
  114PPPE  H14S48242   0.255   3.711   9.649
  114PPPE  C21548243   0.324   3.589   9.739
  114PPPE  H15R48244   0.413   3.659   9.718
  114PPPE  H15S48245   0.355   3.488   9.719
  114PPPE  C21648246   0.275   3.601   9.883
  114PPPE  H16R48247   0.241   3.696   9.911
  114PPPE  H16S48248   0.171   3.568   9.898
  114PPPE  H16T48249   0.350   3.603   9.962
  114PPPE   C3348250   0.294   3.363   8.462
  114PPPE   H3X48251   0.323   3.471   8.463
  114PPPE   H3Y48252   0.366   3.308   8.527
  114PPPE   C3448253   0.153   3.346   8.520
  114PPPE   H4X48254   0.111   3.249   8.489
  114PPPE   H4Y48255   0.084   3.421   8.477
  114PPPE   C3548256   0.158   3.367   8.672
  114PPPE   H5X48257   0.180   3.474   8.690
  114PPPE   H5Y48258   0.241   3.310   8.720
  114PPPE   C3648259   0.030   3.333   8.748
  114PPPE   H6X48260  -0.013   3.238   8.710
  114PPPE   H6Y48261  -0.046   3.412   8.730
  114PPPE   C3748262   0.064   3.326   8.897
  114PPPE   H7X48263   0.099   3.427   8.926
  114PPPE   H7Y48264   0.148   3.256   8.917
  114PPPE   C3848265  -0.053   3.288   8.987
  114PPPE   H8X48266  -0.099   3.192   8.957
  114PPPE   H8Y48267  -0.130   3.367   8.973
  114PPPE   C3948268  -0.006   3.288   9.133
  114PPPE   H9X48269   0.069   3.369   9.147
  114PPPE   H9Y48270   0.037   3.192   9.166
  114PPPE  C31048271  -0.117   3.323   9.227
  114PPPE  H10X48272  -0.182   3.236   9.222
  114PPPE  H10Y48273  -0.168   3.413   9.186
  114PPPE  C31148274  -0.078   3.349   9.371
  114PPPE  H11X48275   0.002   3.425   9.369
  114PPPE  H11Y48276  -0.042   3.256   9.419
  114PPPE  C31248277  -0.188   3.403   9.459
  114PPPE  H12X48278  -0.233   3.312   9.503
  114PPPE  H12Y48279  -0.260   3.468   9.404
  114PPPE  C31348280  -0.139   3.482   9.578
  114PPPE  H13X48281  -0.092   3.573   9.539
  114PPPE  H13Y48282  -0.064   3.421   9.632
  114PPPE  C31448283  -0.250   3.519   9.674
  114PPPE  H14X48284  -0.300   3.425   9.703
  114PPPE  H14Y48285  -0.325   3.591   9.634
  114PPPE  C31548286  -0.196   3.580   9.799
  114PPPE  H15X48287  -0.284   3.595   9.863
  114PPPE  H15Y48288  -0.159   3.681   9.775
  114PPPE  C31648289  -0.090   3.496   9.867
  114PPPE  H16X48290   0.009   3.508   9.820
  114PPPE  H16Y48291  -0.079   3.532   9.967
  114PPPE  H16Z48292  -0.115   3.389   9.885
  115PPPE     N48293   5.663   7.885   7.666
  115PPPE   HN148294   5.567   7.883   7.627
  115PPPE   HN248295   5.660   7.901   7.769
  115PPPE   HN348296   5.716   7.963   7.623
  115PPPE   C1248297   5.728   7.751   7.643
  115PPPE  H12A48298   5.727   7.729   7.535
  115PPPE  H12B48299   5.665   7.676   7.697
  115PPPE   C1148300   5.874   7.748   7.690
  115PPPE  H11A48301   5.931   7.831   7.644
  115PPPE  H11B48302   5.925   7.656   7.654
  115PPPE     P48303   5.837   7.654   7.933
  115PPPE   O1348304   5.693   7.680   7.959
  115PPPE   O1448305   5.872   7.523   7.875
  115PPPE   O1148306   5.920   7.686   8.061
  115PPPE   O1248307   5.884   7.764   7.831
  115PPPE    C148308   6.050   7.632   8.088
  115PPPE    HA48309   6.109   7.709   8.142
  115PPPE    HB48310   6.108   7.611   7.995
  115PPPE    C248311   6.040   7.509   8.182
  115PPPE    HS48312   5.980   7.431   8.130
  115PPPE   O2148313   5.973   7.553   8.301
  115PPPE   C2148314   5.917   7.466   8.383
  115PPPE   O2248315   5.933   7.346   8.383
  115PPPE   C2248316   5.824   7.545   8.477
  115PPPE   H2R48317   5.777   7.476   8.550
  115PPPE   H2S48318   5.744   7.589   8.414
  115PPPE    C348319   6.179   7.447   8.211
  115PPPE    HX48320   6.169   7.352   8.269
  115PPPE    HY48321   6.227   7.421   8.114
  115PPPE   O3148322   6.262   7.544   8.274
  115PPPE   C3148323   6.266   7.537   8.404
  115PPPE   O3248324   6.245   7.441   8.476
  115PPPE   C3248325   6.312   7.672   8.451
  115PPPE   H2X48326   6.256   7.761   8.425
  115PPPE   H2Y48327   6.388   7.699   8.376
  115PPPE   C2348328   5.901   7.659   8.546
  115PPPE   H3R48329   5.943   7.723   8.464
  115PPPE   H3S48330   5.986   7.620   8.605
  115PPPE   C2448331   5.813   7.745   8.636
  115PPPE   H4R48332   5.776   7.685   8.722
  115PPPE   H4S48333   5.725   7.782   8.579
  115PPPE   C2548334   5.885   7.867   8.694
  115PPPE   H5R48335   5.913   7.938   8.614
  115PPPE   H5S48336   5.978   7.832   8.746
  115PPPE   C2648337   5.789   7.934   8.792
  115PPPE   H6R48338   5.766   7.860   8.872
  115PPPE   H6S48339   5.694   7.958   8.738
  115PPPE   C2748340   5.833   8.064   8.859
  115PPPE   H7R48341   5.757   8.082   8.938
  115PPPE   H7S48342   5.830   8.149   8.786
  115PPPE   C2848343   5.970   8.060   8.922
  115PPPE   H8R48344   6.036   8.035   8.836
  115PPPE   H8S48345   5.976   7.972   8.991
  115PPPE   C2948346   6.007   8.195   8.982
  115PPPE   H9148347   6.049   8.267   8.912
  115PPPE  C21048348   6.006   8.230   9.112
  115PPPE  H10148349   6.077   8.307   9.150
  115PPPE  C21148350   5.966   8.136   9.219
  115PPPE  H11R48351   6.064   8.119   9.240
  115PPPE  H11S48352   5.929   8.034   9.192
  115PPPE  C21248353   5.935   8.195   9.356
  115PPPE  H12R48354   5.835   8.236   9.333
  115PPPE  H12S48355   6.011   8.260   9.402
  115PPPE  C21348356   5.907   8.095   9.461
  115PPPE  H13R48357   5.992   8.037   9.506
  115PPPE  H13S48358   5.856   8.044   9.377
  115PPPE  C21448359   5.800   8.132   9.565
  115PPPE  H14R48360   5.703   8.148   9.515
  115PPPE  H14S48361   5.854   8.215   9.613
  115PPPE  C21548362   5.769   8.035   9.676
  115PPPE  H15R48363   5.871   8.028   9.723
  115PPPE  H15S48364   5.723   7.942   9.636
  115PPPE  C21648365   5.670   8.040   9.791
  115PPPE  H16R48366   5.667   7.943   9.849
  115PPPE  H16S48367   5.705   8.117   9.858
  115PPPE  H16T48368   5.570   8.053   9.749
  115PPPE   C3348369   6.334   7.671   8.603
  115PPPE   H3X48370   6.397   7.596   8.653
  115PPPE   H3Y48371   6.240   7.647   8.655
  115PPPE   C3448372   6.386   7.800   8.653
  115PPPE   H4X48373   6.314   7.879   8.625
  115PPPE   H4Y48374   6.479   7.840   8.606
  115PPPE   C3548375   6.411   7.780   8.803
  115PPPE   H5X48376   6.460   7.875   8.811
  115PPPE   H5Y48377   6.497   7.749   8.850
  115PPPE   C3648378   6.305   7.720   8.896
  115PPPE   H6X48379   6.269   7.623   8.863
  115PPPE   H6Y48380   6.216   7.778   8.863
  115PPPE   C3748381   6.341   7.710   9.051
  115PPPE   H7X48382   6.386   7.795   9.106
  115PPPE   H7Y48383   6.433   7.658   9.077
  115PPPE   C3848384   6.219   7.698   9.142
  115PPPE   H8X48385   6.134   7.768   9.129
  115PPPE   H8Y48386   6.254   7.712   9.245
  115PPPE   C3948387   6.154   7.568   9.147
  115PPPE   H9X48388   6.241   7.499   9.151
  115PPPE   H9Y48389   6.093   7.558   9.055
  115PPPE  C31048390   6.070   7.569   9.274
  115PPPE  H10X48391   5.997   7.654   9.272
  115PPPE  H10Y48392   6.140   7.585   9.360
  115PPPE  C31148393   6.007   7.432   9.286
  115PPPE  H11X48394   6.089   7.361   9.309
  115PPPE  H11Y48395   5.961   7.410   9.187
  115PPPE  C31248396   5.905   7.407   9.395
  115PPPE  H12X48397   5.880   7.300   9.403
  115PPPE  H12Y48398   5.809   7.454   9.364
  115PPPE  C31348399   5.950   7.445   9.534
  115PPPE  H13X48400   6.045   7.508   9.533
  115PPPE  H13Y48401   5.956   7.370   9.613
  115PPPE  C31448402   5.833   7.525   9.578
  115PPPE  H14X48403   5.800   7.583   9.490
  115PPPE  H14Y48404   5.902   7.577   9.642
  115PPPE  C31548405   5.716   7.496   9.671
  115PPPE  H15X48406   5.764   7.457   9.763
  115PPPE  H15Y48407   5.668   7.419   9.609
  115PPPE  C31648408   5.607   7.606   9.709
  115PPPE  H16X48409   5.539   7.563   9.784
  115PPPE  H16Y48410   5.633   7.696   9.766
  115PPPE  H16Z48411   5.558   7.655   9.623
  116PPPE     N48412   5.119   0.099   7.555
  116PPPE   HN148413   5.213   0.091   7.512
  116PPPE   HN248414   5.048   0.077   7.484
  116PPPE   HN348415   5.103   0.200   7.582
  116PPPE   C1248416   5.096   0.026   7.688
  116PPPE  H12A48417   5.094  -0.081   7.684
  116PPPE  H12B48418   4.996   0.055   7.726
  116PPPE   C1148419   5.212   0.018   7.783
  116PPPE  H11A48420   5.298  -0.038   7.740
  116PPPE  H11B48421   5.179  -0.047   7.870
  116PPPE     P48422   5.165   0.210   7.942
  116PPPE   O1348423   5.137   0.352   7.914
  116PPPE   O1448424   5.047   0.124   7.965
  116PPPE   O1148425   5.275   0.189   8.054
  116PPPE   O1248426   5.246   0.150   7.816
  116PPPE    C148427   5.415   0.171   8.034
  116PPPE    HA48428   5.460   0.260   7.981
  116PPPE    HB48429   5.437   0.081   7.973
  116PPPE    C248430   5.490   0.148   8.171
  116PPPE    HS48431   5.592   0.111   8.147
  116PPPE   O2148432   5.420   0.049   8.249
  116PPPE   C2148433   5.464   0.023   8.371
  116PPPE   O2248434   5.561   0.072   8.425
  116PPPE   C2248435   5.376  -0.086   8.434
  116PPPE   H2R48436   5.373  -0.177   8.369
  116PPPE   H2S48437   5.272  -0.048   8.442
  116PPPE    C348438   5.503   0.284   8.245
  116PPPE    HX48439   5.594   0.290   8.309
  116PPPE    HY48440   5.517   0.352   8.160
  116PPPE   O3148441   5.388   0.321   8.323
  116PPPE   C3148442   5.300   0.404   8.270
  116PPPE   O3248443   5.301   0.452   8.159
  116PPPE   C3248444   5.218   0.458   8.385
  116PPPE   H2X48445   5.172   0.555   8.355
  116PPPE   H2Y48446   5.282   0.462   8.477
  116PPPE   C2348447   5.425  -0.121   8.575
  116PPPE   H3R48448   5.431  -0.026   8.633
  116PPPE   H3S48449   5.527  -0.165   8.571
  116PPPE   C2448450   5.328  -0.219   8.641
  116PPPE   H4R48451   5.343  -0.318   8.594
  116PPPE   H4S48452   5.226  -0.183   8.615
  116PPPE   C2548453   5.338  -0.229   8.795
  116PPPE   H5R48454   5.431  -0.284   8.822
  116PPPE   H5S48455   5.249  -0.281   8.838
  116PPPE   C2648456   5.343  -0.091   8.861
  116PPPE   H6R48457   5.263  -0.033   8.811
  116PPPE   H6S48458   5.442  -0.046   8.839
  116PPPE   C2748459   5.326  -0.091   9.013
  116PPPE   H7R48460   5.417  -0.133   9.059
  116PPPE   H7S48461   5.240  -0.154   9.046
  116PPPE   C2848462   5.303   0.050   9.068
  116PPPE   H8R48463   5.280   0.040   9.176
  116PPPE   H8S48464   5.213   0.090   9.015
  116PPPE   C2948465   5.419   0.143   9.048
  116PPPE   H9148466   5.519   0.099   9.035
  116PPPE  C21048467   5.408   0.276   9.053
  116PPPE  H10148468   5.497   0.338   9.028
  116PPPE  C21148469   5.277   0.347   9.080
  116PPPE  H11R48470   5.203   0.323   9.002
  116PPPE  H11S48471   5.295   0.456   9.067
  116PPPE  C21248472   5.198   0.314   9.212
  116PPPE  H12R48473   5.158   0.213   9.221
  116PPPE  H12S48474   5.118   0.391   9.220
  116PPPE  C21348475   5.277   0.318   9.341
  116PPPE  H13R48476   5.315   0.398   9.287
  116PPPE  H13S48477   5.375   0.268   9.350
  116PPPE  C21448478   5.189   0.359   9.464
  116PPPE  H14R48479   5.130   0.273   9.489
  116PPPE  H14S48480   5.132   0.455   9.443
  116PPPE  C21548481   5.257   0.366   9.601
  116PPPE  H15R48482   5.280   0.460   9.549
  116PPPE  H15S48483   5.342   0.294   9.603
  116PPPE  C21648484   5.218   0.406   9.749
  116PPPE  H16R48485   5.125   0.356   9.764
  116PPPE  H16S48486   5.287   0.469   9.816
  116PPPE  H16T48487   5.149   0.487   9.769
  116PPPE   C3348488   5.091   0.388   8.410
  116PPPE   H3X48489   5.117   0.280   8.408
  116PPPE   H3Y48490   5.030   0.421   8.321
  116PPPE   C3448491   5.026   0.438   8.538
  116PPPE   H4X48492   4.921   0.406   8.524
  116PPPE   H4Y48493   5.025   0.550   8.543
  116PPPE   C3548494   5.090   0.379   8.666
  116PPPE   H5X48495   5.141   0.460   8.722
  116PPPE   H5Y48496   5.157   0.295   8.642
  116PPPE   C3648497   4.993   0.322   8.767
  116PPPE   H6X48498   4.905   0.371   8.738
  116PPPE   H6Y48499   5.014   0.357   8.869
  116PPPE   C3748500   4.973   0.171   8.760
  116PPPE   H7X48501   5.074   0.126   8.753
  116PPPE   H7Y48502   4.915   0.143   8.669
  116PPPE   C3848503   4.912   0.118   8.889
  116PPPE   H8X48504   4.806   0.146   8.898
  116PPPE   H8Y48505   4.969   0.163   8.973
  116PPPE   C3948506   4.928  -0.033   8.904
  116PPPE   H9X48507   5.034  -0.059   8.903
  116PPPE   H9Y48508   4.879  -0.080   8.816
  116PPPE  C31048509   4.875  -0.084   9.039
  116PPPE  H10X48510   4.856  -0.193   9.034
  116PPPE  H10Y48511   4.789  -0.019   9.061
  116PPPE  C31148512   4.955  -0.056   9.165
  116PPPE  H11X48513   4.975   0.053   9.165
  116PPPE  H11Y48514   5.048  -0.114   9.162
  116PPPE  C31248515   4.885  -0.094   9.296
  116PPPE  H12X48516   4.870  -0.205   9.296
  116PPPE  H12Y48517   4.785  -0.047   9.305
  116PPPE  C31348518   4.968  -0.043   9.417
  116PPPE  H13X48519   4.962   0.068   9.415
  116PPPE  H13Y48520   5.074  -0.073   9.407
  116PPPE  C31448521   4.917  -0.087   9.555
  116PPPE  H14X48522   4.896  -0.196   9.556
  116PPPE  H14Y48523   4.821  -0.030   9.569
  116PPPE  C31548524   5.000  -0.066   9.679
  116PPPE  H15X48525   5.024   0.042   9.686
  116PPPE  H15Y48526   5.094  -0.123   9.672
  116PPPE  C31648527   4.926  -0.114   9.804
  116PPPE  H16X48528   4.979  -0.072   9.892
  116PPPE  H16Y48529   4.821  -0.077   9.804
  116PPPE  H16Z48530   4.912  -0.220   9.813
  117PPPE     N48531   7.968   4.810   7.841
  117PPPE   HN148532   7.899   4.823   7.916
  117PPPE   HN248533   7.937   4.876   7.766
  117PPPE   HN348534   7.960   4.717   7.793
  117PPPE   C1248535   8.112   4.847   7.852
  117PPPE  H12A48536   8.118   4.948   7.897
  117PPPE  H12B48537   8.157   4.852   7.750
  117PPPE   C1148538   8.183   4.742   7.933
  117PPPE  H11A48539   8.166   4.761   8.041
  117PPPE  H11B48540   8.292   4.756   7.911
  117PPPE     P48541   8.233   4.520   7.815
  117PPPE   O1348542   8.230   4.580   7.680
  117PPPE   O1448543   8.363   4.517   7.883
  117PPPE   O1148544   8.166   4.379   7.823
  117PPPE   O1248545   8.135   4.610   7.902
  117PPPE    C148546   8.029   4.356   7.791
  117PPPE    HA48547   8.025   4.282   7.711
  117PPPE    HB48548   7.977   4.443   7.747
  117PPPE    C248549   7.950   4.308   7.912
  117PPPE    HS48550   7.849   4.282   7.873
  117PPPE   O2148551   7.946   4.414   8.009
  117PPPE   C2148552   7.861   4.395   8.106
  117PPPE   O2248553   7.793   4.295   8.124
  117PPPE   C2248554   7.839   4.527   8.177
  117PPPE   H2R48555   7.758   4.510   8.251
  117PPPE   H2S48556   7.804   4.604   8.104
  117PPPE    C348557   8.013   4.180   7.969
  117PPPE    HX48558   7.930   4.119   8.012
  117PPPE    HY48559   8.050   4.124   7.879
  117PPPE   O3148560   8.124   4.203   8.058
  117PPPE   C3148561   8.108   4.190   8.187
  117PPPE   O3248562   8.007   4.156   8.246
  117PPPE   C3248563   8.234   4.244   8.252
  117PPPE   H2X48564   8.250   4.347   8.216
  117PPPE   H2Y48565   8.322   4.185   8.222
  117PPPE   C2348566   7.965   4.574   8.250
  117PPPE   H3R48567   8.043   4.601   8.174
  117PPPE   H3S48568   8.004   4.490   8.313
  117PPPE   C2448569   7.942   4.695   8.340
  117PPPE   H4R48570   7.848   4.684   8.399
  117PPPE   H4S48571   7.924   4.779   8.270
  117PPPE   C2548572   8.061   4.724   8.433
  117PPPE   H5R48573   8.128   4.795   8.380
  117PPPE   H5S48574   8.122   4.632   8.449
  117PPPE   C2648575   8.026   4.785   8.570
  117PPPE   H6R48576   7.974   4.882   8.557
  117PPPE   H6S48577   8.125   4.805   8.618
  117PPPE   C2748578   7.944   4.697   8.666
  117PPPE   H7R48579   7.999   4.600   8.675
  117PPPE   H7S48580   7.844   4.676   8.622
  117PPPE   C2848581   7.918   4.757   8.807
  117PPPE   H8R48582   7.854   4.683   8.860
  117PPPE   H8S48583   7.857   4.849   8.791
  117PPPE   C2948584   8.037   4.789   8.896
  117PPPE   H9148585   8.129   4.733   8.876
  117PPPE  C21048586   8.035   4.867   9.006
  117PPPE  H10148587   8.129   4.882   9.061
  117PPPE  C21148588   7.914   4.937   9.063
  117PPPE  H11R48589   7.841   4.966   8.984
  117PPPE  H11S48590   7.942   5.030   9.118
  117PPPE  C21248591   7.850   4.840   9.164
  117PPPE  H12R48592   7.842   4.739   9.117
  117PPPE  H12S48593   7.747   4.872   9.189
  117PPPE  C21348594   7.928   4.829   9.296
  117PPPE  H13R48595   8.037   4.837   9.278
  117PPPE  H13S48596   7.911   4.728   9.338
  117PPPE  C21448597   7.879   4.936   9.397
  117PPPE  H14R48598   7.767   4.936   9.395
  117PPPE  H14S48599   7.913   5.035   9.363
  117PPPE  C21548600   7.928   4.915   9.542
  117PPPE  H15R48601   8.039   4.911   9.535
  117PPPE  H15S48602   7.893   4.815   9.577
  117PPPE  C21648603   7.892   5.023   9.647
  117PPPE  H16R48604   7.949   5.116   9.629
  117PPPE  H16S48605   7.784   5.049   9.648
  117PPPE  H16T48606   7.916   4.986   9.749
  117PPPE   C3348607   8.217   4.246   8.405
  117PPPE   H3X48608   8.225   4.140   8.441
  117PPPE   H3Y48609   8.118   4.286   8.436
  117PPPE   C3448610   8.321   4.336   8.470
  117PPPE   H4X48611   8.317   4.438   8.427
  117PPPE   H4Y48612   8.420   4.294   8.444
  117PPPE   C3548613   8.304   4.341   8.621
  117PPPE   H5X48614   8.310   4.238   8.664
  117PPPE   H5Y48615   8.203   4.380   8.646
  117PPPE   C3648616   8.413   4.424   8.688
  117PPPE   H6X48617   8.398   4.532   8.667
  117PPPE   H6Y48618   8.510   4.395   8.643
  117PPPE   C3748619   8.419   4.403   8.839
  117PPPE   H7X48620   8.501   4.470   8.872
  117PPPE   H7Y48621   8.443   4.295   8.859
  117PPPE   C3848622   8.294   4.433   8.918
  117PPPE   H8X48623   8.223   4.350   8.895
  117PPPE   H8Y48624   8.248   4.529   8.888
  117PPPE   C3948625   8.309   4.436   9.071
  117PPPE   H9X48626   8.356   4.531   9.105
  117PPPE   H9Y48627   8.372   4.353   9.107
  117PPPE  C31048628   8.168   4.425   9.128
  117PPPE  H10X48629   8.123   4.329   9.094
  117PPPE  H10Y48630   8.103   4.507   9.088
  117PPPE  C31148631   8.167   4.431   9.279
  117PPPE  H11X48632   8.241   4.358   9.317
  117PPPE  H11Y48633   8.067   4.399   9.317
  117PPPE  C31248634   8.197   4.574   9.326
  117PPPE  H12X48635   8.136   4.646   9.266
  117PPPE  H12Y48636   8.303   4.603   9.311
  117PPPE  C31348637   8.155   4.591   9.470
  117PPPE  H13X48638   8.053   4.546   9.471
  117PPPE  H13Y48639   8.152   4.696   9.503
  117PPPE  C31448640   8.249   4.519   9.563
  117PPPE  H14X48641   8.307   4.587   9.629
  117PPPE  H14Y48642   8.316   4.452   9.506
  117PPPE  C31548643   8.171   4.439   9.658
  117PPPE  H15X48644   8.202   4.364   9.729
  117PPPE  H15Y48645   8.137   4.354   9.593
  117PPPE  C31648646   8.103   4.534   9.760
  117PPPE  H16X48647   8.026   4.489   9.817
  117PPPE  H16Y48648   8.152   4.556   9.855
  117PPPE  H16Z48649   8.024   4.597   9.722
  118PPPE     N48650   7.465   6.240   7.719
  118PPPE   HN148651   7.535   6.294   7.773
  118PPPE   HN248652   7.409   6.300   7.653
  118PPPE   HN348653   7.401   6.196   7.788
  118PPPE   C1248654   7.537   6.134   7.639
  118PPPE  H12A48655   7.623   6.182   7.591
  118PPPE  H12B48656   7.466   6.097   7.563
  118PPPE   C1148657   7.583   6.019   7.729
  118PPPE  H11A48658   7.614   5.933   7.665
  118PPPE  H11B48659   7.495   5.990   7.791
  118PPPE     P48660   7.751   5.958   7.922
  118PPPE   O1348661   7.713   5.822   7.883
  118PPPE   O1448662   7.893   5.992   7.940
  118PPPE   O1148663   7.668   5.996   8.050
  118PPPE   O1248664   7.690   6.060   7.813
  118PPPE    C148665   7.654   6.133   8.088
  118PPPE    HA48666   7.574   6.135   8.166
  118PPPE    HB48667   7.621   6.195   8.002
  118PPPE    C248668   7.783   6.197   8.146
  118PPPE    HS48669   7.855   6.208   8.061
  118PPPE   O2148670   7.832   6.107   8.245
  118PPPE   C2148671   7.955   6.131   8.276
  118PPPE   O2248672   8.036   6.197   8.212
  118PPPE   C2248673   7.971   6.075   8.417
  118PPPE   H2R48674   8.007   5.976   8.434
  118PPPE   H2S48675   7.881   6.043   8.468
  118PPPE    C348676   7.759   6.338   8.208
  118PPPE    HX48677   7.851   6.380   8.256
  118PPPE    HY48678   7.733   6.407   8.127
  118PPPE   O3148679   7.648   6.338   8.298
  118PPPE   C3148680   7.676   6.309   8.422
  118PPPE   O3248681   7.786   6.293   8.473
  118PPPE   C3248682   7.549   6.292   8.493
  118PPPE   H2X48683   7.460   6.331   8.439
  118PPPE   H2Y48684   7.553   6.343   8.592
  118PPPE   C2348685   8.086   6.143   8.479
  118PPPE   H3R48686   8.060   6.248   8.498
  118PPPE   H3S48687   8.181   6.147   8.415
  118PPPE   C2448688   8.114   6.063   8.601
  118PPPE   H4R48689   8.202   6.120   8.591
  118PPPE   H4S48690   8.156   5.959   8.593
  118PPPE   C2548691   8.032   6.090   8.728
  118PPPE   H5R48692   8.077   6.063   8.827
  118PPPE   H5S48693   7.931   6.065   8.692
  118PPPE   C2648694   7.985   6.221   8.788
  118PPPE   H6R48695   7.938   6.277   8.705
  118PPPE   H6S48696   8.064   6.283   8.832
  118PPPE   C2748697   7.895   6.185   8.911
  118PPPE   H7R48698   7.804   6.130   8.878
  118PPPE   H7S48699   7.872   6.283   8.955
  118PPPE   C2848700   7.942   6.093   9.029
  118PPPE   H8R48701   7.971   5.992   8.986
  118PPPE   H8S48702   7.857   6.080   9.097
  118PPPE   C2948703   8.051   6.138   9.120
  118PPPE   H9148704   8.137   6.095   9.087
  118PPPE  C21048705   8.075   6.206   9.230
  118PPPE  H10148706   8.178   6.218   9.266
  118PPPE  C21148707   7.980   6.272   9.315
  118PPPE  H11R48708   7.881   6.257   9.269
  118PPPE  H11S48709   8.008   6.379   9.313
  118PPPE  C21248710   7.997   6.222   9.458
  118PPPE  H12R48711   8.101   6.234   9.497
  118PPPE  H12S48712   7.974   6.114   9.465
  118PPPE  C21348713   7.905   6.303   9.546
  118PPPE  H13R48714   7.801   6.296   9.504
  118PPPE  H13S48715   7.930   6.411   9.541
  118PPPE  C21448716   7.913   6.256   9.691
  118PPPE  H14R48717   8.014   6.235   9.727
  118PPPE  H14S48718   7.843   6.171   9.713
  118PPPE  C21548719   7.876   6.365   9.779
  118PPPE  H15R48720   7.917   6.465   9.759
  118PPPE  H15S48721   7.891   6.363   9.883
  118PPPE  C21648722   7.736   6.351   9.777
  118PPPE  H16R48723   7.673   6.282   9.832
  118PPPE  H16S48724   7.725   6.455   9.819
  118PPPE  H16T48725   7.695   6.338   9.673
  118PPPE   C3348726   7.550   6.143   8.504
  118PPPE   H3X48727   7.637   6.079   8.530
  118PPPE   H3Y48728   7.489   6.096   8.419
  118PPPE   C3448729   7.490   6.124   8.633
  118PPPE   H4X48730   7.466   6.023   8.587
  118PPPE   H4Y48731   7.407   6.198   8.649
  118PPPE   C3548732   7.549   6.099   8.770
  118PPPE   H5X48733   7.611   6.010   8.775
  118PPPE   H5Y48734   7.486   6.051   8.847
  118PPPE   C3648735   7.523   6.220   8.856
  118PPPE   H6X48736   7.418   6.261   8.847
  118PPPE   H6Y48737   7.595   6.275   8.794
  118PPPE   C3748738   7.553   6.175   8.999
  118PPPE   H7X48739   7.620   6.249   9.043
  118PPPE   H7Y48740   7.612   6.080   8.989
  118PPPE   C3848741   7.431   6.151   9.092
  118PPPE   H8X48742   7.379   6.061   9.057
  118PPPE   H8Y48743   7.359   6.231   9.073
  118PPPE   C3948744   7.480   6.135   9.238
  118PPPE   H9X48745   7.413   6.109   9.324
  118PPPE   H9Y48746   7.524   6.231   9.267
  118PPPE  C31048747   7.574   6.017   9.249
  118PPPE  H10X48748   7.658   6.012   9.177
  118PPPE  H10Y48749   7.506   5.941   9.219
  118PPPE  C31148750   7.600   5.978   9.393
  118PPPE  H11X48751   7.502   5.944   9.440
  118PPPE  H11Y48752   7.650   6.058   9.446
  118PPPE  C31248753   7.693   5.866   9.416
  118PPPE  H12X48754   7.778   5.849   9.345
  118PPPE  H12Y48755   7.614   5.791   9.410
  118PPPE  C31348756   7.722   5.840   9.559
  118PPPE  H13X48757   7.718   5.735   9.583
  118PPPE  H13Y48758   7.639   5.875   9.622
  118PPPE  C31448759   7.867   5.867   9.583
  118PPPE  H14X48760   7.876   5.977   9.583
  118PPPE  H14Y48761   7.931   5.812   9.512
  118PPPE  C31548762   7.907   5.819   9.716
  118PPPE  H15X48763   7.884   5.711   9.736
  118PPPE  H15Y48764   7.840   5.893   9.766
  118PPPE  C31648765   8.040   5.858   9.772
  118PPPE  H16X48766   8.115   5.798   9.717
  118PPPE  H16Y48767   8.054   5.967   9.767
  118PPPE  H16Z48768   8.041   5.838   9.882
  119PPPE     N48769   6.182   0.395   7.619
  119PPPE   HN148770   6.237   0.483   7.602
  119PPPE   HN248771   6.199   0.364   7.717
  119PPPE   HN348772   6.208   0.321   7.551
  119PPPE   C1248773   6.038   0.431   7.603
  119PPPE  H12A48774   5.977   0.339   7.605
  119PPPE  H12B48775   6.031   0.477   7.503
  119PPPE   C1148776   5.991   0.527   7.712
  119PPPE  H11A48777   5.884   0.556   7.696
  119PPPE  H11B48778   6.050   0.622   7.704
  119PPPE     P48779   6.044   0.558   7.962
  119PPPE   O1348780   6.055   0.470   8.080
  119PPPE   O1448781   6.164   0.632   7.916
  119PPPE   O1148782   5.918   0.654   7.967
  119PPPE   O1248783   6.004   0.465   7.839
  119PPPE    C148784   5.785   0.602   7.977
  119PPPE    HA48785   5.783   0.493   7.995
  119PPPE    HB48786   5.732   0.618   7.882
  119PPPE    C248787   5.702   0.669   8.090
  119PPPE    HS48788   5.656   0.760   8.049
  119PPPE   O2148789   5.786   0.697   8.201
  119PPPE   C2148790   5.847   0.811   8.187
  119PPPE   O2248791   5.816   0.899   8.108
  119PPPE   C2248792   5.920   0.828   8.320
  119PPPE   H2R48793   5.839   0.797   8.392
  119PPPE   H2S48794   5.959   0.929   8.327
  119PPPE    C348795   5.586   0.580   8.133
  119PPPE    HX48796   5.530   0.554   8.039
  119PPPE    HY48797   5.640   0.490   8.170
  119PPPE   O3148798   5.496   0.642   8.229
  119PPPE   C3148799   5.501   0.614   8.358
  119PPPE   O3248800   5.571   0.531   8.413
  119PPPE   C3248801   5.396   0.696   8.431
  119PPPE   H2X48802   5.303   0.660   8.404
  119PPPE   H2Y48803   5.369   0.794   8.392
  119PPPE   C2348804   5.999   0.737   8.405
  119PPPE   H3R48805   6.095   0.769   8.361
  119PPPE   H3S48806   5.951   0.639   8.381
  119PPPE   C2448807   5.997   0.756   8.559
  119PPPE   H4R48808   5.898   0.737   8.607
  119PPPE   H4S48809   6.041   0.853   8.594
  119PPPE   C2548810   6.089   0.655   8.614
  119PPPE   H5R48811   6.188   0.687   8.575
  119PPPE   H5S48812   6.054   0.561   8.565
  119PPPE   C2648813   6.082   0.637   8.765
  119PPPE   H6R48814   6.161   0.561   8.781
  119PPPE   H6S48815   5.982   0.605   8.798
  119PPPE   C2748816   6.116   0.759   8.848
  119PPPE   H7R48817   6.068   0.847   8.809
  119PPPE   H7S48818   6.209   0.786   8.804
  119PPPE   C2848819   6.123   0.745   9.005
  119PPPE   H8R48820   6.035   0.767   9.061
  119PPPE   H8S48821   6.187   0.826   9.047
  119PPPE   C2948822   6.155   0.612   9.061
  119PPPE   H9148823   6.252   0.578   9.022
  119PPPE  C21048824   6.088   0.545   9.158
  119PPPE  H10148825   6.121   0.443   9.179
  119PPPE  C21148826   5.964   0.588   9.235
  119PPPE  H11R48827   5.873   0.540   9.194
  119PPPE  H11S48828   5.946   0.697   9.222
  119PPPE  C21248829   5.972   0.570   9.389
  119PPPE  H12R48830   5.884   0.619   9.436
  119PPPE  H12S48831   6.061   0.624   9.428
  119PPPE  C21348832   5.977   0.426   9.446
  119PPPE  H13R48833   6.061   0.372   9.396
  119PPPE  H13S48834   5.883   0.372   9.420
  119PPPE  C21448835   5.992   0.425   9.600
  119PPPE  H14R48836   6.095   0.462   9.623
  119PPPE  H14S48837   5.985   0.322   9.641
  119PPPE  C21548838   5.886   0.517   9.668
  119PPPE  H15R48839   5.786   0.496   9.627
  119PPPE  H15S48840   5.920   0.623   9.654
  119PPPE  C21648841   5.862   0.506   9.815
  119PPPE  H16R48842   5.802   0.421   9.852
  119PPPE  H16S48843   5.962   0.477   9.833
  119PPPE  H16T48844   5.849   0.596   9.877
  119PPPE   C3348845   5.392   0.672   8.581
  119PPPE   H3X48846   5.421   0.569   8.612
  119PPPE   H3Y48847   5.288   0.689   8.619
  119PPPE   C3448848   5.487   0.772   8.638
  119PPPE   H4X48849   5.455   0.873   8.605
  119PPPE   H4Y48850   5.589   0.757   8.597
  119PPPE   C3548851   5.485   0.763   8.789
  119PPPE   H5X48852   5.378   0.758   8.821
  119PPPE   H5Y48853   5.526   0.860   8.824
  119PPPE   C3648854   5.555   0.640   8.846
  119PPPE   H6X48855   5.568   0.557   8.773
  119PPPE   H6Y48856   5.489   0.600   8.926
  119PPPE   C3748857   5.692   0.667   8.907
  119PPPE   H7X48858   5.768   0.680   8.826
  119PPPE   H7Y48859   5.725   0.576   8.962
  119PPPE   C3848860   5.698   0.779   9.011
  119PPPE   H8X48861   5.712   0.876   8.963
  119PPPE   H8Y48862   5.785   0.754   9.075
  119PPPE   C3948863   5.587   0.816   9.108
  119PPPE   H9X48864   5.487   0.801   9.064
  119PPPE   H9Y48865   5.597   0.926   9.129
  119PPPE  C31048866   5.611   0.749   9.242
  119PPPE  H10X48867   5.537   0.788   9.314
  119PPPE  H10Y48868   5.712   0.772   9.282
  119PPPE  C31148869   5.610   0.598   9.235
  119PPPE  H11X48870   5.658   0.560   9.327
  119PPPE  H11Y48871   5.664   0.550   9.152
  119PPPE  C31248872   5.472   0.550   9.236
  119PPPE  H12X48873   5.485   0.441   9.216
  119PPPE  H12Y48874   5.407   0.591   9.155
  119PPPE  C31348875   5.417   0.569   9.381
  119PPPE  H13X48876   5.308   0.556   9.363
  119PPPE  H13Y48877   5.383   0.668   9.407
  119PPPE  C31448878   5.496   0.479   9.490
  119PPPE  H14X48879   5.595   0.521   9.498
  119PPPE  H14Y48880   5.495   0.367   9.475
  119PPPE  C31548881   5.485   0.495   9.646
  119PPPE  H15X48882   5.473   0.406   9.714
  119PPPE  H15Y48883   5.387   0.534   9.657
  119PPPE  C31648884   5.508   0.626   9.710
  119PPPE  H16X48885   5.467   0.703   9.639
  119PPPE  H16Y48886   5.449   0.626   9.808
  119PPPE  H16Z48887   5.614   0.629   9.717
  120PPPE     N48888   7.446   2.157   7.591
  120PPPE   HN148889   7.464   2.139   7.489
  120PPPE   HN248890   7.373   2.092   7.626
  120PPPE   HN348891   7.419   2.256   7.607
  120PPPE   C1248892   7.569   2.128   7.675
  120PPPE  H12A48893   7.652   2.195   7.645
  120PPPE  H12B48894   7.601   2.024   7.652
  120PPPE   C1148895   7.542   2.134   7.827
  120PPPE  H11A48896   7.477   2.049   7.858
  120PPPE  H11B48897   7.492   2.227   7.861
  120PPPE     P48898   7.741   1.988   7.916
  120PPPE   O1348899   7.647   1.879   7.885
  120PPPE   O1448900   7.868   1.991   7.839
  120PPPE   O1148901   7.765   1.992   8.071
  120PPPE   O1248902   7.667   2.127   7.894
  120PPPE    C148903   7.879   1.926   8.124
  120PPPE    HA48904   7.965   1.990   8.100
  120PPPE    HB48905   7.898   1.829   8.073
  120PPPE    C248906   7.869   1.897   8.278
  120PPPE    HS48907   7.803   1.811   8.296
  120PPPE   O2148908   7.810   2.015   8.337
  120PPPE   C2148909   7.717   2.013   8.427
  120PPPE   O2248910   7.671   1.912   8.478
  120PPPE   C2248911   7.668   2.158   8.462
  120PPPE   H2R48912   7.584   2.147   8.532
  120PPPE   H2S48913   7.644   2.214   8.370
  120PPPE    C348914   8.012   1.861   8.341
  120PPPE    HX48915   8.047   1.767   8.294
  120PPPE    HY48916   8.096   1.931   8.318
  120PPPE   O3148917   8.009   1.857   8.484
  120PPPE   C3148918   7.943   1.752   8.530
  120PPPE   O3248919   7.896   1.662   8.463
  120PPPE   C3248920   7.947   1.751   8.682
  120PPPE   H2X48921   8.006   1.837   8.720
  120PPPE   H2Y48922   7.997   1.657   8.712
  120PPPE   C2348923   7.748   2.244   8.557
  120PPPE   H3R48924   7.715   2.346   8.581
  120PPPE   H3S48925   7.821   2.307   8.515
  120PPPE   C2448926   7.808   2.158   8.664
  120PPPE   H4R48927   7.838   2.246   8.717
  120PPPE   H4S48928   7.894   2.088   8.652
  120PPPE   C2548929   7.733   2.130   8.786
  120PPPE   H5R48930   7.694   2.037   8.747
  120PPPE   H5S48931   7.667   2.221   8.791
  120PPPE   C2648932   7.820   2.114   8.911
  120PPPE   H6R48933   7.884   2.201   8.936
  120PPPE   H6S48934   7.890   2.027   8.906
  120PPPE   C2748935   7.749   2.141   9.036
  120PPPE   H7R48936   7.673   2.063   9.036
  120PPPE   H7S48937   7.705   2.243   9.024
  120PPPE   C2848938   7.858   2.138   9.142
  120PPPE   H8R48939   7.915   2.234   9.141
  120PPPE   H8S48940   7.929   2.055   9.130
  120PPPE   C2948941   7.798   2.124   9.270
  120PPPE   H9148942   7.788   2.225   9.304
  120PPPE  C21048943   7.777   2.019   9.348
  120PPPE  H10148944   7.723   2.031   9.442
  120PPPE  C21148945   7.817   1.881   9.314
  120PPPE  H11R48946   7.902   1.880   9.243
  120PPPE  H11S48947   7.735   1.825   9.264
  120PPPE  C21248948   7.871   1.810   9.439
  120PPPE  H12R48949   7.962   1.854   9.480
  120PPPE  H12S48950   7.882   1.707   9.398
  120PPPE  C21348951   7.791   1.797   9.565
  120PPPE  H13R48952   7.760   1.901   9.596
  120PPPE  H13S48953   7.823   1.749   9.658
  120PPPE  C21448954   7.684   1.707   9.521
  120PPPE  H14R48955   7.678   1.724   9.414
  120PPPE  H14S48956   7.630   1.773   9.586
  120PPPE  C21548957   7.627   1.571   9.488
  120PPPE  H15R48958   7.660   1.525   9.396
  120PPPE  H15S48959   7.514   1.554   9.478
  120PPPE  C21648960   7.666   1.515   9.604
  120PPPE  H16R48961   7.651   1.407   9.596
  120PPPE  H16S48962   7.756   1.509   9.636
  120PPPE  H16T48963   7.632   1.575   9.694
  120PPPE   C3348964   7.805   1.746   8.738
  120PPPE   H3X48965   7.749   1.664   8.689
  120PPPE   H3Y48966   7.753   1.840   8.709
  120PPPE   C3448967   7.803   1.728   8.891
  120PPPE   H4X48968   7.775   1.826   8.934
  120PPPE   H4Y48969   7.898   1.692   8.931
  120PPPE   C3548970   7.698   1.635   8.943
  120PPPE   H5X48971   7.690   1.625   9.054
  120PPPE   H5Y48972   7.710   1.534   8.905
  120PPPE   C3648973   7.576   1.702   8.898
  120PPPE   H6X48974   7.508   1.643   8.953
  120PPPE   H6Y48975   7.550   1.706   8.790
  120PPPE   C3748976   7.539   1.814   8.984
  120PPPE   H7X48977   7.605   1.898   8.978
  120PPPE   H7Y48978   7.526   1.778   9.090
  120PPPE   C3848979   7.430   1.883   8.924
  120PPPE   H8X48980   7.346   1.811   8.929
  120PPPE   H8Y48981   7.406   1.857   8.818
  120PPPE   C3948982   7.420   2.037   8.988
  120PPPE   H9X48983   7.347   2.112   8.957
  120PPPE   H9Y48984   7.506   2.090   8.966
  120PPPE  C31048985   7.385   2.067   9.133
  120PPPE  H10X48986   7.457   1.994   9.167
  120PPPE  H10Y48987   7.281   2.043   9.160
  120PPPE  C31148988   7.328   2.188   9.211
  120PPPE  H11X48989   7.219   2.194   9.236
  120PPPE  H11Y48990   7.361   2.256   9.133
  120PPPE  C31248991   7.382   2.195   9.353
  120PPPE  H12X48992   7.408   2.301   9.361
  120PPPE  H12Y48993   7.482   2.151   9.329
  120PPPE  C31348994   7.301   2.151   9.493
  120PPPE  H13X48995   7.193   2.157   9.480
  120PPPE  H13Y48996   7.354   2.206   9.574
  120PPPE  C31448997   7.304   2.017   9.580
  120PPPE  H14X48998   7.413   2.004   9.600
  120PPPE  H14Y48999   7.258   1.931   9.528
  120PPPE  C31549000   7.220   1.949   9.680
  120PPPE  H15X49001   7.232   1.838   9.678
  120PPPE  H15Y49002   7.115   1.939   9.652
  120PPPE  C31649003   7.278   2.018   9.799
  120PPPE  H16X49004   7.250   2.121   9.783
  120PPPE  H16Y49005   7.247   1.963   9.888
  120PPPE  H16Z49006   7.391   2.025   9.804
  121PPPE     N49007   0.196   2.236   7.628
  121PPPE   HN149008   0.183   2.326   7.577
  121PPPE   HN249009   0.289   2.198   7.604
  121PPPE   HN349010   0.120   2.171   7.598
  121PPPE   C1249011   0.181   2.267   7.775
  121PPPE  H12A49012   0.098   2.214   7.824
  121PPPE  H12B49013   0.155   2.376   7.781
  121PPPE   C1149014   0.311   2.220   7.837
  121PPPE  H11A49015   0.338   2.118   7.809
  121PPPE  H11B49016   0.297   2.217   7.949
  121PPPE     P49017   0.455   2.425   7.876
  121PPPE   O1349018   0.559   2.396   7.975
  121PPPE   O1449019   0.469   2.549   7.796
  121PPPE   O1149020   0.316   2.429   7.948
  121PPPE   O1249021   0.417   2.302   7.787
  121PPPE    C149022   0.251   2.545   7.977
  121PPPE    HA49023   0.194   2.605   7.902
  121PPPE    HB49024   0.326   2.622   7.961
  121PPPE    C249025   0.192   2.547   8.123
  121PPPE    HS49026   0.215   2.643   8.104
  121PPPE   O2149027   0.251   2.477   8.238
  121PPPE   C2149028   0.227   2.493   8.371
  121PPPE   O2249029   0.179   2.579   8.436
  121PPPE   C2249030   0.286   2.400   8.469
  121PPPE   H2R49031   0.371   2.350   8.421
  121PPPE   H2S49032   0.207   2.337   8.509
  121PPPE    C349033   0.049   2.508   8.114
  121PPPE    HX49034  -0.020   2.562   8.182
  121PPPE    HY49035   0.019   2.535   8.011
  121PPPE   O3149036   0.050   2.372   8.142
  121PPPE   C3149037  -0.061   2.320   8.121
  121PPPE   O3249038  -0.161   2.366   8.068
  121PPPE   C3249039  -0.038   2.187   8.179
  121PPPE   H2X49040   0.047   2.179   8.251
  121PPPE   H2Y49041  -0.031   2.109   8.102
  121PPPE   C2349042   0.333   2.492   8.585
  121PPPE   H3R49043   0.251   2.537   8.645
  121PPPE   H3S49044   0.379   2.574   8.531
  121PPPE   C2449045   0.430   2.423   8.677
  121PPPE   H4R49046   0.520   2.389   8.623
  121PPPE   H4S49047   0.366   2.337   8.704
  121PPPE   C2549048   0.468   2.500   8.803
  121PPPE   H5R49049   0.525   2.591   8.785
  121PPPE   H5S49050   0.539   2.435   8.857
  121PPPE   C2649051   0.353   2.533   8.894
  121PPPE   H6R49052   0.262   2.565   8.839
  121PPPE   H6S49053   0.381   2.621   8.955
  121PPPE   C2749054   0.327   2.408   8.978
  121PPPE   H7R49055   0.424   2.372   9.021
  121PPPE   H7S49056   0.291   2.327   8.912
  121PPPE   C2849057   0.225   2.427   9.086
  121PPPE   H8R49058   0.206   2.335   9.143
  121PPPE   H8S49059   0.127   2.459   9.043
  121PPPE   C2949060   0.289   2.529   9.171
  121PPPE   H9149061   0.300   2.630   9.128
  121PPPE  C21049062   0.326   2.514   9.294
  121PPPE  H10149063   0.369   2.601   9.338
  121PPPE  C21149064   0.314   2.394   9.377
  121PPPE  H11R49065   0.407   2.395   9.431
  121PPPE  H11S49066   0.323   2.302   9.318
  121PPPE  C21249067   0.197   2.387   9.476
  121PPPE  H12R49068   0.223   2.469   9.545
  121PPPE  H12S49069   0.204   2.303   9.541
  121PPPE  C21349070   0.061   2.348   9.412
  121PPPE  H13R49071   0.074   2.250   9.369
  121PPPE  H13S49072   0.061   2.409   9.324
  121PPPE  C21449073  -0.081   2.326   9.480
  121PPPE  H14R49074  -0.063   2.239   9.548
  121PPPE  H14S49075  -0.162   2.295   9.418
  121PPPE  C21549076  -0.148   2.447   9.549
  121PPPE  H15R49077  -0.183   2.536   9.498
  121PPPE  H15S49078  -0.060   2.476   9.588
  121PPPE  C21649079  -0.252   2.458   9.649
  121PPPE  H16R49080  -0.341   2.464   9.598
  121PPPE  H16S49081  -0.265   2.431   9.749
  121PPPE  H16T49082  -0.274   2.546   9.688
  121PPPE   C3349083  -0.155   2.178   8.260
  121PPPE   H3X49084  -0.138   2.088   8.316
  121PPPE   H3Y49085  -0.253   2.174   8.200
  121PPPE   C3449086  -0.157   2.263   8.382
  121PPPE   H4X49087  -0.261   2.226   8.377
  121PPPE   H4Y49088  -0.171   2.368   8.373
  121PPPE   C3549089  -0.090   2.228   8.520
  121PPPE   H5X49090   0.019   2.225   8.515
  121PPPE   H5Y49091  -0.115   2.120   8.533
  121PPPE   C3649092  -0.113   2.331   8.642
  121PPPE   H6X49093  -0.212   2.382   8.643
  121PPPE   H6Y49094  -0.072   2.432   8.639
  121PPPE   C3749095  -0.095   2.274   8.785
  121PPPE   H7X49096  -0.151   2.181   8.790
  121PPPE   H7Y49097  -0.144   2.335   8.864
  121PPPE   C3849098   0.009   2.172   8.821
  121PPPE   H8X49099   0.092   2.231   8.785
  121PPPE   H8Y49100  -0.001   2.075   8.762
  121PPPE   C3949101   0.011   2.145   8.971
  121PPPE   H9X49102  -0.069   2.079   9.009
  121PPPE   H9Y49103   0.001   2.242   9.025
  121PPPE  C31049104   0.144   2.082   9.004
  121PPPE  H10X49105   0.218   2.153   8.964
  121PPPE  H10Y49106   0.159   1.984   8.953
  121PPPE  C31149107   0.174   2.077   9.150
  121PPPE  H11X49108   0.109   2.144   9.210
  121PPPE  H11Y49109   0.282   2.102   9.165
  121PPPE  C31249110   0.164   1.942   9.204
  121PPPE  H12X49111   0.209   1.873   9.127
  121PPPE  H12Y49112   0.058   1.911   9.216
  121PPPE  C31349113   0.246   1.939   9.331
  121PPPE  H13X49114   0.352   1.909   9.310
  121PPPE  H13Y49115   0.192   1.869   9.394
  121PPPE  C31449116   0.233   2.022   9.453
  121PPPE  H14X49117   0.124   2.031   9.471
  121PPPE  H14Y49118   0.275   2.115   9.419
  121PPPE  C31549119   0.318   1.955   9.565
  121PPPE  H15X49120   0.420   1.981   9.530
  121PPPE  H15Y49121   0.325   1.846   9.561
  121PPPE  C31649122   0.289   1.975   9.717
  121PPPE  H16X49123   0.194   2.033   9.726
  121PPPE  H16Y49124   0.314   1.907   9.798
  121PPPE  H16Z49125   0.371   2.031   9.758
  122PPPE     N49126   6.589   0.956   7.781
  122PPPE   HN149127   6.566   0.983   7.683
  122PPPE   HN249128   6.537   1.021   7.844
  122PPPE   HN349129   6.692   0.965   7.797
  122PPPE   C1249130   6.543   0.813   7.806
  122PPPE  H12A49131   6.438   0.805   7.770
  122PPPE  H12B49132   6.544   0.797   7.916
  122PPPE   C1149133   6.628   0.705   7.735
  122PPPE  H11A49134   6.607   0.702   7.626
  122PPPE  H11B49135   6.599   0.605   7.774
  122PPPE     P49136   6.847   0.684   7.880
  122PPPE   O1349137   6.984   0.647   7.842
  122PPPE   O1449138   6.827   0.797   7.974
  122PPPE   O1149139   6.764   0.558   7.928
  122PPPE   O1249140   6.768   0.727   7.749
  122PPPE    C149141   6.788   0.494   8.055
  122PPPE    HA49142   6.896   0.499   8.086
  122PPPE    HB49143   6.764   0.387   8.040
  122PPPE    C249144   6.695   0.543   8.170
  122PPPE    HS49145   6.594   0.560   8.126
  122PPPE   O2149146   6.745   0.664   8.230
  122PPPE   C2149147   6.654   0.737   8.291
  122PPPE   O2249148   6.542   0.701   8.322
  122PPPE   C2249149   6.701   0.881   8.303
  122PPPE   H2R49150   6.657   0.935   8.218
  122PPPE   H2S49151   6.811   0.886   8.290
  122PPPE    C349152   6.680   0.432   8.276
  122PPPE    HX49153   6.578   0.441   8.321
  122PPPE    HY49154   6.690   0.333   8.227
  122PPPE   O3149155   6.784   0.440   8.373
  122PPPE   C3149156   6.745   0.404   8.493
  122PPPE   O3249157   6.640   0.354   8.524
  122PPPE   C3249158   6.846   0.438   8.591
  122PPPE   H2X49159   6.864   0.546   8.588
  122PPPE   H2Y49160   6.934   0.398   8.548
  122PPPE   C2349161   6.648   0.945   8.434
  122PPPE   H3R49162   6.540   0.931   8.450
  122PPPE   H3S49163   6.666   1.055   8.432
  122PPPE   C2449164   6.721   0.890   8.552
  122PPPE   H4R49165   6.742   0.781   8.555
  122PPPE   H4S49166   6.673   0.921   8.649
  122PPPE   C2549167   6.855   0.946   8.536
  122PPPE   H5R49168   6.839   1.054   8.507
  122PPPE   H5S49169   6.928   0.902   8.465
  122PPPE   C2649170   6.909   0.932   8.672
  122PPPE   H6R49171   6.840   0.966   8.751
  122PPPE   H6S49172   6.964   1.022   8.638
  122PPPE   C2749173   6.977   0.800   8.720
  122PPPE   H7R49174   7.042   0.765   8.637
  122PPPE   H7S49175   6.890   0.735   8.735
  122PPPE   C2849176   7.062   0.776   8.853
  122PPPE   H8R49177   7.156   0.833   8.836
  122PPPE   H8S49178   7.106   0.678   8.856
  122PPPE   C2949179   7.004   0.783   8.994
  122PPPE   H9149180   6.955   0.871   9.025
  122PPPE  C21049181   6.984   0.713   9.101
  122PPPE  H10149182   6.929   0.760   9.185
  122PPPE  C21149183   7.024   0.577   9.104
  122PPPE  H11R49184   7.131   0.577   9.127
  122PPPE  H11S49185   7.004   0.538   9.002
  122PPPE  C21249186   6.939   0.510   9.210
  122PPPE  H12R49187   6.967   0.404   9.195
  122PPPE  H12S49188   6.829   0.523   9.192
  122PPPE  C21349189   6.970   0.547   9.355
  122PPPE  H13R49190   6.926   0.647   9.378
  122PPPE  H13S49191   7.080   0.561   9.367
  122PPPE  C21449192   6.914   0.438   9.451
  122PPPE  H14R49193   6.932   0.338   9.406
  122PPPE  H14S49194   6.803   0.448   9.458
  122PPPE  C21549195   6.982   0.440   9.590
  122PPPE  H15R49196   7.004   0.546   9.615
  122PPPE  H15S49197   7.079   0.387   9.576
  122PPPE  C21649198   6.917   0.367   9.709
  122PPPE  H16R49199   6.831   0.420   9.755
  122PPPE  H16S49200   6.883   0.265   9.679
  122PPPE  H16T49201   6.993   0.356   9.791
  122PPPE   C3349202   6.819   0.379   8.728
  122PPPE   H3X49203   6.902   0.379   8.801
  122PPPE   H3Y49204   6.787   0.273   8.721
  122PPPE   C3449205   6.760   0.479   8.822
  122PPPE   H4X49206   6.837   0.561   8.827
  122PPPE   H4Y49207   6.758   0.430   8.921
  122PPPE   C3549208   6.624   0.527   8.774
  122PPPE   H5X49209   6.557   0.440   8.765
  122PPPE   H5Y49210   6.635   0.573   8.674
  122PPPE   C3649211   6.572   0.637   8.864
  122PPPE   H6X49212   6.654   0.712   8.863
  122PPPE   H6Y49213   6.553   0.600   8.967
  122PPPE   C3749214   6.448   0.711   8.815
  122PPPE   H7X49215   6.367   0.636   8.797
  122PPPE   H7Y49216   6.468   0.760   8.717
  122PPPE   C3849217   6.406   0.818   8.919
  122PPPE   H8X49218   6.362   0.766   9.005
  122PPPE   H8Y49219   6.333   0.890   8.876
  122PPPE   C3949220   6.499   0.927   8.967
  122PPPE   H9X49221   6.433   1.003   9.017
  122PPPE   H9Y49222   6.549   0.972   8.879
  122PPPE  C31049223   6.600   0.886   9.071
  122PPPE  H10X49224   6.664   0.973   9.094
  122PPPE  H10Y49225   6.669   0.809   9.031
  122PPPE  C31149226   6.532   0.829   9.196
  122PPPE  H11X49227   6.475   0.737   9.168
  122PPPE  H11Y49228   6.462   0.904   9.238
  122PPPE  C31249229   6.639   0.788   9.295
  122PPPE  H12X49230   6.690   0.882   9.325
  122PPPE  H12Y49231   6.707   0.721   9.237
  122PPPE  C31349232   6.593   0.710   9.418
  122PPPE  H13X49233   6.685   0.671   9.470
  122PPPE  H13Y49234   6.533   0.622   9.385
  122PPPE  C31449235   6.510   0.791   9.517
  122PPPE  H14X49236   6.461   0.720   9.588
  122PPPE  H14Y49237   6.428   0.843   9.464
  122PPPE  C31549238   6.592   0.895   9.597
  122PPPE  H15X49239   6.518   0.947   9.662
  122PPPE  H15Y49240   6.642   0.969   9.533
  122PPPE  C31649241   6.700   0.838   9.686
  122PPPE  H16X49242   6.724   0.903   9.774
  122PPPE  H16Y49243   6.656   0.744   9.716
  122PPPE  H16Z49244   6.789   0.793   9.638
  123PPPE     N49245   0.501   6.805   7.575
  123PPPE   HN149246   0.460   6.848   7.662
  123PPPE   HN249247   0.562   6.878   7.533
  123PPPE   HN349248   0.427   6.778   7.508
  123PPPE   C1249249   0.592   6.691   7.620
  123PPPE  H12A49250   0.679   6.743   7.665
  123PPPE  H12B49251   0.630   6.637   7.531
  123PPPE   C1149252   0.533   6.594   7.726
  123PPPE  H11A49253   0.613   6.540   7.783
  123PPPE  H11B49254   0.474   6.514   7.679
  123PPPE     P49255   0.409   6.636   7.958
  123PPPE   O1349256   0.292   6.721   7.987
  123PPPE   O1449257   0.403   6.491   7.986
  123PPPE   O1149258   0.534   6.694   8.032
  123PPPE   O1249259   0.442   6.665   7.806
  123PPPE    C149260   0.601   6.804   7.975
  123PPPE    HA49261   0.526   6.876   7.933
  123PPPE    HB49262   0.670   6.775   7.894
  123PPPE    C249263   0.683   6.874   8.084
  123PPPE    HS49264   0.760   6.939   8.035
  123PPPE   O2149265   0.745   6.786   8.176
  123PPPE   C2149266   0.838   6.716   8.120
  123PPPE   O2249267   0.871   6.720   8.004
  123PPPE   C2249268   0.905   6.643   8.233
  123PPPE   H2R49269   0.960   6.725   8.286
  123PPPE   H2S49270   0.975   6.567   8.192
  123PPPE    C349271   0.595   6.966   8.165
  123PPPE    HX49272   0.648   7.058   8.177
  123PPPE    HY49273   0.528   7.029   8.112
  123PPPE   O3149274   0.538   6.907   8.284
  123PPPE   C3149275   0.409   6.905   8.265
  123PPPE   O3249276   0.350   6.981   8.190
  123PPPE   C3249277   0.349   6.817   8.368
  123PPPE   H2X49278   0.291   6.896   8.415
  123PPPE   H2Y49279   0.422   6.789   8.443
  123PPPE   C2349280   0.803   6.577   8.328
  123PPPE   H3R49281   0.746   6.501   8.270
  123PPPE   H3S49282   0.733   6.655   8.365
  123PPPE   C2449283   0.860   6.512   8.453
  123PPPE   H4R49284   0.932   6.572   8.504
  123PPPE   H4S49285   0.929   6.432   8.424
  123PPPE   C2549286   0.759   6.486   8.566
  123PPPE   H5R49287   0.814   6.439   8.650
  123PPPE   H5S49288   0.680   6.414   8.536
  123PPPE   C2649289   0.702   6.617   8.624
  123PPPE   H6R49290   0.631   6.665   8.554
  123PPPE   H6S49291   0.785   6.690   8.637
  123PPPE   C2749292   0.636   6.596   8.762
  123PPPE   H7R49293   0.708   6.545   8.831
  123PPPE   H7S49294   0.546   6.535   8.752
  123PPPE   C2849295   0.598   6.731   8.825
  123PPPE   H8R49296   0.552   6.800   8.751
  123PPPE   H8S49297   0.702   6.765   8.833
  123PPPE   C2949298   0.507   6.720   8.947
  123PPPE   H9149299   0.410   6.687   8.916
  123PPPE  C21049300   0.513   6.741   9.081
  123PPPE  H10149301   0.425   6.729   9.144
  123PPPE  C21149302   0.621   6.787   9.168
  123PPPE  H11R49303   0.686   6.795   9.091
  123PPPE  H11S49304   0.700   6.733   9.222
  123PPPE  C21249305   0.564   6.905   9.237
  123PPPE  H12R49306   0.515   6.985   9.182
  123PPPE  H12S49307   0.601   7.001   9.264
  123PPPE  C21349308   0.565   6.863   9.373
  123PPPE  H13R49309   0.583   6.760   9.390
  123PPPE  H13S49310   0.471   6.875   9.312
  123PPPE  C21449311   0.582   6.946   9.501
  123PPPE  H14R49312   0.582   7.010   9.435
  123PPPE  H14S49313   0.676   6.989   9.524
  123PPPE  C21549314   0.478   6.984   9.603
  123PPPE  H15R49315   0.368   7.002   9.584
  123PPPE  H15S49316   0.466   7.068   9.664
  123PPPE  C21649317   0.534   6.875   9.685
  123PPPE  H16R49318   0.632   6.891   9.718
  123PPPE  H16S49319   0.487   6.867   9.783
  123PPPE  H16T49320   0.514   6.781   9.624
  123PPPE   C3349321   0.278   6.690   8.313
  123PPPE   H3X49322   0.353   6.620   8.272
  123PPPE   H3Y49323   0.219   6.709   8.222
  123PPPE   C3449324   0.197   6.612   8.418
  123PPPE   H4X49325   0.144   6.525   8.372
  123PPPE   H4Y49326   0.117   6.673   8.458
  123PPPE   C3549327   0.277   6.574   8.542
  123PPPE   H5X49328   0.315   6.667   8.589
  123PPPE   H5Y49329   0.362   6.511   8.505
  123PPPE   C3649330   0.188   6.513   8.651
  123PPPE   H6X49331   0.144   6.429   8.596
  123PPPE   H6Y49332   0.099   6.577   8.662
  123PPPE   C3749333   0.267   6.505   8.788
  123PPPE   H7X49334   0.283   6.603   8.827
  123PPPE   H7Y49335   0.365   6.456   8.773
  123PPPE   C3849336   0.215   6.444   8.917
  123PPPE   H8X49337   0.158   6.357   8.888
  123PPPE   H8Y49338   0.111   6.473   8.927
  123PPPE   C3949339   0.317   6.432   9.042
  123PPPE   H9X49340   0.437   6.470   9.080
  123PPPE   H9Y49341   0.224   6.386   9.095
  123PPPE  C31049342   0.287   6.536   9.134
  123PPPE  H10X49343   0.181   6.563   9.136
  123PPPE  H10Y49344   0.323   6.584   9.039
  123PPPE  C31149345   0.341   6.445   9.248
  123PPPE  H11X49346   0.375   6.532   9.300
  123PPPE  H11Y49347   0.421   6.369   9.218
  123PPPE  C31249348   0.241   6.385   9.334
  123PPPE  H12X49349   0.215   6.276   9.334
  123PPPE  H12Y49350   0.151   6.445   9.307
  123PPPE  C31349351   0.299   6.423   9.465
  123PPPE  H13X49352   0.194   6.408   9.485
  123PPPE  H13Y49353   0.340   6.520   9.489
  123PPPE  C31449354   0.385   6.323   9.533
  123PPPE  H14X49355   0.489   6.349   9.505
  123PPPE  H14Y49356   0.330   6.244   9.483
  123PPPE  C31549357   0.433   6.300   9.668
  123PPPE  H15X49358   0.447   6.410   9.679
  123PPPE  H15Y49359   0.518   6.244   9.708
  123PPPE  C31649360   0.361   6.217   9.757
  123PPPE  H16X49361   0.256   6.190   9.741
  123PPPE  H16Y49362   0.402   6.135   9.812
  123PPPE  H16Z49363   0.372   6.304   9.823
  124PPPE     N49364   7.349   1.003   8.038
  124PPPE   HN149365   7.340   1.106   8.048
  124PPPE   HN249366   7.287   0.974   7.959
  124PPPE   HN349367   7.322   0.954   8.126
  124PPPE   C1249368   7.489   0.962   8.000
  124PPPE  H12A49369   7.504   0.859   8.041
  124PPPE  H12B49370   7.560   1.032   8.049
  124PPPE   C1149371   7.505   0.964   7.847
  124PPPE  H11A49372   7.441   0.881   7.807
  124PPPE  H11B49373   7.610   0.936   7.818
  124PPPE     P49374   7.566   1.209   7.755
  124PPPE   O1349375   7.703   1.155   7.761
  124PPPE   O1449376   7.519   1.275   7.631
  124PPPE   O1149377   7.548   1.303   7.878
  124PPPE   O1249378   7.463   1.090   7.792
  124PPPE    C149379   7.425   1.359   7.912
  124PPPE    HA49380   7.356   1.276   7.938
  124PPPE    HB49381   7.378   1.418   7.830
  124PPPE    C249382   7.444   1.454   8.031
  124PPPE    HS49383   7.491   1.550   7.998
  124PPPE   O2149384   7.527   1.393   8.134
  124PPPE   C2149385   7.573   1.478   8.226
  124PPPE   O2249386   7.546   1.595   8.237
  124PPPE   C2249387   7.664   1.402   8.322
  124PPPE   H2R49388   7.684   1.467   8.409
  124PPPE   H2S49389   7.761   1.384   8.272
  124PPPE    C349390   7.303   1.478   8.084
  124PPPE    HX49391   7.335   1.539   8.172
  124PPPE    HY49392   7.244   1.544   8.017
  124PPPE   O3149393   7.239   1.347   8.111
  124PPPE   C3149394   7.119   1.314   8.160
  124PPPE   O3249395   7.026   1.372   8.194
  124PPPE   C3249396   7.084   1.185   8.206
  124PPPE   H2X49397   7.060   1.137   8.112
  124PPPE   H2Y49398   6.985   1.196   8.264
  124PPPE   C2349399   7.606   1.266   8.366
  124PPPE   H3R49400   7.595   1.201   8.276
  124PPPE   H3S49401   7.506   1.279   8.412
  124PPPE   C2449402   7.705   1.200   8.462
  124PPPE   H4R49403   7.806   1.207   8.415
  124PPPE   H4S49404   7.677   1.093   8.472
  124PPPE   C2549405   7.719   1.264   8.601
  124PPPE   H5R49406   7.748   1.371   8.591
  124PPPE   H5S49407   7.802   1.214   8.656
  124PPPE   C2649408   7.593   1.251   8.687
  124PPPE   H6R49409   7.557   1.146   8.686
  124PPPE   H6S49410   7.515   1.315   8.639
  124PPPE   C2749411   7.625   1.294   8.831
  124PPPE   H7R49412   7.632   1.402   8.814
  124PPPE   H7S49413   7.723   1.256   8.866
  124PPPE   C2849414   7.526   1.263   8.945
  124PPPE   H8R49415   7.512   1.158   8.967
  124PPPE   H8S49416   7.428   1.285   8.895
  124PPPE   C2949417   7.555   1.340   9.075
  124PPPE   H9149418   7.611   1.435   9.062
  124PPPE  C21049419   7.493   1.322   9.196
  124PPPE  H10149420   7.485   1.416   9.256
  124PPPE  C21149421   7.382   1.218   9.231
  124PPPE  H11R49422   7.370   1.143   9.152
  124PPPE  H11S49423   7.270   1.235   9.239
  124PPPE  C21249424   7.403   1.179   9.375
  124PPPE  H12R49425   7.512   1.160   9.384
  124PPPE  H12S49426   7.345   1.085   9.386
  124PPPE  C21349427   7.378   1.277   9.490
  124PPPE  H13R49428   7.286   1.286   9.547
  124PPPE  H13S49429   7.408   1.381   9.468
  124PPPE  C21449430   7.416   1.204   9.614
  124PPPE  H14R49431   7.519   1.194   9.593
  124PPPE  H14S49432   7.355   1.110   9.619
  124PPPE  C21549433   7.398   1.274   9.744
  124PPPE  H15R49434   7.439   1.234   9.836
  124PPPE  H15S49435   7.294   1.267   9.776
  124PPPE  C21649436   7.486   1.389   9.751
  124PPPE  H16R49437   7.473   1.434   9.653
  124PPPE  H16S49438   7.467   1.491   9.711
  124PPPE  H16T49439   7.520   1.424   9.851
  124PPPE   C3349440   7.189   1.143   8.303
  124PPPE   H3X49441   7.288   1.157   8.255
  124PPPE   H3Y49442   7.162   1.037   8.313
  124PPPE   C3449443   7.190   1.211   8.443
  124PPPE   H4X49444   7.251   1.303   8.435
  124PPPE   H4Y49445   7.246   1.145   8.513
  124PPPE   C3549446   7.053   1.234   8.510
  124PPPE   H5X49447   6.997   1.145   8.495
  124PPPE   H5Y49448   6.988   1.306   8.454
  124PPPE   C3649449   7.050   1.274   8.660
  124PPPE   H6X49450   6.958   1.328   8.690
  124PPPE   H6Y49451   7.117   1.353   8.668
  124PPPE   C3749452   7.136   1.206   8.766
  124PPPE   H7X49453   7.143   1.262   8.861
  124PPPE   H7Y49454   7.232   1.168   8.726
  124PPPE   C3849455   7.061   1.101   8.809
  124PPPE   H8X49456   7.108   1.015   8.748
  124PPPE   H8Y49457   6.952   1.133   8.794
  124PPPE   C3949458   7.059   1.043   8.936
  124PPPE   H9X49459   7.152   0.985   8.945
  124PPPE   H9Y49460   6.963   0.989   8.904
  124PPPE  C31049461   7.021   1.109   9.061
  124PPPE  H10X49462   6.913   1.136   9.048
  124PPPE  H10Y49463   7.093   1.191   9.060
  124PPPE  C31149464   7.042   1.019   9.183
  124PPPE  H11X49465   7.143   0.973   9.189
  124PPPE  H11Y49466   6.965   0.941   9.194
  124PPPE  C31249467   7.000   1.088   9.307
  124PPPE  H12X49468   6.894   1.118   9.292
  124PPPE  H12Y49469   7.069   1.172   9.293
  124PPPE  C31349470   7.026   1.005   9.435
  124PPPE  H13X49471   7.139   1.001   9.442
  124PPPE  H13Y49472   6.978   0.907   9.441
  124PPPE  C31449473   6.967   1.059   9.565
  124PPPE  H14X49474   6.866   1.106   9.564
  124PPPE  H14Y49475   7.055   1.122   9.547
  124PPPE  C31549476   7.024   1.039   9.702
  124PPPE  H15X49477   7.129   1.010   9.679
  124PPPE  H15Y49478   6.956   0.960   9.738
  124PPPE  C31649479   7.028   1.149   9.809
  124PPPE  H16X49480   6.927   1.185   9.837
  124PPPE  H16Y49481   7.073   1.096   9.893
  124PPPE  H16Z49482   7.096   1.236   9.797
  125PPPE     N49483   0.900   0.834   7.656
  125PPPE   HN149484   0.971   0.800   7.589
  125PPPE   HN249485   0.815   0.774   7.655
  125PPPE   HN349486   0.868   0.929   7.629
  125PPPE   C1249487   0.953   0.829   7.797
  125PPPE  H12A49488   1.040   0.897   7.804
  125PPPE  H12B49489   0.987   0.725   7.816
  125PPPE   C1149490   0.838   0.855   7.895
  125PPPE  H11A49491   0.876   0.849   7.999
  125PPPE  H11B49492   0.765   0.772   7.879
  125PPPE     P49493   0.622   1.003   7.859
  125PPPE   O1349494   0.602   1.146   7.826
  125PPPE   O1449495   0.576   0.901   7.766
  125PPPE   O1149496   0.573   0.966   8.005
  125PPPE   O1249497   0.780   0.983   7.872
  125PPPE    C149498   0.622   1.046   8.110
  125PPPE    HA49499   0.595   1.148   8.081
  125PPPE    HB49500   0.733   1.050   8.116
  125PPPE    C249501   0.568   1.005   8.250
  125PPPE    HS49502   0.616   1.078   8.320
  125PPPE   O2149503   0.596   0.873   8.280
  125PPPE   C2149504   0.717   0.859   8.314
  125PPPE   O2249505   0.799   0.947   8.335
  125PPPE   C2249506   0.738   0.711   8.319
  125PPPE   H2R49507   0.832   0.696   8.375
  125PPPE   H2S49508   0.757   0.681   8.214
  125PPPE    C349509   0.420   1.009   8.276
  125PPPE    HX49510   0.382   1.099   8.244
  125PPPE    HY49511   0.355   0.952   8.208
  125PPPE   O3149512   0.385   1.026   8.415
  125PPPE   C3149513   0.340   0.921   8.467
  125PPPE   O3249514   0.331   0.813   8.414
  125PPPE   C3249515   0.296   0.950   8.609
  125PPPE   H2X49516   0.268   0.851   8.650
  125PPPE   H2Y49517   0.211   1.019   8.608
  125PPPE   C2349518   0.618   0.634   8.383
  125PPPE   H3R49519   0.633   0.528   8.353
  125PPPE   H3S49520   0.519   0.663   8.340
  125PPPE   C2449521   0.604   0.646   8.536
  125PPPE   H4R49522   0.589   0.753   8.561
  125PPPE   H4S49523   0.696   0.616   8.590
  125PPPE   C2549524   0.485   0.562   8.590
  125PPPE   H5R49525   0.509   0.454   8.580
  125PPPE   H5S49526   0.396   0.581   8.526
  125PPPE   C2649527   0.453   0.591   8.737
  125PPPE   H6R49528   0.345   0.576   8.760
  125PPPE   H6S49529   0.478   0.697   8.757
  125PPPE   C2749530   0.536   0.504   8.831
  125PPPE   H7R49531   0.642   0.511   8.798
  125PPPE   H7S49532   0.504   0.398   8.817
  125PPPE   C2849533   0.525   0.547   8.979
  125PPPE   H8R49534   0.584   0.477   9.041
  125PPPE   H8S49535   0.420   0.534   9.014
  125PPPE   C2949536   0.574   0.688   9.001
  125PPPE   H9149537   0.501   0.769   8.987
  125PPPE  C21049538   0.695   0.724   9.047
  125PPPE  H10149539   0.719   0.831   9.054
  125PPPE  C21149540   0.808   0.634   9.088
  125PPPE  H11R49541   0.902   0.688   9.065
  125PPPE  H11S49542   0.811   0.540   9.029
  125PPPE  C21249543   0.801   0.598   9.237
  125PPPE  H12R49544   0.901   0.562   9.267
  125PPPE  H12S49545   0.728   0.514   9.252
  125PPPE  C21349546   0.758   0.709   9.334
  125PPPE  H13R49547   0.646   0.714   9.331
  125PPPE  H13S49548   0.795   0.809   9.300
  125PPPE  C21449549   0.801   0.682   9.479
  125PPPE  H14R49550   0.761   0.584   9.513
  125PPPE  H14S49551   0.751   0.759   9.543
  125PPPE  C21549552   0.955   0.686   9.499
  125PPPE  H15R49553   0.993   0.781   9.456
  125PPPE  H15S49554   1.004   0.605   9.441
  125PPPE  C21649555   1.005   0.674   9.643
  125PPPE  H16R49556   1.001   0.568   9.675
  125PPPE  H16S49557   1.111   0.708   9.650
  125PPPE  H16T49558   0.945   0.737   9.711
  125PPPE   C3349559   0.411   0.993   8.698
  125PPPE   H3X49560   0.507   0.948   8.661
  125PPPE   H3Y49561   0.395   0.972   8.806
  125PPPE   C3449562   0.433   1.137   8.699
  125PPPE   H4X49563   0.342   1.203   8.691
  125PPPE   H4Y49564   0.502   1.159   8.619
  125PPPE   C3549565   0.518   1.170   8.818
  125PPPE   H5X49566   0.451   1.185   8.901
  125PPPE   H5Y49567   0.545   1.270   8.806
  125PPPE   C3649568   0.661   1.109   8.825
  125PPPE   H6X49569   0.720   1.145   8.735
  125PPPE   H6Y49570   0.644   1.003   8.833
  125PPPE   C3749571   0.740   1.120   8.958
  125PPPE   H7X49572   0.790   1.204   8.900
  125PPPE   H7Y49573   0.843   1.119   8.994
  125PPPE   C3849574   0.652   1.145   9.086
  125PPPE   H8X49575   0.560   1.203   9.051
  125PPPE   H8Y49576   0.704   1.210   9.164
  125PPPE   C3949577   0.553   1.070   9.146
  125PPPE   H9X49578   0.634   0.996   9.144
  125PPPE   H9Y49579   0.465   1.054   9.077
  125PPPE  C31049580   0.527   1.134   9.279
  125PPPE  H10X49581   0.456   1.220   9.275
  125PPPE  H10Y49582   0.614   1.178   9.332
  125PPPE  C31149583   0.488   1.010   9.353
  125PPPE  H11X49584   0.480   1.037   9.461
  125PPPE  H11Y49585   0.563   0.932   9.341
  125PPPE  C31249586   0.354   0.956   9.304
  125PPPE  H12X49587   0.351   0.900   9.210
  125PPPE  H12Y49588   0.292   1.035   9.265
  125PPPE  C31349589   0.282   0.904   9.427
  125PPPE  H13X49590   0.174   0.926   9.406
  125PPPE  H13Y49591   0.294   0.956   9.521
  125PPPE  C31449592   0.345   0.766   9.455
  125PPPE  H14X49593   0.453   0.784   9.454
  125PPPE  H14Y49594   0.327   0.701   9.365
  125PPPE  C31549595   0.336   0.690   9.589
  125PPPE  H15X49596   0.354   0.582   9.579
  125PPPE  H15Y49597   0.250   0.638   9.608
  125PPPE  C31649598   0.323   0.759   9.725
  125PPPE  H16X49599   0.286   0.680   9.797
  125PPPE  H16Y49600   0.422   0.799   9.744
  125PPPE  H16Z49601   0.246   0.839   9.734
  126PPPE     N49602   0.348   7.394   7.923
  126PPPE   HN149603   0.420   7.397   7.998
  126PPPE   HN249604   0.281   7.472   7.942
  126PPPE   HN349605   0.297   7.303   7.926
  126PPPE   C1249606   0.416   7.416   7.790
  126PPPE  H12A49607   0.473   7.511   7.790
  126PPPE  H12B49608   0.339   7.424   7.714
  126PPPE   C1149609   0.491   7.295   7.743
  126PPPE  H11A49610   0.525   7.312   7.638
  126PPPE  H11B49611   0.417   7.210   7.746
  126PPPE     P49612   0.660   7.128   7.820
  126PPPE   O1349613   0.574   7.088   7.926
  126PPPE   O1449614   0.627   7.054   7.695
  126PPPE   O1149615   0.811   7.127   7.865
  126PPPE   O1249616   0.608   7.277   7.821
  126PPPE    C149617   0.866   7.245   7.919
  126PPPE    HA49618   0.791   7.321   7.955
  126PPPE    HB49619   0.930   7.290   7.841
  126PPPE    C249620   0.951   7.211   8.043
  126PPPE    HS49621   1.030   7.138   8.014
  126PPPE   O2149622   0.863   7.163   8.146
  126PPPE   C2149623   0.922   7.094   8.239
  126PPPE   O2249624   1.039   7.057   8.235
  126PPPE   C2249625   0.824   7.060   8.348
  126PPPE   H2R49626   0.830   6.951   8.367
  126PPPE   H2S49627   0.721   7.080   8.329
  126PPPE    C349628   1.015   7.337   8.091
  126PPPE    HX49629   1.073   7.311   8.183
  126PPPE    HY49630   1.078   7.380   8.011
  126PPPE   O3149631   0.906   7.424   8.115
  126PPPE   C3149632   0.929   7.509   8.204
  126PPPE   O3249633   1.027   7.537   8.262
  126PPPE   C3249634   0.825   7.588   8.246
  126PPPE   H2X49635   0.803   7.641   8.154
  126PPPE   H2Y49636   0.876   7.640   8.328
  126PPPE   C2349637   0.809   7.159   8.463
  126PPPE   H3R49638   0.746   7.244   8.429
  126PPPE   H3S49639   0.899   7.206   8.492
  126PPPE   C2449640   0.751   7.082   8.578
  126PPPE   H4R49641   0.820   6.997   8.601
  126PPPE   H4S49642   0.654   7.037   8.544
  126PPPE   C2549643   0.724   7.168   8.700
  126PPPE   H5R49644   0.640   7.235   8.676
  126PPPE   H5S49645   0.811   7.228   8.736
  126PPPE   C2649646   0.691   7.079   8.816
  126PPPE   H6R49647   0.622   6.998   8.782
  126PPPE   H6S49648   0.638   7.140   8.890
  126PPPE   C2749649   0.824   7.044   8.885
  126PPPE   H7R49650   0.865   7.137   8.932
  126PPPE   H7S49651   0.893   6.991   8.819
  126PPPE   C2849652   0.816   6.948   8.992
  126PPPE   H8R49653   0.891   6.876   9.026
  126PPPE   H8S49654   0.732   6.890   8.951
  126PPPE   C2949655   0.763   7.017   9.106
  126PPPE   H9149656   0.658   7.016   9.073
  126PPPE  C21049657   0.811   7.057   9.225
  126PPPE  H10149658   0.758   7.038   9.322
  126PPPE  C21149659   0.943   7.042   9.274
  126PPPE  H11R49660   0.996   7.064   9.181
  126PPPE  H11S49661   0.962   6.940   9.315
  126PPPE  C21249662   0.948   7.162   9.367
  126PPPE  H12R49663   0.892   7.252   9.328
  126PPPE  H12S49664   1.055   7.186   9.369
  126PPPE  C21349665   0.904   7.144   9.512
  126PPPE  H13R49666   0.794   7.134   9.514
  126PPPE  H13S49667   0.929   7.238   9.568
  126PPPE  C21449668   0.964   7.025   9.583
  126PPPE  H14R49669   1.050   7.052   9.635
  126PPPE  H14S49670   0.996   6.938   9.524
  126PPPE  C21549671   0.885   6.987   9.701
  126PPPE  H15R49672   0.940   6.911   9.759
  126PPPE  H15S49673   0.794   6.940   9.666
  126PPPE  C21649674   0.856   7.103   9.790
  126PPPE  H16R49675   0.942   7.124   9.860
  126PPPE  H16S49676   0.815   7.198   9.751
  126PPPE  H16T49677   0.767   7.062   9.840
  126PPPE   C3349678   0.728   7.524   8.334
  126PPPE   H3X49679   0.705   7.429   8.283
  126PPPE   H3Y49680   0.654   7.606   8.338
  126PPPE   C3449681   0.749   7.503   8.483
  126PPPE   H4X49682   0.845   7.456   8.513
  126PPPE   H4Y49683   0.667   7.429   8.495
  126PPPE   C3549684   0.718   7.620   8.579
  126PPPE   H5X49685   0.624   7.674   8.552
  126PPPE   H5Y49686   0.800   7.694   8.572
  126PPPE   C3649687   0.710   7.564   8.721
  126PPPE   H6X49688   0.811   7.527   8.748
  126PPPE   H6Y49689   0.641   7.477   8.723
  126PPPE   C3749690   0.676   7.665   8.829
  126PPPE   H7X49691   0.569   7.684   8.831
  126PPPE   H7Y49692   0.727   7.761   8.811
  126PPPE   C3849693   0.717   7.615   8.967
  126PPPE   H8X49694   0.726   7.701   9.036
  126PPPE   H8Y49695   0.812   7.559   8.964
  126PPPE   C3949696   0.614   7.521   9.020
  126PPPE   H9X49697   0.620   7.426   8.963
  126PPPE   H9Y49698   0.514   7.566   9.005
  126PPPE  C31049699   0.639   7.486   9.167
  126PPPE  H10X49700   0.674   7.568   9.226
  126PPPE  H10Y49701   0.704   7.396   9.171
  126PPPE  C31149702   0.521   7.474   9.259
  126PPPE  H11X49703   0.490   7.428   9.167
  126PPPE  H11Y49704   0.412   7.464   9.249
  126PPPE  C31249705   0.545   7.401   9.393
  126PPPE  H12X49706   0.621   7.317   9.375
  126PPPE  H12Y49707   0.441   7.376   9.433
  126PPPE  C31349708   0.609   7.445   9.509
  126PPPE  H13X49709   0.540   7.528   9.511
  126PPPE  H13Y49710   0.711   7.449   9.462
  126PPPE  C31449711   0.579   7.348   9.625
  126PPPE  H14X49712   0.607   7.420   9.703
  126PPPE  H14Y49713   0.650   7.262   9.623
  126PPPE  C31549714   0.434   7.305   9.665
  126PPPE  H15X49715   0.379   7.227   9.614
  126PPPE  H15Y49716   0.358   7.382   9.648
  126PPPE  C31649717   0.434   7.249   9.806
  126PPPE  H16X49718   0.507   7.165   9.814
  126PPPE  H16Y49719   0.466   7.330   9.872
  126PPPE  H16Z49720   0.332   7.211   9.829
  127PPPE     N49721   7.192   7.310   7.595
  127PPPE   HN149722   7.285   7.328   7.553
  127PPPE   HN249723   7.144   7.240   7.536
  127PPPE   HN349724   7.140   7.398   7.614
  127PPPE   C1249725   7.213   7.240   7.725
  127PPPE  H12A49726   7.322   7.243   7.750
  127PPPE  H12B49727   7.176   7.139   7.702
  127PPPE   C1149728   7.126   7.288   7.841
  127PPPE  H11A49729   7.152   7.237   7.938
  127PPPE  H11B49730   7.023   7.255   7.814
  127PPPE     P49731   7.266   7.490   7.902
  127PPPE   O1349732   7.348   7.382   7.958
  127PPPE   O1449733   7.314   7.565   7.783
  127PPPE   O1149734   7.224   7.582   8.021
  127PPPE   O1249735   7.129   7.429   7.853
  127PPPE    C149736   7.115   7.670   8.013
  127PPPE    HA49737   7.053   7.661   7.921
  127PPPE    HB49738   7.154   7.775   8.014
  127PPPE    C249739   7.015   7.651   8.128
  127PPPE    HS49740   6.967   7.750   8.120
  127PPPE   O2149741   7.067   7.628   8.260
  127PPPE   C2149742   7.130   7.725   8.318
  127PPPE   O2249743   7.147   7.837   8.274
  127PPPE   C2249744   7.187   7.680   8.452
  127PPPE   H2R49745   7.297   7.672   8.437
  127PPPE   H2S49746   7.150   7.580   8.479
  127PPPE    C349747   6.913   7.535   8.104
  127PPPE    HX49748   6.816   7.558   8.155
  127PPPE    HY49749   6.891   7.525   7.996
  127PPPE   O3149750   6.965   7.409   8.147
  127PPPE   C3149751   6.949   7.378   8.273
  127PPPE   O3249752   6.867   7.423   8.352
  127PPPE   C3249753   7.044   7.267   8.305
  127PPPE   H2X49754   7.145   7.289   8.268
  127PPPE   H2Y49755   7.004   7.175   8.257
  127PPPE   C2349756   7.159   7.786   8.562
  127PPPE   H3R49757   7.174   7.889   8.525
  127PPPE   H3S49758   7.229   7.771   8.648
  127PPPE   C2449759   7.016   7.776   8.613
  127PPPE   H4R49760   6.944   7.811   8.536
  127PPPE   H4S49761   7.005   7.843   8.701
  127PPPE   C2549762   6.987   7.631   8.648
  127PPPE   H5R49763   7.073   7.580   8.698
  127PPPE   H5S49764   6.944   7.568   8.567
  127PPPE   C2649765   6.908   7.624   8.766
  127PPPE   H6R49766   6.830   7.700   8.758
  127PPPE   H6S49767   6.953   7.683   8.846
  127PPPE   C2749768   6.870   7.478   8.798
  127PPPE   H7R49769   6.818   7.427   8.715
  127PPPE   H7S49770   6.796   7.485   8.870
  127PPPE   C2849771   6.950   7.395   8.892
  127PPPE   H8R49772   6.989   7.458   8.975
  127PPPE   H8S49773   7.025   7.368   8.814
  127PPPE   C2949774   6.845   7.298   8.945
  127PPPE   H9149775   6.839   7.210   8.898
  127PPPE  C21049776   6.775   7.294   9.055
  127PPPE  H10149777   6.732   7.200   9.090
  127PPPE  C21149778   6.784   7.388   9.164
  127PPPE  H11R49779   6.678   7.390   9.198
  127PPPE  H11S49780   6.832   7.479   9.133
  127PPPE  C21249781   6.869   7.333   9.276
  127PPPE  H12R49782   6.972   7.294   9.261
  127PPPE  H12S49783   6.804   7.248   9.280
  127PPPE  C21349784   6.849   7.400   9.408
  127PPPE  H13R49785   6.740   7.403   9.432
  127PPPE  H13S49786   6.880   7.503   9.385
  127PPPE  C21449787   6.938   7.350   9.525
  127PPPE  H14R49788   6.899   7.401   9.616
  127PPPE  H14S49789   7.041   7.377   9.500
  127PPPE  C21549790   6.969   7.210   9.572
  127PPPE  H15R49791   7.023   7.136   9.509
  127PPPE  H15S49792   6.886   7.153   9.584
  127PPPE  C21649793   6.961   7.202   9.720
  127PPPE  H16R49794   6.871   7.233   9.773
  127PPPE  H16S49795   6.978   7.093   9.747
  127PPPE  H16T49796   7.032   7.271   9.763
  127PPPE   C3349797   7.054   7.261   8.456
  127PPPE   H3X49798   6.947   7.231   8.468
  127PPPE   H3Y49799   7.042   7.348   8.522
  127PPPE   C3449800   7.177   7.179   8.508
  127PPPE   H4X49801   7.266   7.204   8.448
  127PPPE   H4Y49802   7.170   7.069   8.500
  127PPPE   C3549803   7.211   7.197   8.656
  127PPPE   H5X49804   7.269   7.109   8.694
  127PPPE   H5Y49805   7.118   7.199   8.714
  127PPPE   C3649806   7.284   7.326   8.684
  127PPPE   H6X49807   7.222   7.405   8.636
  127PPPE   H6Y49808   7.383   7.324   8.634
  127PPPE   C3749809   7.303   7.352   8.833
  127PPPE   H7X49810   7.381   7.285   8.874
  127PPPE   H7Y49811   7.209   7.325   8.887
  127PPPE   C3849812   7.330   7.499   8.865
  127PPPE   H8X49813   7.265   7.559   8.796
  127PPPE   H8Y49814   7.434   7.528   8.839
  127PPPE   C3949815   7.290   7.532   9.010
  127PPPE   H9X49816   7.185   7.498   9.026
  127PPPE   H9Y49817   7.292   7.642   9.025
  127PPPE  C31049818   7.372   7.458   9.117
  127PPPE  H10X49819   7.480   7.484   9.113
  127PPPE  H10Y49820   7.359   7.349   9.095
  127PPPE  C31149821   7.321   7.471   9.261
  127PPPE  H11X49822   7.366   7.392   9.326
  127PPPE  H11Y49823   7.211   7.454   9.264
  127PPPE  C31249824   7.352   7.604   9.326
  127PPPE  H12X49825   7.317   7.686   9.261
  127PPPE  H12Y49826   7.460   7.621   9.350
  127PPPE  C31349827   7.277   7.601   9.456
  127PPPE  H13X49828   7.332   7.537   9.529
  127PPPE  H13Y49829   7.177   7.555   9.445
  127PPPE  C31449830   7.263   7.737   9.515
  127PPPE  H14X49831   7.269   7.826   9.449
  127PPPE  H14Y49832   7.342   7.748   9.579
  127PPPE  C31549833   7.160   7.728   9.619
  127PPPE  H15X49834   7.151   7.627   9.665
  127PPPE  H15Y49835   7.078   7.739   9.551
  127PPPE  C31649836   7.155   7.826   9.729
  127PPPE  H16X49837   7.102   7.779   9.812
  127PPPE  H16Y49838   7.230   7.833   9.802
  127PPPE  H16Z49839   7.129   7.929   9.700
  128PPPE     N49840   6.875   8.082   7.750
  128PPPE   HN149841   6.871   7.994   7.805
  128PPPE   HN249842   6.899   8.064   7.650
  128PPPE   HN349843   6.943   8.149   7.792
  128PPPE   C1249844   6.741   8.149   7.752
  128PPPE  H12A49845   6.751   8.238   7.686
  128PPPE  H12B49846   6.723   8.183   7.856
  128PPPE   C1149847   6.624   8.058   7.706
  128PPPE  H11A49848   6.634   8.023   7.601
  128PPPE  H11B49849   6.532   8.122   7.703
  128PPPE     P49850   6.490   7.936   7.898
  128PPPE   O1349851   6.421   8.067   7.894
  128PPPE   O1449852   6.409   7.816   7.871
  128PPPE   O1149853   6.571   7.921   8.033
  128PPPE   O1249854   6.610   7.945   7.792
  128PPPE    C149855   6.698   7.858   8.047
  128PPPE    HA49856   6.777   7.920   7.998
  128PPPE    HB49857   6.700   7.760   7.993
  128PPPE    C249858   6.737   7.826   8.197
  128PPPE    HS49859   6.812   7.752   8.192
  128PPPE   O2149860   6.634   7.762   8.274
  128PPPE   C2149861   6.689   7.679   8.369
  128PPPE   O2249862   6.805   7.670   8.396
  128PPPE   C2249863   6.583   7.613   8.442
  128PPPE   H2R49864   6.522   7.557   8.369
  128PPPE   H2S49865   6.541   7.710   8.480
  128PPPE    C349866   6.787   7.950   8.279
  128PPPE    HX49867   6.809   7.915   8.382
  128PPPE    HY49868   6.885   7.988   8.241
  128PPPE   O3149869   6.685   8.050   8.285
  128PPPE   C3149870   6.700   8.155   8.207
  128PPPE   O3249871   6.803   8.189   8.151
  128PPPE   C3249872   6.567   8.231   8.199
  128PPPE   H2X49873   6.488   8.161   8.164
  128PPPE   H2Y49874   6.576   8.311   8.122
  128PPPE   C2349875   6.605   7.531   8.567
  128PPPE   H3R49876   6.691   7.465   8.551
  128PPPE   H3S49877   6.518   7.468   8.594
  128PPPE   C2449878   6.633   7.629   8.678
  128PPPE   H4R49879   6.600   7.729   8.687
  128PPPE   H4S49880   6.720   7.671   8.625
  128PPPE   C2549881   6.617   7.576   8.825
  128PPPE   H5R49882   6.630   7.469   8.796
  128PPPE   H5S49883   6.522   7.558   8.873
  128PPPE   C2649884   6.697   7.649   8.950
  128PPPE   H6R49885   6.806   7.649   8.958
  128PPPE   H6S49886   6.715   7.585   9.035
  128PPPE   C2749887   6.688   7.795   8.969
  128PPPE   H7R49888   6.591   7.792   9.020
  128PPPE   H7S49889   6.685   7.841   8.867
  128PPPE   C2849890   6.797   7.854   9.058
  128PPPE   H8R49891   6.897   7.857   9.010
  128PPPE   H8S49892   6.808   7.792   9.149
  128PPPE   C2949893   6.755   7.994   9.083
  128PPPE   H9149894   6.744   8.056   8.992
  128PPPE  C21049895   6.724   8.047   9.201
  128PPPE  H10149896   6.697   8.153   9.203
  128PPPE  C21149897   6.725   7.977   9.333
  128PPPE  H11R49898   6.747   7.868   9.324
  128PPPE  H11S49899   6.622   7.986   9.371
  128PPPE  C21249900   6.821   8.039   9.436
  128PPPE  H12R49901   6.799   8.147   9.445
  128PPPE  H12S49902   6.928   8.030   9.403
  128PPPE  C21349903   6.804   7.974   9.574
  128PPPE  H13R49904   6.700   7.958   9.604
  128PPPE  H13S49905   6.856   8.041   9.648
  128PPPE  C21449906   6.869   7.839   9.580
  128PPPE  H14R49907   6.971   7.879   9.567
  128PPPE  H14S49908   6.845   7.768   9.498
  128PPPE  C21549909   6.851   7.766   9.713
  128PPPE  H15R49910   6.907   7.670   9.714
  128PPPE  H15S49911   6.744   7.736   9.725
  128PPPE  C21649912   6.876   7.855   9.834
  128PPPE  H16R49913   6.975   7.898   9.855
  128PPPE  H16S49914   6.813   7.942   9.846
  128PPPE  H16T49915   6.843   7.792   9.913
  128PPPE   C3349916   6.531   8.304   8.330
  128PPPE   H3X49917   6.460   8.387   8.306
  128PPPE   H3Y49918   6.626   8.348   8.365
  128PPPE   C3449919   6.474   8.219   8.445
  128PPPE   H4X49920   6.552   8.144   8.470
  128PPPE   H4Y49921   6.384   8.167   8.409
  128PPPE   C3549922   6.432   8.299   8.571
  128PPPE   H5X49923   6.357   8.376   8.544
  128PPPE   H5Y49924   6.522   8.346   8.615
  128PPPE   C3649925   6.377   8.217   8.686
  128PPPE   H6X49926   6.296   8.150   8.650
  128PPPE   H6Y49927   6.335   8.283   8.766
  128PPPE   C3749928   6.488   8.140   8.755
  128PPPE   H7X49929   6.571   8.208   8.783
  128PPPE   H7Y49930   6.524   8.057   8.689
  128PPPE   C3849931   6.441   8.088   8.887
  128PPPE   H8X49932   6.444   8.162   8.968
  128PPPE   H8Y49933   6.522   8.015   8.916
  128PPPE   C3949934   6.296   8.034   8.879
  128PPPE   H9X49935   6.286   7.961   8.799
  128PPPE   H9Y49936   6.214   8.082   8.832
  128PPPE  C31049937   6.262   7.965   9.006
  128PPPE  H10X49938   6.365   7.930   9.003
  128PPPE  H10Y49939   6.178   7.892   8.997
  128PPPE  C31149940   6.250   8.027   9.138
  128PPPE  H11X49941   6.154   8.050   9.095
  128PPPE  H11Y49942   6.324   8.105   9.143
  128PPPE  C31249943   6.208   7.960   9.269
  128PPPE  H12X49944   6.113   7.900   9.264
  128PPPE  H12Y49945   6.179   8.037   9.345
  128PPPE  C31349946   6.318   7.913   9.348
  128PPPE  H13X49947   6.389   7.996   9.367
  128PPPE  H13Y49948   6.380   7.841   9.294
  128PPPE  C31449949   6.235   7.860   9.461
  128PPPE  H14X49950   6.182   7.762   9.443
  128PPPE  H14Y49951   6.180   7.930   9.526
  128PPPE  C31549952   6.323   7.817   9.550
  128PPPE  H15X49953   6.405   7.889   9.572
  128PPPE  H15Y49954   6.349   7.721   9.469
  128PPPE  C31649955   6.256   7.807   9.703
  128PPPE  H16X49956   6.305   7.824   9.802
  128PPPE  H16Y49957   6.194   7.719   9.743
  128PPPE  H16Z49958   6.362   7.804   9.739
  129PPPE     N49959   7.764   6.589   7.851
  129PPPE   HN149960   7.796   6.604   7.753
  129PPPE   HN249961   7.843   6.592   7.917
  129PPPE   HN349962   7.711   6.500   7.859
  129PPPE   C1249963   7.682   6.712   7.877
  129PPPE  H12A49964   7.626   6.713   7.972
  129PPPE  H12B49965   7.618   6.714   7.788
  129PPPE   C1149966   7.762   6.832   7.907
  129PPPE  H11A49967   7.812   6.815   8.006
  129PPPE  H11B49968   7.694   6.922   7.917
  129PPPE     P49969   7.954   6.952   7.793
  129PPPE   O1349970   8.081   6.899   7.740
  129PPPE   O1449971   7.884   7.052   7.709
  129PPPE   O1149972   7.966   6.997   7.947
  129PPPE   O1249973   7.853   6.835   7.799
  129PPPE    C149974   8.104   6.996   7.987
  129PPPE    HA49975   8.147   7.082   8.032
  129PPPE    HB49976   8.173   7.035   7.912
  129PPPE    C249977   8.138   6.890   8.090
  129PPPE    HS49978   8.184   6.816   8.022
  129PPPE   O2149979   8.024   6.841   8.167
  129PPPE   C2149980   8.056   6.727   8.228
  129PPPE   O2249981   8.149   6.656   8.199
  129PPPE   C2249982   7.952   6.690   8.331
  129PPPE   H2R49983   7.896   6.606   8.289
  129PPPE   H2S49984   7.883   6.774   8.344
  129PPPE    C349985   8.239   6.950   8.187
  129PPPE    HX49986   8.305   6.877   8.223
  129PPPE    HY49987   8.296   7.032   8.135
  129PPPE   O3149988   8.175   6.994   8.302
  129PPPE   C3149989   8.175   6.953   8.427
  129PPPE   O3249990   8.247   6.880   8.487
  129PPPE   C3249991   8.068   7.008   8.516
  129PPPE   H2X49992   8.089   7.104   8.513
  129PPPE   H2Y49993   8.095   7.019   8.622
  129PPPE   C2349994   8.016   6.641   8.463
  129PPPE   H3R49995   8.083   6.720   8.501
  129PPPE   H3S49996   8.076   6.548   8.446
  129PPPE   C2449997   7.911   6.616   8.571
  129PPPE   H4R49998   7.870   6.514   8.560
  129PPPE   H4S49999   7.831   6.692   8.556
  129PPPE   C2550000   7.958   6.630   8.715
  129PPPE   H5R50001   7.996   6.733   8.736
  129PPPE   H5S50002   8.040   6.558   8.736
  129PPPE   C2650003   7.844   6.600   8.810
  129PPPE   H6R50004   7.808   6.495   8.816
  129PPPE   H6S50005   7.756   6.659   8.775
  129PPPE   C2750006   7.886   6.636   8.951
  129PPPE   H7R50007   7.805   6.590   9.013
  129PPPE   H7S50008   7.893   6.747   8.949
  129PPPE   C2850009   8.001   6.571   9.020
  129PPPE   H8R50010   8.014   6.480   8.959
  129PPPE   H8S50011   7.978   6.534   9.122
  129PPPE   C2950012   8.121   6.659   9.026
  129PPPE   H9150013   8.194   6.630   8.955
  129PPPE  C21050014   8.157   6.771   9.088
  129PPPE  H10150015   8.258   6.808   9.075
  129PPPE  C21150016   8.083   6.853   9.181
  129PPPE  H11R50017   7.980   6.840   9.147
  129PPPE  H11S50018   8.095   6.963   9.173
  129PPPE  C21250019   8.120   6.813   9.321
  129PPPE  H12R50020   8.109   6.707   9.356
  129PPPE  H12S50021   8.042   6.883   9.347
  129PPPE  C21350022   8.170   6.913   9.423
  129PPPE  H13R50023   8.171   7.020   9.408
  129PPPE  H13S50024   8.249   6.882   9.359
  129PPPE  C21450025   8.176   6.872   9.571
  129PPPE  H14R50026   8.248   6.948   9.616
  129PPPE  H14S50027   8.206   6.763   9.556
  129PPPE  C21550028   8.087   6.880   9.684
  129PPPE  H15R50029   8.068   6.775   9.651
  129PPPE  H15S50030   8.037   6.974   9.660
  129PPPE  C21650031   8.084   6.831   9.826
  129PPPE  H16R50032   8.134   6.916   9.877
  129PPPE  H16S50033   8.002   6.799   9.887
  129PPPE  H16T50034   8.131   6.729   9.833
  129PPPE   C3350035   7.932   7.035   8.457
  129PPPE   H3X50036   7.899   6.932   8.465
  129PPPE   H3Y50037   7.942   7.062   8.349
  129PPPE   C3450038   7.839   7.135   8.527
  129PPPE   H4X50039   7.738   7.090   8.514
  129PPPE   H4Y50040   7.840   7.233   8.474
  129PPPE   C3550041   7.864   7.168   8.676
  129PPPE   H5X50042   7.784   7.236   8.713
  129PPPE   H5Y50043   7.962   7.219   8.687
  129PPPE   C3650044   7.873   7.042   8.761
  129PPPE   H6X50045   7.934   6.964   8.715
  129PPPE   H6Y50046   7.779   6.997   8.746
  129PPPE   C3750047   7.915   7.058   8.908
  129PPPE   H7X50048   8.009   7.115   8.901
  129PPPE   H7Y50049   7.946   6.958   8.946
  129PPPE   C3850050   7.824   7.136   9.007
  129PPPE   H8X50051   7.773   7.221   8.959
  129PPPE   H8Y50052   7.889   7.165   9.091
  129PPPE   C3950053   7.728   7.056   9.092
  129PPPE   H9X50054   7.792   6.979   9.135
  129PPPE   H9Y50055   7.649   7.030   9.029
  129PPPE  C31050056   7.633   7.101   9.201
  129PPPE  H10X50057   7.559   7.172   9.159
  129PPPE  H10Y50058   7.709   7.134   9.272
  129PPPE  C31150059   7.549   6.997   9.277
  129PPPE  H11X50060   7.494   6.932   9.209
  129PPPE  H11Y50061   7.476   7.039   9.346
  129PPPE  C31250062   7.634   6.910   9.362
  129PPPE  H12X50063   7.700   6.964   9.428
  129PPPE  H12Y50064   7.706   6.889   9.285
  129PPPE  C31350065   7.558   6.782   9.401
  129PPPE  H13X50066   7.595   6.682   9.388
  129PPPE  H13Y50067   7.480   6.761   9.337
  129PPPE  C31450068   7.542   6.736   9.536
  129PPPE  H14X50069   7.464   6.705   9.578
  129PPPE  H14Y50070   7.503   6.829   9.571
  129PPPE  C31550071   7.643   6.665   9.610
  129PPPE  H15X50072   7.652   6.683   9.724
  129PPPE  H15Y50073   7.682   6.729   9.537
  129PPPE  C31650074   7.720   6.557   9.600
  129PPPE  H16X50075   7.768   6.534   9.509
  129PPPE  H16Y50076   7.791   6.575   9.688
  129PPPE  H16Z50077   7.646   6.497   9.634
  130PPPE     N50078   0.188   1.792   7.713
  130PPPE   HN150079   0.184   1.773   7.611
  130PPPE   HN250080   0.101   1.842   7.739
  130PPPE   HN350081   0.272   1.846   7.740
  130PPPE   C1250082   0.192   1.663   7.790
  130PPPE  H12A50083   0.147   1.678   7.889
  130PPPE  H12B50084   0.298   1.635   7.806
  130PPPE   C1150085   0.131   1.550   7.709
  130PPPE  H11A50086   0.182   1.550   7.609
  130PPPE  H11B50087   0.022   1.556   7.687
  130PPPE     P50088   0.095   1.365   7.900
  130PPPE   O1350089  -0.047   1.403   7.900
  130PPPE   O1450090   0.137   1.224   7.905
  130PPPE   O1150091   0.164   1.453   8.014
  130PPPE   O1250092   0.165   1.429   7.773
  130PPPE    C150093   0.296   1.424   8.057
  130PPPE    HA50094   0.337   1.506   8.121
  130PPPE    HB50095   0.366   1.413   7.971
  130PPPE    C250096   0.306   1.298   8.146
  130PPPE    HS50097   0.290   1.208   8.082
  130PPPE   O2150098   0.218   1.295   8.263
  130PPPE   C2150099   0.169   1.180   8.313
  130PPPE   O2250100   0.162   1.071   8.260
  130PPPE   C2250101   0.102   1.202   8.444
  130PPPE   H2R50102   0.167   1.258   8.513
  130PPPE   H2S50103   0.078   1.104   8.490
  130PPPE    C350104   0.453   1.311   8.191
  130PPPE    HX50105   0.503   1.224   8.218
  130PPPE    HY50106   0.522   1.325   8.108
  130PPPE   O3150107   0.468   1.407   8.295
  130PPPE   C3150108   0.489   1.345   8.408
  130PPPE   O3250109   0.513   1.230   8.428
  130PPPE   C3250110   0.507   1.441   8.506
  130PPPE   H2X50111   0.417   1.501   8.523
  130PPPE   H2Y50112   0.605   1.480   8.489
  130PPPE   C2350113  -0.029   1.261   8.396
  130PPPE   H3R50114  -0.095   1.175   8.367
  130PPPE   H3S50115  -0.018   1.329   8.307
  130PPPE   C2450116  -0.095   1.342   8.503
  130PPPE   H4R50117  -0.121   1.272   8.585
  130PPPE   H4S50118  -0.189   1.385   8.461
  130PPPE   C2550119  -0.006   1.457   8.552
  130PPPE   H5R50120  -0.063   1.549   8.539
  130PPPE   H5S50121   0.085   1.467   8.488
  130PPPE   C2650122   0.032   1.438   8.699
  130PPPE   H6R50123   0.108   1.358   8.699
  130PPPE   H6S50124  -0.059   1.403   8.753
  130PPPE   C2750125   0.094   1.558   8.772
  130PPPE   H7R50126   0.023   1.640   8.790
  130PPPE   H7S50127   0.174   1.601   8.708
  130PPPE   C2850128   0.155   1.521   8.909
  130PPPE   H8R50129   0.216   1.609   8.940
  130PPPE   H8S50130   0.226   1.436   8.898
  130PPPE   C2950131   0.053   1.492   9.017
  130PPPE   H9150132  -0.007   1.578   9.050
  130PPPE  C21050133   0.032   1.374   9.079
  130PPPE  H10150134  -0.037   1.376   9.165
  130PPPE  C21150135   0.106   1.244   9.056
  130PPPE  H11R50136   0.145   1.233   8.953
  130PPPE  H11S50137   0.040   1.155   9.070
  130PPPE  C21250138   0.220   1.240   9.158
  130PPPE  H12R50139   0.279   1.333   9.155
  130PPPE  H12S50140   0.290   1.163   9.119
  130PPPE  C21350141   0.165   1.218   9.304
  130PPPE  H13R50142   0.115   1.119   9.306
  130PPPE  H13S50143   0.091   1.297   9.325
  130PPPE  C21450144   0.262   1.225   9.424
  130PPPE  H14R50145   0.332   1.306   9.424
  130PPPE  H14S50146   0.333   1.152   9.416
  130PPPE  C21550147   0.222   1.176   9.561
  130PPPE  H15R50148   0.312   1.146   9.623
  130PPPE  H15S50149   0.158   1.086   9.556
  130PPPE  C21650150   0.141   1.284   9.619
  130PPPE  H16R50151   0.188   1.382   9.617
  130PPPE  H16S50152   0.041   1.276   9.570
  130PPPE  H16T50153   0.138   1.270   9.727
  130PPPE   C3350154   0.541   1.406   8.638
  130PPPE   H3X50155   0.636   1.340   8.641
  130PPPE   H3Y50156   0.452   1.356   8.670
  130PPPE   C3450157   0.511   1.527   8.736
  130PPPE   H4X50158   0.438   1.602   8.733
  130PPPE   H4Y50159   0.586   1.595   8.759
  130PPPE   C3550160   0.567   1.517   8.863
  130PPPE   H5X50161   0.642   1.442   8.806
  130PPPE   H5Y50162   0.491   1.446   8.900
  130PPPE   C3650163   0.650   1.623   8.982
  130PPPE   H6X50164   0.586   1.702   8.985
  130PPPE   H6Y50165   0.750   1.671   8.984
  130PPPE   C3750166   0.748   1.578   9.098
  130PPPE   H7X50167   0.815   1.596   9.197
  130PPPE   H7Y50168   0.791   1.473   9.170
  130PPPE   C3850169   0.446   1.572   9.170
  130PPPE   H8X50170   0.389   1.521   9.106
  130PPPE   H8Y50171   0.420   1.664   9.150
  130PPPE   C3950172   0.399   1.549   9.333
  130PPPE   H9X50173   0.445   1.620   9.414
  130PPPE   H9Y50174   0.420   1.447   9.365
  130PPPE  C31050175   0.262   1.551   9.364
  130PPPE  H10X50176   0.265   1.554   9.477
  130PPPE  H10Y50177   0.225   1.465   9.308
  130PPPE  C31150178   0.215   1.670   9.303
  130PPPE  H11X50179   0.230   1.691   9.195
  130PPPE  H11Y50180   0.294   1.728   9.355
  130PPPE  C31250181   0.073   1.682   9.350
  130PPPE  H12X50182   0.039   1.590   9.298
  130PPPE  H12Y50183   0.009   1.756   9.303
  130PPPE  C31350184   0.055   1.687   9.507
  130PPPE  H13X50185   0.097   1.596   9.556
  130PPPE  H13Y50186  -0.053   1.691   9.525
  130PPPE  C31450187   0.074   1.799   9.598
  130PPPE  H14X50188   0.041   1.888   9.546
  130PPPE  H14Y50189   0.177   1.779   9.621
  130PPPE  C31550190   0.018   1.796   9.737
  130PPPE  H15X50191  -0.092   1.782   9.729
  130PPPE  H15Y50192   0.040   1.897   9.779
  130PPPE  C31650193   0.092   1.694   9.822
  130PPPE  H16X50194   0.201   1.710   9.825
  130PPPE  H16Y50195   0.053   1.697   9.923
  130PPPE  H16Z50196   0.082   1.590   9.787
  131PPPE     N50197   1.113   8.121   7.744
  131PPPE   HN150198   1.030   8.065   7.773
  131PPPE   HN250199   1.164   8.063   7.674
  131PPPE   HN350200   1.173   8.138   7.827
  131PPPE   C1250201   1.070   8.248   7.676
  131PPPE  H12A50202   1.015   8.221   7.583
  131PPPE  H12B50203   1.160   8.306   7.647
  131PPPE   C1150204   0.981   8.330   7.769
  131PPPE  H11A50205   0.972   8.434   7.729
  131PPPE  H11B50206   1.024   8.343   7.871
  131PPPE     P50207   0.766   8.266   7.902
  131PPPE   O1350208   0.731   8.406   7.933
  131PPPE   O1450209   0.663   8.164   7.883
  131PPPE   O1150210   0.873   8.219   8.007
  131PPPE   O1250211   0.853   8.268   7.770
  131PPPE    C150212   0.896   8.081   8.030
  131PPPE    HA50213   0.993   8.069   8.081
  131PPPE    HB50214   0.896   8.024   7.935
  131PPPE    C250215   0.795   8.013   8.124
  131PPPE    HS50216   0.693   8.019   8.083
  131PPPE   O2150217   0.803   8.057   8.261
  131PPPE   C2150218   0.728   8.159   8.296
  131PPPE   O2250219   0.654   8.221   8.223
  131PPPE   C2250220   0.743   8.191   8.445
  131PPPE   H2R50221   0.806   8.115   8.493
  131PPPE   H2S50222   0.644   8.196   8.495
  131PPPE    C350223   0.830   7.866   8.116
  131PPPE    HX50224   0.752   7.816   8.174
  131PPPE    HY50225   0.838   7.825   8.013
  131PPPE   O3150226   0.951   7.841   8.176
  131PPPE   C3150227   0.952   7.844   8.307
  131PPPE   O3250228   0.864   7.847   8.390
  131PPPE   C3250229   1.079   7.815   8.334
  131PPPE   H2X50230   1.130   7.889   8.277
  131PPPE   H2Y50231   1.118   7.744   8.256
  131PPPE   C2350232   0.809   8.329   8.459
  131PPPE   H3R50233   0.755   8.405   8.397
  131PPPE   H3S50234   0.914   8.319   8.422
  131PPPE   C2450235   0.807   8.383   8.602
  131PPPE   H4R50236   0.706   8.397   8.643
  131PPPE   H4S50237   0.860   8.481   8.598
  131PPPE   C2550238   0.885   8.297   8.696
  131PPPE   H5R50239   0.982   8.305   8.645
  131PPPE   H5S50240   0.848   8.192   8.708
  131PPPE   C2650241   0.916   8.358   8.827
  131PPPE   H6R50242   0.996   8.434   8.818
  131PPPE   H6S50243   0.952   8.285   8.894
  131PPPE   C2750244   0.793   8.387   8.907
  131PPPE   H7R50245   0.721   8.303   8.895
  131PPPE   H7S50246   0.754   8.479   8.861
  131PPPE   C2850247   0.819   8.411   9.055
  131PPPE   H8R50248   0.718   8.431   9.096
  131PPPE   H8S50249   0.881   8.503   9.064
  131PPPE   C2950250   0.881   8.299   9.133
  131PPPE   H9150251   0.849   8.197   9.105
  131PPPE  C21050252   0.981   8.312   9.221
  131PPPE  H10150253   1.017   8.223   9.272
  131PPPE  C21150254   1.054   8.437   9.262
  131PPPE  H11R50255   0.995   8.529   9.249
  131PPPE  H11S50256   1.140   8.458   9.198
  131PPPE  C21250257   1.101   8.425   9.407
  131PPPE  H12R50258   1.149   8.520   9.432
  131PPPE  H12S50259   1.173   8.342   9.422
  131PPPE  C21350260   0.985   8.409   9.501
  131PPPE  H13R50261   0.935   8.314   9.474
  131PPPE  H13S50262   0.917   8.495   9.482
  131PPPE  C21450263   1.022   8.401   9.649
  131PPPE  H14R50264   1.056   8.497   9.694
  131PPPE  H14S50265   1.103   8.326   9.658
  131PPPE  C21550266   0.900   8.352   9.725
  131PPPE  H15R50267   0.929   8.317   9.823
  131PPPE  H15S50268   0.861   8.261   9.676
  131PPPE  C21650269   0.791   8.458   9.740
  131PPPE  H16R50270   0.703   8.418   9.794
  131PPPE  H16S50271   0.830   8.547   9.796
  131PPPE  H16T50272   0.759   8.491   9.639
  131PPPE   C3350273   1.073   7.770   8.491
  131PPPE   H3X50274   1.168   7.731   8.534
  131PPPE   H3Y50275   1.038   7.673   8.523
  131PPPE   C3450276   1.103   7.866   8.582
  131PPPE   H4X50277   1.006   7.918   8.593
  131PPPE   H4Y50278   1.169   7.899   8.501
  131PPPE   C3550279   1.195   7.829   8.694
  131PPPE   H5X50280   1.174   7.915   8.708
  131PPPE   H5Y50281   1.298   7.863   8.707
  131PPPE   C3650282   1.122   7.743   8.779
  131PPPE   H6X50283   1.154   7.649   8.733
  131PPPE   H6Y50284   1.013   7.752   8.761
  131PPPE   C3750285   1.166   7.776   8.914
  131PPPE   H7X50286   1.270   7.809   8.926
  131PPPE   H7Y50287   1.172   7.675   8.941
  131PPPE   C3850288   1.062   7.861   8.979
  131PPPE   H8X50289   0.960   7.840   8.940
  131PPPE   H8Y50290   1.077   7.965   8.965
  131PPPE   C3950291   1.054   7.849   9.123
  131PPPE   H9X50292   1.149   7.876   9.178
  131PPPE   H9Y50293   1.031   7.741   9.134
  131PPPE  C31050294   0.931   7.916   9.180
  131PPPE  H10X50295   0.842   7.851   9.157
  131PPPE  H10Y50296   0.919   8.018   9.143
  131PPPE  C31150297   0.963   7.894   9.324
  131PPPE  H11X50298   1.065   7.942   9.321
  131PPPE  H11Y50299   0.991   7.795   9.320
  131PPPE  C31250300   0.987   7.977   9.446
  131PPPE  H12X50301   0.932   7.875   9.462
  131PPPE  H12Y50302   0.941   8.060   9.384
  131PPPE  C31350303   0.957   7.990   9.598
  131PPPE  H13X50304   0.874   8.034   9.658
  131PPPE  H13Y50305   0.993   8.090   9.618
  131PPPE  C31450306   0.902   7.861   9.655
  131PPPE  H14X50307   0.998   7.812   9.629
  131PPPE  H14Y50308   0.808   7.828   9.601
  131PPPE  C31550309   0.877   7.850   9.798
  131PPPE  H15X50310   0.798   7.923   9.827
  131PPPE  H15Y50311   0.978   7.877   9.835
  131PPPE  C31650312   0.841   7.706   9.831
  131PPPE  H16X50313   0.827   7.702   9.940
  131PPPE  H16Y50314   0.750   7.672   9.777
  131PPPE  H16Z50315   0.926   7.640   9.801
  132PVCL2   C350316   5.464   2.726   7.681
  132PVCL2 HG3150317   5.441   2.771   7.583
  132PVCL2 HG3250318   5.372   2.667   7.707
  132PVCL2   P350319   5.440   2.835   7.915
  132PVCL2 OP3350320   5.537   2.794   8.018
  132PVCL2 OP3450321   5.318   2.756   7.900
  132PVCL2 OP3150322   5.497   2.833   7.771
  132PVCL2 OP3250323   5.402   2.984   7.936
  132PVCL2  C3150324   5.337   3.059   7.836
  132PVCL2 H31J50325   5.411   3.104   7.766
  132PVCL2 H31K50326   5.262   3.001   7.777
  132PVCL2   C250327   5.584   2.630   7.666
  132PVCL2 HG2250328   5.626   2.612   7.768
  132PVCL2 OG1250329   5.538   2.505   7.613
  132PVCL2 HO1250330   5.443   2.503   7.624
  132PVCL2   C150331   5.697   2.679   7.573
  132PVCL2 HG1150332   5.653   2.680   7.471
  132PVCL2 HG1250333   5.780   2.606   7.571
  132PVCL2   P150334   5.867   2.848   7.698
  132PVCL2 OP1350335   5.965   2.926   7.619
  132PVCL2 OP1450336   5.821   2.910   7.824
  132PVCL2 OP1150337   5.746   2.809   7.602
  132PVCL2 OP1250338   5.936   2.709   7.733
  132PVCL2  C1150339   6.038   2.710   7.836
  132PVCL2 H11J50340   6.027   2.794   7.909
  132PVCL2 H11K50341   6.139   2.720   7.791
  132PVCL2  C1250342   6.023   2.579   7.915
  132PVCL2 H12J50343   6.017   2.495   7.840
  132PVCL2  O1250344   5.900   2.593   7.986
  132PVCL2  CA150345   5.837   2.483   8.015
  132PVCL2  OA150346   5.875   2.369   7.993
  132PVCL2  CA250347   5.705   2.519   8.081
  132PVCL2  H2A50348   5.634   2.436   8.066
  132PVCL2  H2B50349   5.666   2.608   8.028
  132PVCL2  C1350350   6.138   2.549   8.016
  132PVCL2 H13J50351   6.226   2.512   7.963
  132PVCL2 H13K50352   6.102   2.462   8.076
  132PVCL2  O1350353   6.175   2.663   8.096
  132PVCL2  CB150354   6.145   2.648   8.225
  132PVCL2  OB150355   6.106   2.548   8.281
  132PVCL2  CB250356   6.163   2.776   8.298
  132PVCL2  H2D50357   6.271   2.802   8.299
  132PVCL2  H2E50358   6.130   2.760   8.403
  132PVCL2  C3250359   5.261   3.168   7.910
  132PVCL2 H32J50360   5.222   3.241   7.836
  132PVCL2  O3250361   5.342   3.235   8.010
  132PVCL2  CC150362   5.434   3.318   7.960
  132PVCL2  OC150363   5.429   3.358   7.846
  132PVCL2  CC250364   5.526   3.368   8.073
  132PVCL2  H2R50365   5.483   3.462   8.113
  132PVCL2  H2S50366   5.624   3.393   8.027
  132PVCL2  C3350367   5.144   3.097   7.981
  132PVCL2 H33J50368   5.075   3.141   8.046
  132PVCL2 H33K50369   5.063   3.049   7.920
  132PVCL2  O3350370   5.199   3.032   8.089
  132PVCL2  CD150371   5.210   3.098   8.216
  132PVCL2  OD150372   5.149   3.198   8.244
  132PVCL2  CD250373   5.266   3.014   8.334
  132PVCL2  H2X50374   5.346   2.944   8.326
  132PVCL2  H2Y50375   5.242   2.934   8.252
  132PVCL2  CA350376   5.727   2.545   8.231
  132PVCL2  H3A50377   5.813   2.614   8.245
  132PVCL2  H3B50378   5.752   2.448   8.280
  132PVCL2  CA450379   5.605   2.603   8.303
  132PVCL2  H4A50380   5.525   2.525   8.300
  132PVCL2  H4B50381   5.561   2.688   8.247
  132PVCL2  CA550382   5.631   2.643   8.450
  132PVCL2  H5A50383   5.647   2.550   8.509
  132PVCL2  H5B50384   5.540   2.693   8.490
  132PVCL2  CA650385   5.749   2.740   8.478
  132PVCL2  H6A50386   5.736   2.832   8.418
  132PVCL2  H6B50387   5.844   2.696   8.441
  132PVCL2  CA750388   5.753   2.786   8.627
  132PVCL2  H7A50389   5.653   2.829   8.648
  132PVCL2  H7B50390   5.824   2.870   8.645
  132PVCL2  CA850391   5.793   2.678   8.730
  132PVCL2  H8A50392   5.733   2.586   8.714
  132PVCL2  H8B50393   5.770   2.715   8.832
  132PVCL2  CA950394   5.943   2.642   8.718
  132PVCL2  H9A50395   5.997   2.728   8.670
  132PVCL2  H9B50396   5.951   2.557   8.648
  132PVCL2 CA1050397   6.017   2.602   8.848
  132PVCL2 H10A50398   6.037   2.695   8.907
  132PVCL2 H10B50399   6.117   2.562   8.821
  132PVCL2 CA1150400   5.949   2.496   8.930
  132PVCL2 H11A50401   5.945   2.395   8.886
  132PVCL2 CA1250402   5.898   2.519   9.052
  132PVCL2 H12A50403   5.845   2.437   9.103
  132PVCL2 CA1350404   5.905   2.657   9.114
  132PVCL2 H13A50405   5.866   2.724   9.035
  132PVCL2 H13B50406   6.010   2.692   9.128
  132PVCL2 CA1450407   5.821   2.698   9.237
  132PVCL2 H14A50408   5.718   2.657   9.231
  132PVCL2 H14B50409   5.809   2.809   9.236
  132PVCL2 CA1550410   5.887   2.662   9.370
  132PVCL2 H15A50411   5.990   2.706   9.374
  132PVCL2 H15B50412   5.896   2.552   9.380
  132PVCL2 CA1650413   5.810   2.719   9.489
  132PVCL2 H16A50414   5.856   2.681   9.582
  132PVCL2 H16B50415   5.705   2.681   9.486
  132PVCL2 CA1750416   5.814   2.872   9.493
  132PVCL2 H17A50417   5.740   2.911   9.420
  132PVCL2 H17B50418   5.915   2.909   9.464
  132PVCL2 CA1850419   5.782   2.924   9.633
  132PVCL2 H18A50420   5.859   2.890   9.706
  132PVCL2 H18B50421   5.682   2.889   9.665
  132PVCL2 H18C50422   5.780   3.035   9.634
  132PVCL2  CB350423   6.075   2.881   8.232
  132PVCL2  H3D50424   5.986   2.844   8.176
  132PVCL2  H3E50425   6.135   2.918   8.146
  132PVCL2  CB450426   6.025   2.981   8.341
  132PVCL2  H4D50427   5.937   2.941   8.390
  132PVCL2  H4E50428   5.972   3.059   8.283
  132PVCL2  CB550429   6.118   3.025   8.463
  132PVCL2  H5D50430   6.199   3.099   8.439
  132PVCL2  H5E50431   6.184   2.950   8.506
  132PVCL2  CB650432   6.060   3.119   8.563
  132PVCL2  H6D50433   5.968   3.090   8.611
  132PVCL2  H6E50434   5.986   3.176   8.505
  132PVCL2  CB750435   6.182   3.190   8.638
  132PVCL2  H7D50436   6.167   3.282   8.698
  132PVCL2  H7E50437   6.265   3.221   8.571
  132PVCL2  CB850438   6.229   3.110   8.749
  132PVCL2  H8D50439   6.300   3.171   8.810
  132PVCL2  H8E50440   6.280   3.026   8.698
  132PVCL2  CB950441   6.100   3.075   8.821
  132PVCL2  H9D50442   6.037   3.008   8.758
  132PVCL2  H9E50443   6.039   3.166   8.844
  132PVCL2 CB1050444   6.127   2.987   8.937
  132PVCL2 H10D50445   6.180   2.898   8.899
  132PVCL2 H10E50446   6.027   2.955   8.972
  132PVCL2 CB1150447   6.211   3.045   9.049
  132PVCL2 H11D50448   6.158   3.129   9.099
  132PVCL2 H11E50449   6.307   3.085   9.008
  132PVCL2 CB1250450   6.237   2.932   9.150
  132PVCL2 H12D50451   6.231   2.830   9.107
  132PVCL2 H12E50452   6.176   2.950   9.240
  132PVCL2 CB1350453   6.377   2.935   9.198
  132PVCL2 H13D50454   6.377   3.040   9.207
  132PVCL2 H13E50455   6.448   2.940   9.123
  132PVCL2 CB1450456   6.428   2.848   9.314
  132PVCL2 H14D50457   6.535   2.863   9.346
  132PVCL2 H14E50458   6.424   2.742   9.295
  132PVCL2 CB1550459   6.360   2.887   9.436
  132PVCL2 H15D50460   6.251   2.875   9.446
  132PVCL2 H15E50461   6.347   2.988   9.406
  132PVCL2 CB1650462   6.450   2.856   9.556
  132PVCL2 H16D50463   6.428   2.916   9.646
  132PVCL2 H16E50464   6.559   2.869   9.557
  132PVCL2 H16F50465   6.425   2.749   9.567
  132PVCL2  CC350466   5.541   3.275   8.196
  132PVCL2  H3R50467   5.441   3.254   8.239
  132PVCL2  H3S50468   5.599   3.327   8.276
  132PVCL2  CC450469   5.622   3.147   8.171
  132PVCL2  H4R50470   5.729   3.172   8.185
  132PVCL2  H4S50471   5.609   3.115   8.064
  132PVCL2  CC550472   5.586   3.029   8.262
  132PVCL2  H5R50473   5.663   2.949   8.257
  132PVCL2  H5S50474   5.497   2.983   8.215
  132PVCL2  CC650475   5.557   3.057   8.410
  132PVCL2  H6R50476   5.527   2.959   8.455
  132PVCL2  H6S50477   5.470   3.125   8.422
  132PVCL2  CC750478   5.669   3.118   8.494
  132PVCL2  H7R50479   5.711   3.210   8.448
  132PVCL2  H7S50480   5.753   3.046   8.508
  132PVCL2  CC850481   5.611   3.152   8.630
  132PVCL2  H8R50482   5.555   3.072   8.678
  132PVCL2  H8S50483   5.551   3.247   8.623
  132PVCL2  CC950484   5.720   3.169   8.728
  132PVCL2  H9R50485   5.780   3.230   8.670
  132PVCL2  H9S50486   5.796   3.092   8.749
  132PVCL2 CC1050487   5.684   3.253   8.842
  132PVCL2 H10R50488   5.614   3.338   8.822
  132PVCL2 H10S50489   5.789   3.284   8.849
  132PVCL2 CC1150490   5.641   3.177   8.959
  132PVCL2 H11R50491   5.534   3.157   8.951
  132PVCL2 CC1250492   5.713   3.137   9.065
  132PVCL2 H12R50493   5.658   3.078   9.139
  132PVCL2 CC1350494   5.859   3.154   9.101
  132PVCL2 H13R50495   5.913   3.234   9.045
  132PVCL2 H13S50496   5.910   3.060   9.079
  132PVCL2 CC1450497   5.879   3.171   9.253
  132PVCL2 H14R50498   5.986   3.160   9.280
  132PVCL2 H14S50499   5.822   3.091   9.306
  132PVCL2 CC1550500   5.832   3.304   9.303
  132PVCL2 H15R50501   5.733   3.311   9.266
  132PVCL2 H15S50502   5.889   3.391   9.265
  132PVCL2 CC1650503   5.819   3.318   9.450
  132PVCL2 H16R50504   5.750   3.253   9.507
  132PVCL2 H16S50505   5.771   3.419   9.454
  132PVCL2 CC1750506   5.959   3.303   9.500
  132PVCL2 H17R50507   5.993   3.370   9.571
  132PVCL2 H17S50508   6.040   3.340   9.434
  132PVCL2 CC1850509   5.976   3.193   9.600
  132PVCL2 H18R50510   6.054   3.224   9.667
  132PVCL2 H18S50511   6.013   3.104   9.549
  132PVCL2 H18T50512   5.898   3.184   9.678
  132PVCL2  CD350513   5.175   3.006   8.499
  132PVCL2  H3X50514   5.083   3.071   8.485
  132PVCL2  H3Y50515   5.230   3.076   8.559
  132PVCL2  CD450516   5.134   2.849   8.590
  132PVCL2  H4X50517   5.078   2.757   8.543
  132PVCL2  H4Y50518   5.056   2.833   8.669
  132PVCL2  CD550519   5.237   2.744   8.600
  132PVCL2  H5X50520   5.300   2.732   8.511
  132PVCL2  H5Y50521   5.198   2.643   8.632
  132PVCL2  CD650522   5.317   2.828   8.683
  132PVCL2  H6X50523   5.333   2.927   8.634
  132PVCL2  H6Y50524   5.413   2.778   8.680
  132PVCL2  CD750525   5.244   2.841   8.814
  132PVCL2  H7X50526   5.230   2.738   8.852
  132PVCL2  H7Y50527   5.143   2.890   8.815
  132PVCL2  CD850528   5.326   2.933   8.897
  132PVCL2  H8X50529   5.330   3.031   8.844
  132PVCL2  H8Y50530   5.427   2.886   8.900
  132PVCL2  CD950531   5.267   2.950   9.034
  132PVCL2  H9X50532   5.239   2.849   9.069
  132PVCL2  H9Y50533   5.170   3.006   9.030
  132PVCL2 CD1050534   5.367   3.009   9.132
  132PVCL2 H10X50535   5.383   3.119   9.122
  132PVCL2 H10Y50536   5.467   2.962   9.118
  132PVCL2 CD1150537   5.331   2.972   9.274
  132PVCL2 H11X50538   5.399   3.026   9.343
  132PVCL2 H11Y50539   5.345   2.862   9.283
  132PVCL2 CD1250540   5.193   3.011   9.318
  132PVCL2 H12X50541   5.121   2.989   9.239
  132PVCL2 H12Y50542   5.178   3.119   9.332
  132PVCL2 CD1350543   5.159   2.936   9.446
  132PVCL2 H13X50544   5.114   2.839   9.413
  132PVCL2 H13Y50545   5.092   3.006   9.499
  132PVCL2 CD1450546   5.254   2.903   9.558
  132PVCL2 H14X50547   5.333   2.841   9.514
  132PVCL2 H14Y50548   5.196   2.836   9.627
  132PVCL2 CD1550549   5.314   3.026   9.633
  132PVCL2 H15X50550   5.357   3.099   9.563
  132PVCL2 H15Y50551   5.391   2.978   9.697
  132PVCL2 CD1650552   5.229   3.108   9.728
  132PVCL2 H16X50553   5.200   3.031   9.802
  132PVCL2 H16Y50554   5.144   3.153   9.669
  132PVCL2 H16Z50555   5.265   3.190   9.790
  133PVCL2   C350556   3.101   7.088   7.634
  133PVCL2 HG3150557   3.027   7.106   7.715
  133PVCL2 HG3250558   3.060   7.124   7.536
  133PVCL2   P350559   3.020   6.852   7.570
  133PVCL2 OP3350560   3.065   6.712   7.576
  133PVCL2 OP3450561   2.976   6.907   7.439
  133PVCL2 OP3150562   3.132   6.949   7.626
  133PVCL2 OP3250563   2.903   6.878   7.671
  133PVCL2  C3150564   2.907   6.820   7.799
  133PVCL2 H31J50565   2.893   6.714   7.778
  133PVCL2 H31K50566   3.008   6.828   7.848
  133PVCL2   C250567   3.226   7.174   7.663
  133PVCL2 HG2250568   3.302   7.146   7.587
  133PVCL2 OG1250569   3.186   7.310   7.650
  133PVCL2 HO1250570   3.117   7.317   7.717
  133PVCL2   C150571   3.291   7.156   7.802
  133PVCL2 HG1150572   3.206   7.154   7.875
  133PVCL2 HG1250573   3.355   7.242   7.831
  133PVCL2   P150574   3.363   6.939   7.927
  133PVCL2 OP1350575   3.222   6.921   7.968
  133PVCL2 OP1450576   3.446   6.819   7.903
  133PVCL2 OP1150577   3.373   7.038   7.804
  133PVCL2 OP1250578   3.431   7.028   8.039
  133PVCL2  C1150579   3.571   7.058   8.034
  133PVCL2 H11J50580   3.596   7.112   7.940
  133PVCL2 H11K50581   3.629   6.963   8.036
  133PVCL2  C1250582   3.620   7.140   8.157
  133PVCL2 H12J50583   3.726   7.113   8.178
  133PVCL2  O1250584   3.538   7.115   8.274
  133PVCL2  CA150585   3.567   7.003   8.339
  133PVCL2  OA150586   3.668   6.937   8.322
  133PVCL2  CA250587   3.460   6.978   8.447
  133PVCL2  H2A50588   3.361   6.975   8.397
  133PVCL2  H2B50589   3.461   7.063   8.519
  133PVCL2  C1350590   3.617   7.293   8.125
  133PVCL2 H13J50591   3.693   7.314   8.045
  133PVCL2 H13K50592   3.650   7.350   8.214
  133PVCL2  O1350593   3.486   7.336   8.078
  133PVCL2  CB150594   3.395   7.359   8.173
  133PVCL2  OB150595   3.416   7.359   8.293
  133PVCL2  CB250596   3.260   7.393   8.109
  133PVCL2  H2D50597   3.202   7.301   8.093
  133PVCL2  H2E50598   3.278   7.444   8.012
  133PVCL2  C3250599   2.796   6.889   7.886
  133PVCL2 H32J50600   2.698   6.856   7.842
  133PVCL2  O3250601   2.818   7.027   7.894
  133PVCL2  CC150602   2.748   7.100   7.819
  133PVCL2  OC150603   2.654   7.069   7.748
  133PVCL2  CC250604   2.803   7.238   7.843
  133PVCL2  H2R50605   2.877   7.260   7.765
  133PVCL2  H2S50606   2.851   7.241   7.944
  133PVCL2  C3350607   2.785   6.855   8.029
  133PVCL2 H33J50608   2.700   6.878   8.094
  133PVCL2 H33K50609   2.762   6.750   7.999
  133PVCL2  O3350610   2.912   6.883   8.095
  133PVCL2  CD150611   2.924   6.908   8.225
  133PVCL2  OD150612   2.833   6.921   8.304
  133PVCL2  CD250613   3.070   6.926   8.260
  133PVCL2  H2X50614   3.136   6.863   8.196
  133PVCL2  H2Y50615   3.094   6.901   8.366
  133PVCL2  CA350616   3.486   6.846   8.522
  133PVCL2  H3A50617   3.587   6.852   8.569
  133PVCL2  H3B50618   3.485   6.762   8.449
  133PVCL2  CA450619   3.390   6.813   8.636
  133PVCL2  H4A50620   3.413   6.874   8.726
  133PVCL2  H4B50621   3.399   6.705   8.663
  133PVCL2  CA550622   3.243   6.835   8.610
  133PVCL2  H5A50623   3.216   6.775   8.519
  133PVCL2  H5B50624   3.228   6.941   8.583
  133PVCL2  CA650625   3.181   6.792   8.745
  133PVCL2  H6A50626   3.181   6.868   8.823
  133PVCL2  H6B50627   3.215   6.689   8.776
  133PVCL2  CA750628   3.041   6.769   8.745
  133PVCL2  H7A50629   3.067   6.698   8.660
  133PVCL2  H7B50630   2.977   6.860   8.725
  133PVCL2  CA850631   2.970   6.667   8.818
  133PVCL2  H8A50632   3.003   6.567   8.836
  133PVCL2  H8B50633   2.931   6.616   8.730
  133PVCL2  CA950634   2.885   6.742   8.916
  133PVCL2  H9A50635   2.797   6.694   8.949
  133PVCL2  H9B50636   2.849   6.845   8.889
  133PVCL2 CA1050637   2.968   6.746   9.037
  133PVCL2 H10A50638   2.912   6.810   9.106
  133PVCL2 H10B50639   3.059   6.794   8.998
  133PVCL2 CA1150640   3.000   6.611   9.093
  133PVCL2 H11A50641   3.088   6.567   9.047
  133PVCL2 CA1250642   2.928   6.539   9.179
  133PVCL2 H12A50643   2.962   6.443   9.219
  133PVCL2 CA1350644   2.800   6.586   9.232
  133PVCL2 H13A50645   2.731   6.506   9.239
  133PVCL2 H13B50646   2.743   6.656   9.168
  133PVCL2 CA1450647   2.813   6.627   9.371
  133PVCL2 H14A50648   2.874   6.720   9.376
  133PVCL2 H14B50649   2.854   6.550   9.441
  133PVCL2 CA1550650   2.671   6.654   9.403
  133PVCL2 H15A50651   2.675   6.624   9.508
  133PVCL2 H15B50652   2.589   6.589   9.416
  133PVCL2 CA1650653   2.643   6.802   9.353
  133PVCL2 H16A50654   2.622   6.811   9.247
  133PVCL2 H16B50655   2.726   6.869   9.372
  133PVCL2 CA1750656   2.537   6.894   9.400
  133PVCL2 H17A50657   2.516   6.987   9.370
  133PVCL2 H17B50658   2.501   6.909   9.496
  133PVCL2 CA1850659   2.433   6.846   9.414
  133PVCL2 H18A50660   2.377   6.846   9.331
  133PVCL2 H18B50661   2.341   6.878   9.488
  133PVCL2 H18C50662   2.476   6.736   9.443
  133PVCL2  CB350663   3.178   7.486   8.200
  133PVCL2  H3D50664   3.242   7.573   8.226
  133PVCL2  H3E50665   3.158   7.433   8.296
  133PVCL2  CB450666   3.047   7.533   8.133
  133PVCL2  H4D50667   2.984   7.444   8.110
  133PVCL2  H4E50668   3.070   7.587   8.039
  133PVCL2  CB550669   2.967   7.629   8.219
  133PVCL2  H5D50670   2.878   7.665   8.166
  133PVCL2  H5E50671   3.023   7.724   8.227
  133PVCL2  CB650672   2.940   7.556   8.351
  133PVCL2  H6D50673   3.033   7.558   8.408
  133PVCL2  H6E50674   2.903   7.454   8.349
  133PVCL2  CB750675   2.845   7.620   8.442
  133PVCL2  H7D50676   2.743   7.615   8.396
  133PVCL2  H7E50677   2.903   7.714   8.434
  133PVCL2  CB850678   2.837   7.577   8.586
  133PVCL2  H8D50679   2.929   7.604   8.643
  133PVCL2  H8E50680   2.815   7.470   8.582
  133PVCL2  CB950681   2.717   7.620   8.669
  133PVCL2  H9D50682   2.619   7.631   8.623
  133PVCL2  H9E50683   2.685   7.713   8.701
  133PVCL2 CB1050684   2.753   7.665   8.802
  133PVCL2 H10D50685   2.852   7.687   8.844
  133PVCL2 H10E50686   2.785   7.558   8.785
  133PVCL2 CB1150687   2.614   7.717   8.898
  133PVCL2 H11D50688   2.517   7.717   8.847
  133PVCL2 H11E50689   2.609   7.810   8.924
  133PVCL2 CB1250690   2.592   7.721   9.053
  133PVCL2 H12D50691   2.536   7.738   9.126
  133PVCL2 H12E50692   2.714   7.784   9.039
  133PVCL2 CB1350693   2.606   7.575   9.193
  133PVCL2 H13D50694   2.775   7.571   9.204
  133PVCL2 H13E50695   2.553   7.466   9.149
  133PVCL2 CB1450696   2.488   7.478   9.238
  133PVCL2 H14D50697   2.478   7.581   9.281
  133PVCL2 H14E50698   2.522   7.376   9.290
  133PVCL2 CB1550699   2.360   7.469   9.180
  133PVCL2 H15D50700   2.362   7.377   9.115
  133PVCL2 H15E50701   2.338   7.566   9.132
  133PVCL2 CB1650702   2.296   7.456   9.309
  133PVCL2 H16D50703   2.318   7.363   9.360
  133PVCL2 H16E50704   2.207   7.450   9.250
  133PVCL2 H16F50705   2.289   7.541   9.379
  133PVCL2  CC350706   2.690   7.340   7.840
  133PVCL2  H3R50707   2.606   7.320   7.771
  133PVCL2  H3S50708   2.740   7.431   7.797
  133PVCL2  CC450709   2.635   7.364   7.980
  133PVCL2  H4R50710   2.566   7.453   7.962
  133PVCL2  H4S50711   2.723   7.372   8.050
  133PVCL2  CC550712   2.539   7.289   8.059
  133PVCL2  H5R50713   2.578   7.187   8.044
  133PVCL2  H5S50714   2.438   7.306   8.013
  133PVCL2  CC650715   2.539   7.331   8.208
  133PVCL2  H6R50716   2.471   7.416   8.224
  133PVCL2  H6S50717   2.637   7.364   8.250
  133PVCL2  CC750718   2.495   7.204   8.279
  133PVCL2  H7R50719   2.550   7.123   8.228
  133PVCL2  H7S50720   2.387   7.186   8.261
  133PVCL2  CC850721   2.545   7.172   8.418
  133PVCL2  H8R50722   2.498   7.221   8.493
  133PVCL2  H8S50723   2.648   7.203   8.443
  133PVCL2  CC950724   2.478   7.050   8.481
  133PVCL2  H9R50725   2.521   6.964   8.429
  133PVCL2  H9S50726   2.368   7.056   8.463
  133PVCL2 CC1050727   2.498   7.038   8.634
  133PVCL2 H10R50728   2.448   6.944   8.665
  133PVCL2 H10S50729   2.443   7.113   8.692
  133PVCL2 CC1150730   2.647   7.037   8.658
  133PVCL2 H11R50731   2.705   6.983   8.582
  133PVCL2 CC1250732   2.720   7.091   8.754
  133PVCL2 H12R50733   2.828   7.087   8.757
  133PVCL2 CC1350734   2.671   7.168   8.865
  133PVCL2 H13R50735   2.563   7.192   8.849
  133PVCL2 H13S50736   2.746   7.252   8.859
  133PVCL2 CC1450737   2.688   7.124   9.005
  133PVCL2 H14R50738   2.644   7.026   9.013
  133PVCL2 H14S50739   2.616   7.183   9.063
  133PVCL2 CC1550740   2.834   7.131   9.051
  133PVCL2 H15R50741   2.877   7.228   9.027
  133PVCL2 H15S50742   2.900   7.076   8.983
  133PVCL2 CC1650743   2.855   7.081   9.196
  133PVCL2 H16R50744   2.961   7.054   9.201
  133PVCL2 H16S50745   2.795   6.991   9.215
  133PVCL2 CC1750746   2.840   7.176   9.313
  133PVCL2 H17R50747   2.733   7.206   9.328
  133PVCL2 H17S50748   2.907   7.263   9.285
  133PVCL2 CC1850749   2.878   7.141   9.455
  133PVCL2 H18R50750   2.984   7.112   9.455
  133PVCL2 H18S50751   2.808   7.064   9.489
  133PVCL2 H18T50752   2.864   7.228   9.525
  133PVCL2  CD350753   3.090   7.074   8.228
  133PVCL2  H3X50754   3.066   7.095   8.121
  133PVCL2  H3Y50755   3.198   7.096   8.240
  133PVCL2  CD450756   3.011   7.163   8.323
  133PVCL2  H4X50757   2.901   7.145   8.323
  133PVCL2  H4Y50758   3.026   7.267   8.290
  133PVCL2  CD550759   3.060   7.146   8.467
  133PVCL2  H5X50760   3.169   7.119   8.465
  133PVCL2  H5Y50761   3.004   7.062   8.512
  133PVCL2  CD650762   3.034   7.271   8.548
  133PVCL2  H6X50763   2.930   7.307   8.535
  133PVCL2  H6Y50764   3.086   7.352   8.495
  133PVCL2  CD750765   3.060   7.260   8.700
  133PVCL2  H7X50766   2.992   7.188   8.745
  133PVCL2  H7Y50767   3.035   7.360   8.743
  133PVCL2  CD850768   3.198   7.213   8.748
  133PVCL2  H8X50769   3.265   7.294   8.742
  133PVCL2  H8Y50770   3.251   7.136   8.689
  133PVCL2  CD950771   3.210   7.194   8.898
  133PVCL2  H9X50772   3.318   7.175   8.925
  133PVCL2  H9Y50773   3.150   7.108   8.924
  133PVCL2 CD1050774   3.141   7.298   8.984
  133PVCL2 H10X50775   3.055   7.356   8.946
  133PVCL2 H10Y50776   3.176   7.395   8.958
  133PVCL2 CD1150777   3.157   7.267   9.141
  133PVCL2 H11X50778   3.078   7.194   9.155
  133PVCL2 H11Y50779   3.093   7.353   9.176
  133PVCL2 CD1250780   3.315   7.239   9.214
  133PVCL2 H12X50781   3.328   7.141   9.171
  133PVCL2 H12Y50782   3.314   7.222   9.319
  133PVCL2 CD1350783   3.467   7.329   9.221
  133PVCL2 H13X50784   3.479   7.442   9.229
  133PVCL2 H13Y50785   3.522   7.341   9.129
  133PVCL2 CD1450786   3.568   7.336   9.326
  133PVCL2 H14X50787   3.648   7.412   9.297
  133PVCL2 H14Y50788   3.576   7.229   9.311
  133PVCL2 CD1550789   3.508   7.385   9.444
  133PVCL2 H15X50790   3.415   7.328   9.459
  133PVCL2 H15Y50791   3.500   7.497   9.442
  133PVCL2 CD1650792   3.591   7.361   9.556
  133PVCL2 H16X50793   3.584   7.254   9.578
  133PVCL2 H16Y50794   3.550   7.425   9.637
  133PVCL2 H16Z50795   3.686   7.401   9.522
  134PVCL2   C350796   2.427   1.188   7.668
  134PVCL2 HG3150797   2.500   1.199   7.751
  134PVCL2 HG3250798   2.424   1.080   7.642
  134PVCL2   P350799   2.547   1.399   7.564
  134PVCL2 OP3350800   2.478   1.501   7.480
  134PVCL2 OP3450801   2.691   1.368   7.536
  134PVCL2 OP3150802   2.468   1.262   7.554
  134PVCL2 OP3250803   2.529   1.441   7.716
  134PVCL2  C3150804   2.634   1.513   7.782
  134PVCL2 H31J50805   2.705   1.562   7.712
  134PVCL2 H31K50806   2.590   1.593   7.845
  134PVCL2   C250807   2.287   1.240   7.709
  134PVCL2 HG2250808   2.296   1.351   7.709
  134PVCL2 OG1250809   2.189   1.206   7.610
  134PVCL2 HO1250810   2.221   1.123   7.576
  134PVCL2   C150811   2.239   1.192   7.848
  134PVCL2 HG1150812   2.237   1.081   7.854
  134PVCL2 HG1250813   2.133   1.227   7.856
  134PVCL2   P150814   2.266   1.308   8.085
  134PVCL2 OP1350815   2.192   1.206   8.163
  134PVCL2 OP1450816   2.372   1.384   8.155
  134PVCL2 OP1150817   2.323   1.241   7.954
  134PVCL2 OP1250818   2.164   1.411   8.025
  134PVCL2  C1150819   2.213   1.518   7.941
  134PVCL2 H11J50820   2.252   1.479   7.847
  134PVCL2 H11K50821   2.295   1.575   7.992
  134PVCL2  C1250822   2.102   1.623   7.917
  134PVCL2 H12J50823   2.148   1.725   7.911
  134PVCL2  O1250824   2.016   1.608   8.031
  134PVCL2  CA150825   2.081   1.638   8.145
  134PVCL2  OA150826   2.179   1.710   8.154
  134PVCL2  CA250827   1.997   1.596   8.264
  134PVCL2  H2A50828   1.906   1.542   8.232
  134PVCL2  H2B50829   1.938   1.676   8.295
  134PVCL2  C1350830   2.023   1.607   7.783
  134PVCL2 H13J50831   2.103   1.602   7.707
  134PVCL2 H13K50832   1.958   1.695   7.759
  134PVCL2  O1350833   1.952   1.484   7.781
  134PVCL2  CB150834   1.839   1.471   7.718
  134PVCL2  OB150835   1.776   1.556   7.657
  134PVCL2  CB250836   1.789   1.336   7.758
  134PVCL2  H2D50837   1.864   1.256   7.753
  134PVCL2  H2E50838   1.697   1.311   7.700
  134PVCL2  C3250839   2.725   1.421   7.868
  134PVCL2 H32J50840   2.792   1.370   7.795
  134PVCL2  O3250841   2.648   1.322   7.936
  134PVCL2  CC150842   2.718   1.227   7.991
  134PVCL2  OC150843   2.833   1.198   7.963
  134PVCL2  CC250844   2.635   1.165   8.102
  134PVCL2  H2R50845   2.554   1.104   8.055
  134PVCL2  H2S50846   2.588   1.251   8.155
  134PVCL2  C3350847   2.808   1.506   7.969
  134PVCL2 H33J50848   2.876   1.442   8.030
  134PVCL2 H33K50849   2.872   1.570   7.905
  134PVCL2  O3350850   2.721   1.590   8.050
  134PVCL2  CD150851   2.730   1.584   8.182
  134PVCL2  OD150852   2.817   1.526   8.245
  134PVCL2  CD250853   2.620   1.673   8.246
  134PVCL2  H2X50854   2.560   1.717   8.164
  134PVCL2  H2Y50855   2.673   1.754   8.300
  134PVCL2  CA350856   2.037   1.652   8.402
  134PVCL2  H3A50857   2.023   1.763   8.428
  134PVCL2  H3B50858   2.145   1.636   8.390
  134PVCL2  CA450859   1.971   1.561   8.503
  134PVCL2  H4A50860   1.958   1.465   8.448
  134PVCL2  H4B50861   1.869   1.593   8.536
  134PVCL2  CA550862   2.062   1.547   8.623
  134PVCL2  H5A50863   2.071   1.652   8.661
  134PVCL2  H5B50864   2.163   1.517   8.586
  134PVCL2  CA650865   2.006   1.454   8.732
  134PVCL2  H6A50866   2.077   1.372   8.757
  134PVCL2  H6B50867   1.912   1.407   8.696
  134PVCL2  CA750868   1.972   1.529   8.862
  134PVCL2  H7A50869   1.912   1.617   8.833
  134PVCL2  H7B50870   2.066   1.563   8.910
  134PVCL2  CA850871   1.894   1.449   8.967
  134PVCL2  H8A50872   1.788   1.440   8.936
  134PVCL2  H8B50873   1.899   1.503   9.064
  134PVCL2  CA950874   1.950   1.310   8.998
  134PVCL2  H9A50875   1.947   1.248   8.906
  134PVCL2  H9B50876   1.882   1.263   9.073
  134PVCL2 CA1050877   2.091   1.320   9.056
  134PVCL2 H10A50878   2.089   1.386   9.146
  134PVCL2 H10B50879   2.160   1.362   8.980
  134PVCL2 CA1150880   2.128   1.180   9.093
  134PVCL2 H11A50881   2.087   1.106   9.022
  134PVCL2 CA1250882   2.198   1.142   9.202
  134PVCL2 H12A50883   2.201   1.035   9.226
  134PVCL2 CA1350884   2.254   1.234   9.309
  134PVCL2 H13A50885   2.243   1.341   9.280
  134PVCL2 H13B50886   2.364   1.222   9.315
  134PVCL2 CA1450887   2.192   1.220   9.451
  134PVCL2 H14A50888   2.227   1.310   9.506
  134PVCL2 H14B50889   2.231   1.133   9.509
  134PVCL2 CA1550890   2.038   1.214   9.458
  134PVCL2 H15A50891   2.003   1.110   9.437
  134PVCL2 H15B50892   1.993   1.282   9.383
  134PVCL2 CA1650893   1.985   1.259   9.595
  134PVCL2 H16A50894   1.879   1.290   9.584
  134PVCL2 H16B50895   2.044   1.349   9.623
  134PVCL2 CA1750896   1.997   1.147   9.700
  134PVCL2 H17A50897   1.995   1.191   9.802
  134PVCL2 H17B50898   2.094   1.096   9.684
  134PVCL2 CA1850899   1.890   1.039   9.695
  134PVCL2 H18A50900   1.792   1.085   9.720
  134PVCL2 H18B50901   1.911   0.962   9.771
  134PVCL2 H18C50902   1.884   0.987   9.596
  134PVCL2  CB350903   1.763   1.362   7.904
  134PVCL2  H3D50904   1.687   1.297   7.939
  134PVCL2  H3E50905   1.728   1.466   7.918
  134PVCL2  CB450906   1.839   1.304   8.020
  134PVCL2  H4D50907   1.900   1.390   8.050
  134PVCL2  H4E50908   1.894   1.218   7.976
  134PVCL2  CB550909   1.761   1.251   8.145
  134PVCL2  H5D50910   1.683   1.177   8.118
  134PVCL2  H5E50911   1.711   1.332   8.203
  134PVCL2  CB650912   1.867   1.184   8.232
  134PVCL2  H6D50913   1.946   1.259   8.255
  134PVCL2  H6E50914   1.910   1.101   8.173
  134PVCL2  CB750915   1.824   1.122   8.364
  134PVCL2  H7D50916   1.742   1.052   8.337
  134PVCL2  H7E50917   1.791   1.208   8.426
  134PVCL2  CB850918   1.940   1.047   8.431
  134PVCL2  H8D50919   2.029   1.111   8.419
  134PVCL2  H8E50920   1.954   0.947   8.389
  134PVCL2  CB950921   1.930   1.015   8.577
  134PVCL2  H9D50922   1.930   1.120   8.622
  134PVCL2  H9E50923   2.015   0.970   8.630
  134PVCL2 CB1050924   1.814   0.918   8.608
  134PVCL2 H10D50925   1.786   0.816   8.586
  134PVCL2 H10E50926   1.721   0.962   8.566
  134PVCL2 CB1150927   1.807   0.928   8.755
  134PVCL2 H11D50928   1.695   0.925   8.741
  134PVCL2 H11E50929   1.862   1.023   8.775
  134PVCL2 CB1250930   1.863   0.848   8.870
  134PVCL2 H12D50931   1.971   0.864   8.856
  134PVCL2 H12E50932   1.816   0.752   8.844
  134PVCL2 CB1350933   1.839   0.882   9.023
  134PVCL2 H13D50934   1.749   0.830   9.055
  134PVCL2 H13E50935   1.827   0.987   9.057
  134PVCL2 CB1450936   1.943   0.823   9.108
  134PVCL2 H14D50937   2.029   0.887   9.090
  134PVCL2 H14E50938   1.954   0.728   9.054
  134PVCL2 CB1550939   1.919   0.802   9.258
  134PVCL2 H15D50940   1.823   0.748   9.272
  134PVCL2 H15E50941   1.903   0.896   9.314
  134PVCL2 CB1650942   2.040   0.733   9.319
  134PVCL2 H16D50943   2.021   0.702   9.423
  134PVCL2 H16E50944   2.128   0.797   9.304
  134PVCL2 H16F50945   2.073   0.642   9.265
  134PVCL2  CC350946   2.726   1.091   8.202
  134PVCL2  H3R50947   2.805   1.160   8.238
  134PVCL2  H3S50948   2.778   1.008   8.149
  134PVCL2  CC450949   2.656   1.037   8.328
  134PVCL2  H4R50950   2.725   0.962   8.374
  134PVCL2  H4S50951   2.563   0.982   8.298
  134PVCL2  CC550952   2.625   1.148   8.431
  134PVCL2  H5R50953   2.546   1.211   8.383
  134PVCL2  H5S50954   2.714   1.213   8.445
  134PVCL2  CC650955   2.590   1.108   8.576
  134PVCL2  H6R50956   2.599   1.201   8.638
  134PVCL2  H6S50957   2.667   1.038   8.614
  134PVCL2  CC750958   2.451   1.047   8.596
  134PVCL2  H7R50959   2.446   0.952   8.540
  134PVCL2  H7S50960   2.374   1.114   8.551
  134PVCL2  CC850961   2.407   1.033   8.745
  134PVCL2  H8R50962   2.322   0.962   8.746
  134PVCL2  H8S50963   2.371   1.134   8.774
  134PVCL2  CC950964   2.519   0.994   8.845
  134PVCL2  H9R50965   2.599   1.070   8.830
  134PVCL2  H9S50966   2.562   0.895   8.820
  134PVCL2 CC1050967   2.490   0.999   8.997
  134PVCL2 H10R50968   2.457   1.101   9.025
  134PVCL2 H10S50969   2.588   0.983   9.049
  134PVCL2 CC1150970   2.390   0.896   9.045
  134PVCL2 H11R50971   2.290   0.908   9.001
  134PVCL2 CC1250972   2.406   0.800   9.139
  134PVCL2 H12R50973   2.320   0.735   9.156
  134PVCL2 CC1350974   2.528   0.766   9.223
  134PVCL2 H13R50975   2.618   0.754   9.159
  134PVCL2 H13S50976   2.515   0.666   9.271
  134PVCL2 CC1450977   2.568   0.868   9.333
  134PVCL2 H14R50978   2.561   0.972   9.296
  134PVCL2 H14S50979   2.674   0.847   9.361
  134PVCL2 CC1550980   2.486   0.866   9.462
  134PVCL2 H15R50981   2.486   0.762   9.501
  134PVCL2 H15S50982   2.380   0.895   9.443
  134PVCL2 CC1650983   2.547   0.964   9.563
  134PVCL2 H16R50984   2.534   1.070   9.533
  134PVCL2 H16S50985   2.657   0.944   9.564
  134PVCL2 CC1750986   2.495   0.940   9.703
  134PVCL2 H17R50987   2.572   0.963   9.780
  134PVCL2 H17S50988   2.489   0.830   9.696
  134PVCL2 CC1850989   2.355   0.992   9.742
  134PVCL2 H18R50990   2.348   1.102   9.745
  134PVCL2 H18S50991   2.327   0.965   9.845
  134PVCL2 H18T50992   2.276   0.947   9.679
  134PVCL2  CD350993   2.530   1.599   8.349
  134PVCL2  H3X50994   2.515   1.494   8.316
  134PVCL2  H3Y50995   2.428   1.646   8.349
  134PVCL2  CD450996   2.583   1.612   8.494
  134PVCL2  H4X50997   2.605   1.721   8.505
  134PVCL2  H4Y50998   2.680   1.559   8.509
  134PVCL2  CD550999   2.487   1.579   8.609
  134PVCL2  H5X51000   2.481   1.469   8.624
  134PVCL2  H5Y51001   2.384   1.614   8.587
  134PVCL2  CD651002   2.528   1.655   8.737
  134PVCL2  H6X51003   2.445   1.649   8.811
  134PVCL2  H6Y51004   2.542   1.763   8.712
  134PVCL2  CD751005   2.654   1.605   8.810
  134PVCL2  H7X51006   2.666   1.670   8.900
  134PVCL2  H7Y51007   2.744   1.617   8.746
  134PVCL2  CD851008   2.639   1.460   8.855
  134PVCL2  H8X51009   2.662   1.389   8.772
  134PVCL2  H8Y51010   2.535   1.439   8.888
  134PVCL2  CD951011   2.725   1.425   8.976
  134PVCL2  H9X51012   2.670   1.457   9.067
  134PVCL2  H9Y51013   2.825   1.473   8.974
  134PVCL2 CD1051014   2.743   1.276   8.978
  134PVCL2 H10X51015   2.807   1.251   8.889
  134PVCL2 H10Y51016   2.649   1.219   8.966
  134PVCL2 CD1151017   2.810   1.232   9.105
  134PVCL2 H11X51018   2.909   1.283   9.116
  134PVCL2 H11Y51019   2.813   1.123   9.079
  134PVCL2 CD1251020   2.746   1.189   9.235
  134PVCL2 H12X51021   2.789   1.091   9.269
  134PVCL2 H12Y51022   2.641   1.170   9.208
  134PVCL2 CD1351023   2.771   1.292   9.343
  134PVCL2 H13X51024   2.706   1.265   9.428
  134PVCL2 H13Y51025   2.732   1.386   9.300
  134PVCL2 CD1451026   2.918   1.316   9.384
  134PVCL2 H14X51027   2.959   1.395   9.316
  134PVCL2 H14Y51028   2.989   1.231   9.373
  134PVCL2 CD1551029   2.933   1.363   9.529
  134PVCL2 H15X51030   2.850   1.426   9.557
  134PVCL2 H15Y51031   3.019   1.432   9.536
  134PVCL2 CD1651032   2.943   1.250   9.632
  134PVCL2 H16X51033   2.936   1.290   9.735
  134PVCL2 H16Y51034   3.040   1.199   9.624
  134PVCL2 H16Z51035   2.856   1.180   9.621
  135PVCL2   C351036   1.898   8.676   7.997
  135PVCL2 HG3151037   1.943   8.717   8.090
  135PVCL2 HG3251038   1.788   8.679   8.010
  135PVCL2   P351039   2.011   8.449   8.068
  135PVCL2 OP3351040   1.916   8.399   8.169
  135PVCL2 OP3451041   2.131   8.524   8.113
  135PVCL2 OP3151042   1.933   8.541   7.971
  135PVCL2 OP3251043   2.058   8.333   7.971
  135PVCL2  C3151044   2.097   8.353   7.834
  135PVCL2 H31J51045   2.006   8.343   7.769
  135PVCL2 H31K51046   2.135   8.455   7.815
  135PVCL2   C251047   1.941   8.763   7.877
  135PVCL2 HG2251048   1.876   8.853   7.873
  135PVCL2 OG1251049   2.078   8.801   7.893
  135PVCL2 HO1251050   2.085   8.897   7.890
  135PVCL2   C151051   1.925   8.689   7.742
  135PVCL2 HG1151052   1.996   8.603   7.742
  135PVCL2 HG1251053   1.950   8.762   7.662
  135PVCL2   P151054   1.747   8.519   7.643
  135PVCL2 OP1351055   1.654   8.567   7.538
  135PVCL2 OP1451056   1.858   8.435   7.599
  135PVCL2 OP1151057   1.791   8.647   7.725
  135PVCL2 OP1251058   1.667   8.442   7.755
  135PVCL2  C1151059   1.535   8.401   7.728
  135PVCL2 H11J51060   1.533   8.342   7.634
  135PVCL2 H11K51061   1.471   8.491   7.710
  135PVCL2  C1251062   1.478   8.313   7.844
  135PVCL2 H12J51063   1.368   8.321   7.844
  135PVCL2  O1251064   1.524   8.346   7.976
  135PVCL2  CA151065   1.501   8.472   8.009
  135PVCL2  OA151066   1.426   8.549   7.950
  135PVCL2  CA251067   1.574   8.504   8.140
  135PVCL2  H2A51068   1.543   8.604   8.177
  135PVCL2  H2B51069   1.681   8.509   8.112
  135PVCL2  C1351070   1.513   8.164   7.815
  135PVCL2 H13J51071   1.623   8.146   7.807
  135PVCL2 H13K51072   1.470   8.149   7.714
  135PVCL2  O1351073   1.446   8.075   7.906
  135PVCL2  CB151074   1.516   8.050   8.020
  135PVCL2  OB151075   1.628   8.088   8.044
  135PVCL2  CB251076   1.434   7.972   8.118
  135PVCL2  H2D51077   1.478   7.870   8.120
  135PVCL2  H2E51078   1.328   7.973   8.084
  135PVCL2  C3251079   2.197   8.240   7.781
  135PVCL2 H32J51080   2.174   8.210   7.677
  135PVCL2  O3251081   2.200   8.122   7.872
  135PVCL2  CC151082   2.071   8.076   7.870
  135PVCL2  OC151083   1.990   8.116   7.790
  135PVCL2  CC251084   2.009   7.977   7.962
  135PVCL2  H2R51085   2.055   7.932   8.038
  135PVCL2  H2S51086   1.989   7.877   7.922
  135PVCL2  C3351087   2.340   8.297   7.760
  135PVCL2 H33J51088   2.391   8.257   7.674
  135PVCL2 H33K51089   2.334   8.412   7.751
  135PVCL2  O3351090   2.426   8.252   7.860
  135PVCL2  CD151091   2.495   8.139   7.915
  135PVCL2  OD151092   2.505   8.044   7.843
  135PVCL2  CD251093   2.568   8.154   8.083
  135PVCL2  H2X51094   2.656   8.206   8.092
  135PVCL2  H2Y51095   2.651   8.092   8.099
  135PVCL2  CA351096   1.557   8.399   8.254
  135PVCL2  H3A51097   1.599   8.302   8.220
  135PVCL2  H3B51098   1.449   8.384   8.278
  135PVCL2  CA451099   1.629   8.447   8.382
  135PVCL2  H4A51100   1.657   8.553   8.364
  135PVCL2  H4B51101   1.723   8.388   8.393
  135PVCL2  CA551102   1.544   8.434   8.510
  135PVCL2  H5A51103   1.485   8.342   8.496
  135PVCL2  H5B51104   1.474   8.520   8.518
  135PVCL2  CA651105   1.623   8.422   8.642
  135PVCL2  H6A51106   1.693   8.337   8.634
  135PVCL2  H6B51107   1.550   8.397   8.723
  135PVCL2  CA751108   1.702   8.547   8.689
  135PVCL2  H7A51109   1.785   8.565   8.619
  135PVCL2  H7B51110   1.747   8.522   8.788
  135PVCL2  CA851111   1.617   8.673   8.705
  135PVCL2  H8A51112   1.587   8.701   8.602
  135PVCL2  H8B51113   1.674   8.759   8.746
  135PVCL2  CA951114   1.494   8.648   8.791
  135PVCL2  H9A51115   1.429   8.574   8.739
  135PVCL2  H9B51116   1.434   8.737   8.798
  135PVCL2 CA1051117   1.520   8.609   8.937
  135PVCL2 H10A51118   1.593   8.525   8.937
  135PVCL2 H10B51119   1.426   8.569   8.978
  135PVCL2 CA1151120   1.563   8.723   9.025
  135PVCL2 H11A51121   1.487   8.798   9.051
  135PVCL2 CA1251122   1.685   8.746   9.069
  135PVCL2 H12A51123   1.694   8.824   9.145
  135PVCL2 CA1351124   1.808   8.664   9.041
  135PVCL2 H13A51125   1.878   8.711   8.967
  135PVCL2 H13B51126   1.782   8.566   9.004
  135PVCL2 CA1451127   1.885   8.639   9.168
  135PVCL2 H14A51128   1.931   8.733   9.172
  135PVCL2 H14B51129   1.971   8.570   9.161
  135PVCL2 CA1551130   1.817   8.632   9.301
  135PVCL2 H15A51131   1.726   8.569   9.295
  135PVCL2 H15B51132   1.776   8.728   9.337
  135PVCL2 CA1651133   1.921   8.575   9.396
  135PVCL2 H16A51134   1.997   8.640   9.445
  135PVCL2 H16B51135   1.967   8.483   9.357
  135PVCL2 CA1751136   1.845   8.547   9.511
  135PVCL2 H17A51137   1.903   8.483   9.581
  135PVCL2 H17B51138   1.772   8.468   9.475
  135PVCL2 CA1851139   1.794   8.692   9.563
  135PVCL2 H18A51140   1.687   8.701   9.527
  135PVCL2 H18B51141   1.854   8.752   9.632
  135PVCL2 H18C51142   1.759   8.707   9.670
  135PVCL2  CB351143   1.443   8.033   8.257
  135PVCL2  H3D51144   1.393   8.131   8.258
  135PVCL2  H3E51145   1.548   8.029   8.293
  135PVCL2  CB451146   1.365   7.964   8.360
  135PVCL2  H4D51147   1.411   7.869   8.376
  135PVCL2  H4E51148   1.288   7.924   8.307
  135PVCL2  CB551149   1.319   8.056   8.475
  135PVCL2  H5D51150   1.388   8.137   8.496
  135PVCL2  H5E51151   1.335   7.989   8.561
  135PVCL2  CB651152   1.173   8.111   8.484
  135PVCL2  H6D51153   1.083   8.049   8.457
  135PVCL2  H6E51154   1.133   8.162   8.397
  135PVCL2  CB751155   1.142   8.157   8.630
  135PVCL2  H7D51156   1.033   8.131   8.628
  135PVCL2  H7E51157   1.186   8.256   8.632
  135PVCL2  CB851158   1.179   8.105   8.771
  135PVCL2  H8D51159   1.280   8.059   8.771
  135PVCL2  H8E51160   1.087   8.035   8.787
  135PVCL2  CB951161   1.169   8.168   8.901
  135PVCL2  H9D51162   1.196   8.105   8.988
  135PVCL2  H9E51163   1.063   8.161   8.912
  135PVCL2 CB1051164   1.246   8.293   8.900
  135PVCL2 H10D51165   1.183   8.371   8.852
  135PVCL2 H10E51166   1.340   8.280   8.843
  135PVCL2 CB1151167   1.269   8.331   9.041
  135PVCL2 H11D51168   1.177   8.302   9.092
  135PVCL2 H11E51169   1.280   8.441   9.043
  135PVCL2 CB1251170   1.383   8.264   9.114
  135PVCL2 H12D51171   1.473   8.300   9.060
  135PVCL2 H12E51172   1.379   8.153   9.110
  135PVCL2 CB1351173   1.391   8.312   9.259
  135PVCL2 H13D51174   1.485   8.273   9.303
  135PVCL2 H13E51175   1.308   8.266   9.314
  135PVCL2 CB1451176   1.400   8.466   9.268
  135PVCL2 H14D51177   1.304   8.518   9.260
  135PVCL2 H14E51178   1.460   8.499   9.180
  135PVCL2 CB1551179   1.462   8.520   9.396
  135PVCL2 H15D51180   1.468   8.631   9.392
  135PVCL2 H15E51181   1.564   8.477   9.400
  135PVCL2 CB1651182   1.391   8.480   9.524
  135PVCL2 H16D51183   1.294   8.525   9.543
  135PVCL2 H16E51184   1.445   8.522   9.608
  135PVCL2 H16F51185   1.390   8.369   9.531
  135PVCL2  CC351186   1.955   8.054   8.083
  135PVCL2  H3R51187   1.865   8.094   8.039
  135PVCL2  H3S51188   2.027   8.136   8.113
  135PVCL2  CC451189   1.930   7.978   8.213
  135PVCL2  H4R51190   2.025   7.982   8.272
  135PVCL2  H4S51191   1.891   7.874   8.198
  135PVCL2  CC551192   1.847   8.053   8.310
  135PVCL2  H5R51193   1.755   8.074   8.254
  135PVCL2  H5S51194   1.905   8.147   8.330
  135PVCL2  CC651195   1.813   7.974   8.437
  135PVCL2  H6R51196   1.898   7.910   8.471
  135PVCL2  H6S51197   1.729   7.908   8.406
  135PVCL2  CC751198   1.762   8.068   8.546
  135PVCL2  H7R51199   1.702   8.149   8.499
  135PVCL2  H7S51200   1.843   8.111   8.608
  135PVCL2  CC851201   1.667   8.003   8.640
  135PVCL2  H8R51202   1.592   7.946   8.578
  135PVCL2  H8S51203   1.606   8.072   8.702
  135PVCL2  CC951204   1.745   7.923   8.743
  135PVCL2  H9R51205   1.791   7.969   8.831
  135PVCL2  H9S51206   1.813   7.844   8.698
  135PVCL2 CC1051207   1.642   7.862   8.827
  135PVCL2 H10R51208   1.698   7.780   8.875
  135PVCL2 H10S51209   1.593   7.843   8.731
  135PVCL2 CC1151210   1.512   7.891   8.889
  135PVCL2 H11R51211   1.424   7.866   8.830
  135PVCL2 CC1251212   1.496   7.909   9.015
  135PVCL2 H12R51213   1.396   7.923   9.053
  135PVCL2 CC1351214   1.610   7.904   9.108
  135PVCL2 H13R51215   1.588   7.982   9.179
  135PVCL2 H13S51216   1.711   7.913   9.062
  135PVCL2 CC1451217   1.615   7.794   9.199
  135PVCL2 H14R51218   1.531   7.790   9.272
  135PVCL2 H14S51219   1.716   7.785   9.248
  135PVCL2 CC1551220   1.601   7.676   9.119
  135PVCL2 H15R51221   1.702   7.640   9.080
  135PVCL2 H15S51222   1.507   7.661   9.064
  135PVCL2 CC1651223   1.567   7.580   9.208
  135PVCL2 H16R51224   1.640   7.616   9.279
  135PVCL2 H16S51225   1.596   7.502   9.139
  135PVCL2 CC1751226   1.478   7.571   9.320
  135PVCL2 H17R51227   1.383   7.541   9.283
  135PVCL2 H17S51228   1.487   7.647   9.400
  135PVCL2 CC1851229   1.483   7.469   9.409
  135PVCL2 H18R51230   1.427   7.469   9.494
  135PVCL2 H18S51231   1.569   7.409   9.442
  135PVCL2 H18T51232   1.467   7.385   9.357
  135PVCL2  CD351233   2.531   8.221   8.245
  135PVCL2  H3X51234   2.461   8.166   8.187
  135PVCL2  H3Y51235   2.499   8.333   8.246
  135PVCL2  CD451236   2.465   8.160   8.400
  135PVCL2  H4X51237   2.534   8.256   8.399
  135PVCL2  H4Y51238   2.543   8.113   8.442
  135PVCL2  CD551239   2.252   8.175   8.485
  135PVCL2  H5X51240   2.297   8.117   8.554
  135PVCL2  H5Y51241   2.177   8.103   8.447
  135PVCL2  CD651242   2.135   8.340   8.440
  135PVCL2  H6X51243   2.093   8.362   8.336
  135PVCL2  H6Y51244   2.194   8.437   8.392
  135PVCL2  CD751245   2.095   8.436   8.539
  135PVCL2  H7X51246   2.067   8.537   8.498
  135PVCL2  H7Y51247   2.175   8.462   8.610
  135PVCL2  CD851248   2.005   8.326   8.580
  135PVCL2  H8X51249   2.035   8.218   8.573
  135PVCL2  H8Y51250   1.925   8.329   8.504
  135PVCL2  CD951251   1.978   8.350   8.722
  135PVCL2  H9X51252   1.871   8.330   8.730
  135PVCL2  H9Y51253   2.002   8.457   8.736
  135PVCL2 CD1051254   2.044   8.259   8.825
  135PVCL2 H10X51255   2.150   8.263   8.835
  135PVCL2 H10Y51256   2.027   8.151   8.804
  135PVCL2 CD1151257   2.008   8.299   8.967
  135PVCL2 H11X51258   2.031   8.406   8.986
  135PVCL2 H11Y51259   2.081   8.244   9.031
  135PVCL2 CD1251260   1.866   8.250   8.993
  135PVCL2 H12X51261   1.860   8.145   8.956
  135PVCL2 H12Y51262   1.790   8.307   8.933
  135PVCL2 CD1351263   1.824   8.252   9.139
  135PVCL2 H13X51264   1.714   8.239   9.143
  135PVCL2 H13Y51265   1.851   8.352   9.181
  135PVCL2 CD1451266   1.896   8.146   9.222
  135PVCL2 H14X51267   2.004   8.150   9.199
  135PVCL2 H14Y51268   1.855   8.044   9.202
  135PVCL2 CD1551269   1.887   8.172   9.371
  135PVCL2 H15X51270   1.906   8.280   9.393
  135PVCL2 H15Y51271   1.964   8.109   9.420
  135PVCL2 CD1651272   1.751   8.138   9.424
  135PVCL2 H16X51273   1.673   8.199   9.375
  135PVCL2 H16Y51274   1.740   8.153   9.532
  135PVCL2 H16Z51275   1.732   8.031   9.404
  136PVCL2   C351276   0.201   7.656   7.796
  136PVCL2 HG3151277   0.179   7.611   7.896
  136PVCL2 HG3251278   0.306   7.634   7.768
  136PVCL2   P351279   0.243   7.901   7.703
  136PVCL2 OP3351280   0.137   7.999   7.700
  136PVCL2 OP3451281   0.275   7.835   7.575
  136PVCL2 OP3151282   0.192   7.795   7.809
  136PVCL2 OP3251283   0.366   7.968   7.767
  136PVCL2  C3151284   0.349   8.055   7.879
  136PVCL2 H31J51285   0.394   8.153   7.855
  136PVCL2 H31K51286   0.244   8.072   7.914
  136PVCL2   C251287   0.097   7.598   7.696
  136PVCL2 HG2251288   0.102   7.659   7.604
  136PVCL2 OG1251289   0.133   7.465   7.661
  136PVCL2 HO1251290   0.165   7.426   7.741
  136PVCL2   C151291  -0.049   7.585   7.748
  136PVCL2 HG1151292  -0.047   7.519   7.837
  136PVCL2 HG1251293  -0.106   7.534   7.668
  136PVCL2   P151294  -0.165   7.742   7.920
  136PVCL2 OP1351295  -0.068   7.689   8.018
  136PVCL2 OP1451296  -0.209   7.883   7.928
  136PVCL2 OP1151297  -0.119   7.705   7.775
  136PVCL2 OP1251298  -0.295   7.652   7.929
  136PVCL2  C1151299  -0.402   7.688   7.841
  136PVCL2 H11J51300  -0.356   7.703   7.742
  136PVCL2 H11K51301  -0.441   7.790   7.862
  136PVCL2  C1251302  -0.527   7.592   7.854
  136PVCL2 H12J51303  -0.605   7.630   7.783
  136PVCL2  O1251304  -0.575   7.598   7.986
  136PVCL2  CA151305  -0.647   7.700   8.016
  136PVCL2  OA151306  -0.679   7.794   7.945
  136PVCL2  CA251307  -0.673   7.684   8.167
  136PVCL2  H2A51308  -0.647   7.587   8.209
  136PVCL2  H2B51309  -0.779   7.714   8.189
  136PVCL2  C1351310  -0.512   7.440   7.825
  136PVCL2 H13J51311  -0.521   7.409   7.720
  136PVCL2 H13K51312  -0.599   7.389   7.869
  136PVCL2  O1351313  -0.400   7.381   7.888
  136PVCL2  CB151314  -0.299   7.359   7.809
  136PVCL2  OB151315  -0.291   7.387   7.690
  136PVCL2  CB251316  -0.198   7.281   7.888
  136PVCL2  H2D51317  -0.096   7.274   7.847
  136PVCL2  H2E51318  -0.247   7.186   7.880
  136PVCL2  C3251319   0.431   7.994   7.992
  136PVCL2 H32J51320   0.535   7.983   7.950
  136PVCL2  O3251321   0.372   7.871   8.031
  136PVCL2  CC151322   0.452   7.780   8.070
  136PVCL2  OC151323   0.573   7.779   8.063
  136PVCL2  CC251324   0.369   7.662   8.116
  136PVCL2  H2R51325   0.373   7.592   8.033
  136PVCL2  H2S51326   0.265   7.694   8.133
  136PVCL2  C3351327   0.436   8.087   8.113
  136PVCL2 H33J51328   0.493   8.037   8.196
  136PVCL2 H33K51329   0.494   8.173   8.074
  136PVCL2  O3351330   0.307   8.134   8.150
  136PVCL2  CD151331   0.261   8.106   8.267
  136PVCL2  OD151332   0.308   8.035   8.354
  136PVCL2  CD251333   0.147   8.199   8.292
  136PVCL2  H2X51334   0.067   8.176   8.217
  136PVCL2  H2Y51335   0.184   8.303   8.283
  136PVCL2  CA351336  -0.576   7.768   8.245
  136PVCL2  H3A51337  -0.596   7.781   8.353
  136PVCL2  H3B51338  -0.642   7.843   8.207
  136PVCL2  CA451339  -0.424   7.774   8.208
  136PVCL2  H4A51340  -0.403   7.802   8.102
  136PVCL2  H4B51341  -0.389   7.671   8.225
  136PVCL2  CA551342  -0.334   7.862   8.299
  136PVCL2  H5A51343  -0.376   7.858   8.401
  136PVCL2  H5B51344  -0.340   7.969   8.265
  136PVCL2  CA651345  -0.184   7.824   8.311
  136PVCL2  H6A51346  -0.141   7.899   8.380
  136PVCL2  H6B51347  -0.129   7.837   8.215
  136PVCL2  CA751348  -0.150   7.682   8.366
  136PVCL2  H7A51349  -0.040   7.680   8.386
  136PVCL2  H7B51350  -0.164   7.607   8.284
  136PVCL2  CA851351  -0.224   7.635   8.493
  136PVCL2  H8A51352  -0.197   7.530   8.517
  136PVCL2  H8B51353  -0.334   7.638   8.475
  136PVCL2  CA951354  -0.192   7.715   8.621
  136PVCL2  H9A51355  -0.247   7.811   8.615
  136PVCL2  H9B51356  -0.083   7.736   8.618
  136PVCL2 CA1051357  -0.223   7.638   8.753
  136PVCL2 H10A51358  -0.186   7.534   8.738
  136PVCL2 H10B51359  -0.333   7.626   8.768
  136PVCL2 CA1151360  -0.158   7.695   8.878
  136PVCL2 H11A51361  -0.183   7.798   8.904
  136PVCL2 CA1251362  -0.067   7.631   8.955
  136PVCL2 H12A51363  -0.027   7.682   9.044
  136PVCL2 CA1351364  -0.015   7.491   8.933
  136PVCL2 H13A51365   0.085   7.476   8.980
  136PVCL2 H13B51366  -0.001   7.473   8.824
  136PVCL2 CA1451367  -0.109   7.382   8.984
  136PVCL2 H14A51368  -0.080   7.291   8.927
  136PVCL2 H14B51369  -0.214   7.403   8.955
  136PVCL2 CA1551370  -0.089   7.346   9.133
  136PVCL2 H15A51371  -0.020   7.259   9.135
  136PVCL2 H15B51372  -0.185   7.311   9.178
  136PVCL2 CA1651373  -0.035   7.459   9.221
  136PVCL2 H16A51374  -0.115   7.537   9.223
  136PVCL2 H16B51375   0.056   7.505   9.178
  136PVCL2 CA1751376  -0.006   7.419   9.366
  136PVCL2 H17A51377   0.084   7.354   9.375
  136PVCL2 H17B51378  -0.095   7.359   9.397
  136PVCL2 CA1851379   0.008   7.537   9.461
  136PVCL2 H18A51380  -0.059   7.621   9.433
  136PVCL2 H18B51381   0.113   7.573   9.467
  136PVCL2 H18C51382  -0.022   7.504   9.563
  136PVCL2  CB351383  -0.212   7.301   8.037
  136PVCL2  H3D51384  -0.307   7.251   8.071
  136PVCL2  H3E51385  -0.206   7.410   8.053
  136PVCL2  CB451386  -0.105   7.244   8.123
  136PVCL2  H4D51387  -0.007   7.260   8.072
  136PVCL2  H4E51388  -0.143   7.138   8.140
  136PVCL2  CB551389  -0.103   7.298   8.260
  136PVCL2  H5D51390  -0.195   7.251   8.301
  136PVCL2  H5E51391  -0.107   7.405   8.257
  136PVCL2  CB651392   0.021   7.275   8.345
  136PVCL2  H6D51393   0.121   7.274   8.299
  136PVCL2  H6E51394  -0.009   7.176   8.348
  136PVCL2  CB751395   0.006   7.307   8.494
  136PVCL2  H7D51396  -0.098   7.278   8.517
  136PVCL2  H7E51397  -0.009   7.413   8.510
  136PVCL2  CB851398   0.109   7.230   8.586
  136PVCL2  H8D51399   0.139   7.125   8.561
  136PVCL2  H8E51400   0.076   7.216   8.691
  136PVCL2  CB951401   0.236   7.297   8.559
  136PVCL2  H9D51402   0.206   7.403   8.566
  136PVCL2  H9E51403   0.267   7.270   8.455
  136PVCL2 CB1051404   0.346   7.263   8.653
  136PVCL2 H10D51405   0.432   7.326   8.622
  136PVCL2 H10E51406   0.372   7.155   8.650
  136PVCL2 CB1151407   0.308   7.295   8.795
  136PVCL2 H11D51408   0.230   7.227   8.837
  136PVCL2 H11E51409   0.278   7.402   8.807
  136PVCL2 CB1251410   0.428   7.263   8.874
  136PVCL2 H12D51411   0.518   7.319   8.837
  136PVCL2 H12E51412   0.451   7.155   8.876
  136PVCL2 CB1351413   0.394   7.295   9.012
  136PVCL2 H13D51414   0.298   7.330   9.053
  136PVCL2 H13E51415   0.425   7.396   8.995
  136PVCL2 CB1451416   0.459   7.195   9.104
  136PVCL2 H14D51417   0.571   7.182   9.090
  136PVCL2 H14E51418   0.402   7.101   9.101
  136PVCL2 CB1551419   0.420   7.223   9.243
  136PVCL2 H15D51420   0.338   7.294   9.267
  136PVCL2 H15E51421   0.525   7.257   9.238
  136PVCL2 CB1651422   0.441   7.154   9.365
  136PVCL2 H16D51423   0.412   7.059   9.335
  136PVCL2 H16E51424   0.387   7.177   9.451
  136PVCL2 H16F51425   0.538   7.170   9.422
  136PVCL2  CC351426   0.430   7.587   8.234
  136PVCL2  H3R51427   0.536   7.583   8.205
  136PVCL2  H3S51428   0.396   7.481   8.235
  136PVCL2  CC451429   0.406   7.650   8.373
  136PVCL2  H4R51430   0.429   7.759   8.377
  136PVCL2  H4S51431   0.473   7.597   8.444
  136PVCL2  CC551432   0.262   7.632   8.423
  136PVCL2  H5R51433   0.234   7.528   8.398
  136PVCL2  H5S51434   0.198   7.699   8.362
  136PVCL2  CC651435   0.241   7.661   8.575
  136PVCL2  H6R51436   0.310   7.599   8.636
  136PVCL2  H6S51437   0.139   7.627   8.602
  136PVCL2  CC751438   0.249   7.809   8.620
  136PVCL2  H7R51439   0.163   7.866   8.577
  136PVCL2  H7S51440   0.340   7.860   8.582
  136PVCL2  CC851441   0.239   7.828   8.772
  136PVCL2  H8R51442   0.158   7.764   8.813
  136PVCL2  H8S51443   0.213   7.934   8.794
  136PVCL2  CC951444   0.368   7.796   8.846
  136PVCL2  H9R51445   0.454   7.838   8.789
  136PVCL2  H9S51446   0.377   7.685   8.851
  136PVCL2 CC1051447   0.384   7.861   8.984
  136PVCL2 H10R51448   0.407   7.967   8.964
  136PVCL2 H10S51449   0.476   7.818   9.032
  136PVCL2 CC1151450   0.263   7.851   9.074
  136PVCL2 H11R51451   0.180   7.914   9.048
  136PVCL2 CC1251452   0.248   7.773   9.180
  136PVCL2 H12R51453   0.160   7.769   9.244
  136PVCL2 CC1351454   0.350   7.682   9.225
  136PVCL2 H13R51455   0.415   7.655   9.140
  136PVCL2 H13S51456   0.291   7.595   9.263
  136PVCL2 CC1451457   0.437   7.729   9.339
  136PVCL2 H14R51458   0.484   7.650   9.393
  136PVCL2 H14S51459   0.371   7.771   9.413
  136PVCL2 CC1551460   0.556   7.810   9.298
  136PVCL2 H15R51461   0.509   7.889   9.234
  136PVCL2 H15S51462   0.623   7.748   9.234
  136PVCL2 CC1651463   0.628   7.869   9.420
  136PVCL2 H16R51464   0.689   7.790   9.460
  136PVCL2 H16S51465   0.593   7.885   9.527
  136PVCL2 CC1751466   0.621   8.020   9.397
  136PVCL2 H17R51467   0.666   8.054   9.302
  136PVCL2 H17S51468   0.509   7.994   9.406
  136PVCL2 CC1851469   0.708   8.091   9.496
  136PVCL2 H18R51470   0.725   8.014   9.568
  136PVCL2 H18S51471   0.798   8.158   9.481
  136PVCL2 H18T51472   0.781   8.030   9.452
  136PVCL2  CD351473   0.093   8.180   8.433
  136PVCL2  H3X51474   0.155   8.235   8.508
  136PVCL2  H3Y51475   0.080   8.073   8.458
  136PVCL2  CD451476  -0.046   8.226   8.441
  136PVCL2  H4X51477  -0.108   8.175   8.365
  136PVCL2  H4Y51478  -0.050   8.340   8.444
  136PVCL2  CD551479  -0.117   8.201   8.566
  136PVCL2  H5X51480  -0.207   8.261   8.556
  136PVCL2  H5Y51481  -0.032   8.242   8.623
  136PVCL2  CD651482  -0.162   8.068   8.620
  136PVCL2  H6X51483  -0.070   8.009   8.626
  136PVCL2  H6Y51484  -0.243   8.033   8.551
  136PVCL2  CD751485  -0.239   8.056   8.751
  136PVCL2  H7X51486  -0.257   7.952   8.782
  136PVCL2  H7Y51487  -0.337   8.114   8.747
  136PVCL2  CD851488  -0.175   8.088   8.880
  136PVCL2  H8X51489  -0.253   8.071   8.955
  136PVCL2  H8Y51490  -0.227   8.184   8.879
  136PVCL2  CD951491  -0.012   8.083   8.913
  136PVCL2  H9X51492   0.044   8.124   8.826
  136PVCL2  H9Y51493   0.002   7.975   8.927
  136PVCL2 CD1051494   0.079   8.134   9.042
  136PVCL2 H10X51495   0.084   8.242   9.075
  136PVCL2 H10Y51496   0.187   8.133   9.022
  136PVCL2 CD1151497   0.044   8.078   9.179
  136PVCL2 H11X51498   0.031   7.971   9.182
  136PVCL2 H11Y51499  -0.060   8.082   9.209
  136PVCL2 CD1251500   0.111   8.164   9.285
  136PVCL2 H12X51501   0.044   8.235   9.324
  136PVCL2 H12Y51502   0.190   8.233   9.249
  136PVCL2 CD1351503   0.145   8.090   9.408
  136PVCL2 H13X51504   0.193   8.166   9.474
  136PVCL2 H13Y51505   0.218   8.017   9.368
  136PVCL2 CD1451506   0.030   8.019   9.479
  136PVCL2 H14X51507  -0.042   7.972   9.408
  136PVCL2 H14Y51508  -0.030   8.092   9.540
  136PVCL2 CD1551509   0.092   7.908   9.563
  136PVCL2 H15X51510   0.157   7.952   9.640
  136PVCL2 H15Y51511   0.147   7.834   9.502
  136PVCL2 CD1651512  -0.010   7.834   9.637
  136PVCL2 H16X51513  -0.034   7.910   9.714
  136PVCL2 H16Y51514   0.024   7.742   9.690
  136PVCL2 H16Z51515  -0.099   7.813   9.574
  137CAL    CAL51516   7.015   8.027  11.724
  138CAL    CAL51517   3.539   5.314  11.549
  139CAL    CAL51518   7.349   0.546  11.500
  140CAL    CAL51519   5.122   1.931  11.612
  141CAL    CAL51520   3.324   4.200  11.611
  142CAL    CAL51521   5.527   1.939  11.193
  143CAL    CAL51522   3.020   6.850  11.506
  144CAL    CAL51523   0.471   3.218  11.645
  145CAL    CAL51524   5.745   4.307  11.457
  146CAL    CAL51525   3.808   3.302  11.732
  147CAL    CAL51526   0.638   7.218  11.786
  148CAL    CAL51527   4.540   6.652  11.884
  149CAL    CAL51528   4.822   2.463  11.871
  150CAL    CAL51529   7.321   0.706  11.083
  151CAL    CAL51530   8.076   5.430  11.957
  152CAL    CAL51531   3.526   1.007  11.598
  153CAL    CAL51532   4.815   8.140  11.197
  154CAL    CAL51533   1.975   6.427  11.227
  155CAL    CAL51534   7.021   0.322  11.438
  156CAL    CAL51535   5.715   2.106  11.764
  157CAL    CAL51536   2.670   0.005  11.858
  158CAL    CAL51537   7.545   1.775  10.756
  159CAL    CAL51538   7.874   0.743  11.168
  160CAL    CAL51539   2.233   6.649  11.623
  161CAL    CAL51540   7.698   0.309  11.787
  162CAL    CAL51541   5.151   2.402  11.259
  163CAL    CAL51542   7.542   8.020  12.136
  164CAL    CAL51543   3.142   8.130  11.838
  165CAL    CAL51544   5.007   6.369  11.787
  166CAL    CAL51545   6.238   0.207  11.969
  167CAL    CAL51546   6.263   5.489  11.609
  168CAL    CAL51547   0.588   7.515  11.320
  169CAL    CAL51548   2.653   6.526  11.602
  170CAL    CAL51549   3.140   2.370  11.859
  171CAL    CAL51550   0.497   3.473  11.090
  172CAL    CAL51551   7.639   1.396  11.399
  173CAL    CAL51552   3.368   5.796  11.629
  174CAL    CAL51553   6.591   5.134  11.648
  175CAL    CAL51554   7.851   1.808  11.549
  176CAL    CAL51555   0.447   4.001  11.697
  177CAL    CAL51556   7.155   3.533  11.811
  178CAL    CAL51557   5.636   3.185  11.955
  179CAL    CAL51558   4.483   2.760  11.449
  180CAL    CAL51559   5.268   8.122  11.619
  181CAL    CAL51560   5.804   1.634  11.280
  182CAL    CAL51561   1.409   6.031  11.843
  183CAL    CAL51562   7.371   8.079  11.203
  184CAL    CAL51563   0.067   1.695  11.885
  185CAL    CAL51564   6.068   5.016  11.763
  186CAL    CAL51565   1.311   2.887  11.879
  187CAL    CAL51566   1.892   0.592  11.635
  188CAL    CAL51567   0.406   4.116  10.751
  189CAL    CAL51568   1.954   1.127  11.768
  190CAL    CAL51569   2.698   7.826  11.547
  191CAL    CAL51570   6.829   0.067  11.748
  192CAL    CAL51571   3.162   8.068  11.191
  193CAL    CAL51572   3.500   6.287  10.976
  194CAL    CAL51573   2.648   4.177  11.689
  195CAL    CAL51574   5.887   7.269  11.475
  196CAL    CAL51575   5.592   5.906  11.548
  197CAL    CAL51576   6.143   2.036  11.782
  198CAL    CAL51577   4.892   3.060  11.645
  199CAL    CAL51578   6.128   3.248  11.401
  200CAL    CAL51579   3.307   2.329  11.384
  201CAL    CAL51580   8.038   3.401  11.619
  202CAL    CAL51581   8.059   2.182  11.622
  203CAL    CAL51582   6.339   7.310  11.834
  204CAL    CAL51583   4.252   6.156  11.765
  205CAL    CAL51584   5.179   6.380  11.409
  206CAL    CAL51585   5.943   4.356  12.149
  207CAL    CAL51586   0.906   0.922  13.152
  208CAL    CAL51587   3.514   0.967  13.319
  209CAL    CAL51588   7.992   7.369  13.830
  210CAL    CAL51589   0.130   3.396  12.983
  211CAL    CAL51590   3.403   4.394  13.273
  212CAL    CAL51591   4.436   3.240  12.726
  213CAL    CAL51592   5.222   6.189  14.094
  214CAL    CAL51593   7.479   1.276  12.038
  215CAL    CAL51594   5.535   6.824  13.573
  216CAL    CAL51595   2.014   6.385  13.460
  217CAL    CAL51596   7.773   3.408  13.910
  218CAL    CAL51597   7.910   7.531  12.582
  219CAL    CAL51598   1.015   5.119  13.262
  220CAL    CAL51599   6.562   6.679  13.427
  221CAL    CAL51600   7.749   0.783  12.892
  222CAL    CAL51601   0.520   7.682  12.129
  223CAL    CAL51602   7.053   0.049  12.632
  224CAL    CAL51603   3.509   1.169  13.969
  225CAL    CAL51604   0.631   0.024  11.976
  226CAL    CAL51605   4.363   3.268  13.704
  227CAL    CAL51606   5.906   5.692  11.950
  228CAL    CAL51607   7.195   0.718  14.351
  229CAL    CAL51608   1.212   4.442  14.499
  230CAL    CAL51609   3.729   0.860  13.798
  231CAL    CAL51610   5.574   5.827  14.291
  232CAL    CAL51611   2.279   1.537  13.118
  233CAL    CAL51612   1.223   7.748  12.563
  234CAL    CAL51613   5.762   4.141  14.341
  235CAL    CAL51614   1.867   6.239  13.917
  236CAL    CAL51615   1.829   7.954  13.302
  237CAL    CAL51616   1.302   2.725  13.032
  238CAL    CAL51617   8.071   4.755  13.091
  239CAL    CAL51618   7.846   7.544  13.498
  240CAL    CAL51619   0.955   4.774  11.950
  241CAL    CAL51620   5.901   3.664  13.253
  242CAL    CAL51621   3.114   8.129  14.207
  243CAL    CAL51622   1.583   6.578  13.367
  244CAL    CAL51623   7.767   3.510  13.242
  245CAL    CAL51624   6.703   1.851  13.618
  246CAL    CAL51625   5.907   1.687  13.602
  247CAL    CAL51626   6.980   2.423  13.199
  248CAL    CAL51627   6.237   7.266  13.194
  249CAL    CAL51628   0.313   3.460  12.086
  250CAL    CAL51629   7.538   1.230  13.778
  251CAL    CAL51630   0.185   0.439  13.548
  252CAL    CAL51631   6.074   4.317  13.070
  253CAL    CAL51632   8.118   1.916  12.134
  254CAL    CAL51633   4.341   1.186  12.203
  255CAL    CAL51634   3.522   6.347  12.678
  256CAL    CAL51635   1.088   3.120  13.506
  257CAL    CAL51636   6.859   0.195  13.831
  258CAL    CAL51637   2.958   7.460  14.415
  259CAL    CAL51638   6.709   1.887  12.070
  260CAL    CAL51639   0.365   0.337  12.567
  261CAL    CAL51640   5.766   0.373  13.479
  262CAL    CAL51641   3.434   1.458  14.351
  263CAL    CAL51642   1.982   3.280  14.516
  264CAL    CAL51643   2.860   7.290  13.055
  265CAL    CAL51644   8.116   1.920  13.669
  266CAL    CAL51645   7.708   4.793  13.656
  267CAL    CAL51646   0.357   4.335  12.035
  268CAL    CAL51647   4.384   0.994  13.731
  269CAL    CAL51648   7.111   4.211  13.155
  270CAL    CAL51649   2.743   6.522  14.489
  271CAL    CAL51650   6.576   2.862  13.137
  272CAL    CAL51651   0.310   7.491  14.175
  273CAL    CAL51652   4.997   6.254  12.415
  274CAL    CAL51653   8.090   3.050  13.558
  275CAL    CAL51654   6.641   5.404  14.495
  276CAL    CAL51655   5.066   0.170  13.358
  277CAL    CAL51656   0.458   7.387  13.412
  278CAL    CAL51657   5.378   6.359  12.553
  279CAL    CAL51658   2.218   6.206  13.008
  280CAL    CAL51659   0.385   3.922  13.465
  281CAL    CAL51660   5.425   2.477  12.943
  282CAL    CAL51661   6.266   0.162  13.381
  283CAL    CAL51662   1.950   0.938  13.421
  284CAL    CAL51663   3.499   6.030  14.265
  285CAL    CAL51664   1.941   3.754  13.681
  286CAL    CAL51665   2.076   1.143  12.879
  287CAL    CAL51666   6.873   1.974  14.468
  288CAL    CAL51667   4.068   8.007  13.451
  289CAL    CAL51668   4.177   3.634  12.277
  290CAL    CAL51669   1.641   3.138  13.469
  291CAL    CAL51670   3.943   1.104  12.843
  292CAL    CAL51671   2.138   3.394  13.423
  293CAL    CAL51672   4.537   7.688  13.298
  294SOD    SOD51673   4.070   7.577   5.940
  295SOD    SOD51674   4.371   4.546   7.150
  296SOD    SOD51675   6.186   1.328   7.243
  297SOD    SOD51676   4.837   3.232   6.850
  298SOD    SOD51677   1.739   2.528   7.027
  299SOD    SOD51678   4.248   5.794   6.886
  300SOD    SOD51679   5.857   3.835   4.653
  301SOD    SOD51680   1.424   2.411  14.992
  302SOD    SOD51681   0.388   0.481  15.953
  303SOD    SOD51682   7.296   1.944  14.543
  304SOD    SOD51683   3.488   1.486   3.184
  305SOD    SOD51684   6.361   1.859   3.117
  306SOD    SOD51685   2.736   2.932   5.209
  307SOD    SOD51686   7.040   1.669   2.555
  308SOD    SOD51687   0.769   4.432   5.068
  309SOD    SOD51688   6.088   2.758   3.767
  310SOD    SOD51689   3.717   7.986   6.020
  311SOD    SOD51690   7.961   3.755   7.020
  312SOD    SOD51691   4.070   8.116   3.176
  313SOD    SOD51692   8.050   6.604   7.291
  314SOD    SOD51693   0.274   5.427   7.062
  315SOD    SOD51694   5.626   4.024   6.397
  316SOD    SOD51695   7.978   0.178  15.360
  317SOD    SOD51696   7.193   2.929   3.728
  318SOD    SOD51697   1.921   3.378   0.856
  319SOD    SOD51698   5.637   0.883   5.203
  320SOD    SOD51699   7.378   2.305   4.431
  321SOD    SOD51700   3.566   5.681  17.392
  322SOD    SOD51701   5.124   1.623   6.486
  323SOD    SOD51702   3.098   3.908  16.781
  324SOD    SOD51703   7.307   0.394   6.228
  325SOD    SOD51704   6.323   6.961   5.956
  326SOD    SOD51705   0.260   7.807   1.874
  327SOD    SOD51706   1.981   7.890   0.886
  328SOD    SOD51707   7.898   7.661   5.736
  329SOD    SOD51708   2.347   8.091   5.422
  330SOD    SOD51709   2.098   2.763   4.481
  331SOD    SOD51710   0.903   2.989   6.747
  332SOD    SOD51711   4.241   6.196   6.950
  333SOD    SOD51712   7.324   1.677   4.304
  334SOD    SOD51713   6.425   5.898   5.682
  335SOD    SOD51714   6.043   4.322   5.595
  336SOD    SOD51715   5.789   3.462  18.411
  337SOD    SOD51716   0.352   6.935   4.366
  338SOD    SOD51717   6.262   5.017  11.284
  339SOD    SOD51718   7.810   6.823   5.429
  340SOD    SOD51719   0.471   7.499   0.026
  341SOD    SOD51720   6.987   7.384   7.198
  342SOD    SOD51721   6.194   2.718   4.827
  343SOD    SOD51722   4.218   1.155   4.729
  344SOD    SOD51723   0.974   2.834  16.216
  345SOD    SOD51724   6.940   2.681   7.097
  346SOD    SOD51725   0.473   4.500  17.190
  347SOD    SOD51726   1.975   0.634   6.949
  348SOD    SOD51727   6.860   0.248   6.194
  349SOD    SOD51728   7.959   6.507   6.430
  350SOD    SOD51729   5.196   2.539   5.138
  351SOD    SOD51730   2.969   7.370  16.239
  352SOD    SOD51731   7.747   0.665   6.632
  353SOD    SOD51732   8.139   3.568   2.439
  354SOD    SOD51733   7.688   6.668   2.940
  355SOD    SOD51734   7.283  -0.046   6.209
  356SOD    SOD51735   5.954   1.582   0.087
  357SOD    SOD51736   6.939   5.143   7.368
  358SOD    SOD51737   4.000   1.090   0.538
  359SOD    SOD51738   7.491   3.741   5.075
  360SOD    SOD51739   5.326   2.867  12.722
  361SOD    SOD51740   0.199   0.233   3.131
  362SOD    SOD51741   0.591   3.130   4.658
  363SOD    SOD51742   2.173   2.560   5.970
  364SOD    SOD51743   0.102   0.466   2.549
  365SOD    SOD51744   0.588   6.082   3.977
  366SOD    SOD51745   0.070   2.386   4.020
  367SOD    SOD51746   2.408   5.536   3.900
  368SOD    SOD51747   3.009   6.421   3.103
  369SOD    SOD51748   4.387   2.858  11.819
  370SOD    SOD51749   7.848   0.354   4.278
  371SOD    SOD51750   1.157   4.753   7.497
  372SOD    SOD51751   0.068   7.215   0.959
  373SOD    SOD51752   1.636   7.725   7.442
  374SOD    SOD51753   1.922   3.926  19.248
  375SOD    SOD51754   6.352   4.981  18.817
  376SOD    SOD51755   7.259   1.487   0.791
  377SOD    SOD51756   3.606   2.048   0.206
  378SOD    SOD51757   3.166   4.723   3.084
  379SOD    SOD51758   0.546   4.989   7.060
  380SOD    SOD51759   4.205   2.694  14.641
  381SOD    SOD51760   8.150   5.017   0.058
  382SOD    SOD51761   8.011   1.778   2.972
  383SOD    SOD51762   4.310   2.239   4.508
  384SOD    SOD51763   4.830   2.851   7.096
  385SOD    SOD51764   6.952   0.280  19.328
  386SOD    SOD51765   7.441   0.512  14.961
  387SOD    SOD51766   3.400   3.897   4.144
  388SOD    SOD51767   1.575   1.234   5.571
  389SOD    SOD51768   3.520   6.466   0.807
  390SOD    SOD51769   0.301   7.570  15.175
  391SOD    SOD51770   0.769   0.622   6.430
  392SOD    SOD51771   2.685   6.624   2.302
  393SOD    SOD51772   5.542   3.644   2.886
  394SOD    SOD51773   1.117   4.631   0.845
  395SOD    SOD51774   8.022   5.807  18.864
  396SOD    SOD51775   1.045   2.958   2.426
  397SOD    SOD51776   5.562   6.347  13.229
  398SOD    SOD51777   4.492   7.961   2.279
  399SOD    SOD51778   3.509   2.662   6.630
  400SOD    SOD51779   6.861   6.897   5.109
  401SOD    SOD51780   5.192   6.184   2.265
  402SOD    SOD51781   0.372   5.772   5.427
  403SOD    SOD51782   0.665   1.236   1.676
  404SOD    SOD51783   0.576   0.186   4.758
  405SOD    SOD51784   5.812   3.407  12.475
  406SOD    SOD51785   7.872   6.841   0.995
  407SOD    SOD51786   0.905   1.774   3.836
  408CLA    CLA51787   5.777   1.599  18.070
  409CLA    CLA51788   0.514   1.661  16.110
  410CLA    CLA51789   2.120   2.806   4.032
  411CLA    CLA51790   7.098   4.288   4.806
  412CLA    CLA51791   2.800   6.882   0.319
  413CLA    CLA51792   4.999   5.272   3.643
  414CLA    CLA51793   4.251   7.773   2.885
  415CLA    CLA51794   2.275   4.646   6.286
  416CLA    CLA51795   7.427   4.792   4.381
  417CLA    CLA51796   5.418   1.063   3.598
  418CLA    CLA51797   3.472   6.935   5.439
  419CLA    CLA51798   4.703   2.229   4.878
  420CLA    CLA51799   4.168   6.963  16.749
  421CLA    CLA51800   6.604   8.069   2.505
  422CLA    CLA51801   1.107   2.455   3.633
  423CLA    CLA51802   7.209   5.521   5.228
  424CLA    CLA51803   7.502   5.045   5.457
  425CLA    CLA51804   0.501   1.634   4.655
  426CLA    CLA51805   4.385   3.118   1.698
  427CLA    CLA51806   5.681   3.499  18.082
  428CLA    CLA51807   4.747   2.861   1.245
  429CLA    CLA51808   6.899   1.248   5.127
  430CLA    CLA51809   3.916   5.751   7.284
  431CLA    CLA51810   0.813   2.795   1.706
  432CLA    CLA51811   6.435   5.931   5.111
  433CLA    CLA51812   1.497   3.114   2.953
  434CLA    CLA51813   2.860   6.393   4.666
  435CLA    CLA51814   2.019   4.300   4.393
  436CLA    CLA51815   3.109   4.986   0.005
  437CLA    CLA51816   2.134   0.170  13.057
  438CLA    CLA51817   4.656   3.664   6.177
  439CLA    CLA51818   0.395   7.466  17.114
  440CLA    CLA51819   5.757   3.711   7.370
  441CLA    CLA51820   0.940   7.331  16.729
  442CLA    CLA51821   3.506   4.643   5.710
  443CLA    CLA51822   5.949   2.938   6.111
  444CLA    CLA51823   2.529   4.204   4.124
  445CLA    CLA51824   2.881   6.209   5.587
  446CLA    CLA51825   5.013   6.495   0.692
  447CLA    CLA51826   5.242   1.514  16.485
  448CLA    CLA51827   3.364   7.637   5.581
  449CLA    CLA51828   0.120   6.429   6.819
  450CLA    CLA51829   1.020   0.284   2.375
  451CLA    CLA51830   0.274   6.605  16.760
  452CLA    CLA51831   1.513   3.030   7.210
  453CLA    CLA51832   0.000   8.018   5.049
  454CLA    CLA51833   3.171   3.133   7.219
  455CLA    CLA51834   3.519   5.251  13.899
  456TIP3   OH251835   1.184   1.021  12.423
  456TIP3    H151836   1.193   1.115  12.407
  456TIP3    H251837   1.121   0.993  12.356
  457TIP3   OH251838   1.066   0.951  12.773
  457TIP3    H151839   1.081   0.877  12.834
  457TIP3    H251840   1.043   0.902  12.691
  458TIP3   OH251841   0.910   1.181  12.814
  458TIP3    H151842   0.948   1.122  12.747
  458TIP3    H251843   0.988   1.205  12.865
  459TIP3   OH251844   0.544   0.444  12.559
  459TIP3    H151845   0.568   0.533  12.521
  459TIP3    H251846   0.542   0.391  12.476
  460TIP3   OH251847   0.719   0.837  12.568
  460TIP3    H151848   0.788   0.781  12.608
  460TIP3    H251849   0.670   0.770  12.519
  461TIP3   OH251850   1.829   0.505  13.118
  461TIP3    H151851   1.748   0.556  13.103
  461TIP3    H251852   1.820   0.475  13.209
  462TIP3   OH251853   0.432   0.327  12.965
  462TIP3    H151854   0.404   0.396  12.903
  462TIP3    H251855   0.368   0.351  13.038
  463TIP3   OH251856   0.693   1.101  13.005
  463TIP3    H151857   0.611   1.157  13.019
  463TIP3    H251858   0.752   1.166  12.963
  464TIP3   OH251859   0.390   0.512  12.759
  464TIP3    H151860   0.438   0.583  12.809
  464TIP3    H251861   0.465   0.486  12.707
  465TIP3   OH251862   0.522   1.292  13.075
  465TIP3    H151863   0.524   1.385  13.045
  465TIP3    H251864   0.436   1.283  13.119
  466TIP3   OH251865   0.813   0.069  12.692
  466TIP3    H151866   0.823  -0.023  12.719
  466TIP3    H251867   0.743   0.095  12.751
  467TIP3   OH251868   1.631   1.251  13.191
  467TIP3    H151869   1.609   1.189  13.118
  467TIP3    H251870   1.612   1.338  13.152
  468TIP3   OH251871   1.050   0.949  12.171
  468TIP3    H151872   0.985   1.005  12.127
  468TIP3    H251873   1.123   0.946  12.104
  469TIP3   OH251874   1.808   0.899  13.004
  469TIP3    H151875   1.718   0.942  13.003
  469TIP3    H251876   1.829   0.898  12.910
  470TIP3   OH251877   0.560   1.030  12.452
  470TIP3    H151878   0.528   0.994  12.368
  470TIP3    H251879   0.622   0.961  12.486
  471TIP3   OH251880   0.702   1.381  12.712
  471TIP3    H151881   0.687   1.316  12.642
  471TIP3    H251882   0.768   1.336  12.767
  472TIP3   OH251883   0.596   0.905  12.814
  472TIP3    H151884   0.652   0.917  12.736
  472TIP3    H251885   0.627   0.971  12.877
  473TIP3   OH251886   0.680   1.336  13.290
  473TIP3    H151887   0.659   1.420  13.333
  473TIP3    H251888   0.619   1.331  13.215
  474TIP3   OH251889   1.279   0.892  12.037
  474TIP3    H151890   1.347   0.892  12.104
  474TIP3    H251891   1.323   0.925  11.957
  475TIP3   OH251892   0.510   1.554  13.362
  475TIP3    H151893   0.509   1.543  13.265
  475TIP3    H251894   0.418   1.542  13.387
  476TIP3   OH251895   1.780   1.487  11.852
  476TIP3    H151896   1.777   1.584  11.867
  476TIP3    H251897   1.873   1.472  11.849
  477TIP3   OH251898   1.876   1.508  13.355
  477TIP3    H151899   1.850   1.418  13.348
  477TIP3    H251900   1.790   1.546  13.381
  478TIP3   OH251901   0.564   0.160  12.785
  478TIP3    H151902   0.471   0.141  12.764
  478TIP3    H251903   0.553   0.231  12.850
  479TIP3   OH251904   1.032   0.179  13.139
  479TIP3    H151905   1.083   0.105  13.177
  479TIP3    H251906   0.948   0.133  13.122
  480TIP3   OH251907   0.566   0.647  12.912
  480TIP3    H151908   0.500   0.653  12.983
  480TIP3    H251909   0.571   0.742  12.884
  481TIP3   OH251910   0.567   0.657  12.406
  481TIP3    H151911   0.475   0.644  12.383
  481TIP3    H251912   0.611   0.640  12.320
  482TIP3   OH251913   1.122   0.714  12.283
  482TIP3    H151914   1.080   0.793  12.245
  482TIP3    H251915   1.191   0.694  12.217
  483TIP3   OH251916   0.673   0.412  11.773
  483TIP3    H151917   0.626   0.380  11.849
  483TIP3    H251918   0.609   0.459  11.718
  484TIP3   OH251919   0.136   0.481  12.027
  484TIP3    H151920   0.177   0.531  11.956
  484TIP3    H251921   0.057   0.530  12.052
  485TIP3   OH251922   1.112   0.810  13.016
  485TIP3    H151923   1.187   0.764  12.972
  485TIP3    H251924   1.124   0.758  13.099
  486TIP3   OH251925   0.820   0.419  12.506
  486TIP3    H151926   0.732   0.420  12.541
  486TIP3    H251927   0.876   0.403  12.584
  487TIP3   OH251928   0.669   0.572  12.159
  487TIP3    H151929   0.764   0.587  12.172
  487TIP3    H251930   0.647   0.639  12.089
  488TIP3   OH251931   0.545   0.682  11.914
  488TIP3    H151932   0.480   0.667  11.844
  488TIP3    H251933   0.620   0.723  11.866
  489TIP3   OH251934   0.961   0.695  12.700
  489TIP3    H151935   1.008   0.642  12.634
  489TIP3    H251936   0.937   0.632  12.768
  490TIP3   OH251937   0.464   0.305  12.352
  490TIP3    H151938   0.421   0.219  12.329
  490TIP3    H251939   0.532   0.310  12.283
  491TIP3   OH251940   0.817   0.532  12.937
  491TIP3    H151941   0.731   0.578  12.947
  491TIP3    H251942   0.869   0.557  13.013
  492TIP3   OH251943   0.870   1.147  12.103
  492TIP3    H151944   0.792   1.103  12.071
  492TIP3    H251945   0.854   1.165  12.197
  493TIP3   OH251946   1.602   1.068  12.986
  493TIP3    H151947   1.650   1.118  12.920
  493TIP3    H251948   1.511   1.068  12.946
  494TIP3   OH251949   0.801   0.892  13.416
  494TIP3    H151950   0.742   0.846  13.355
  494TIP3    H251951   0.883   0.845  13.439
  495TIP3   OH251952   1.828   1.206  13.341
  495TIP3    H151953   1.737   1.242  13.313
  495TIP3    H251954   1.873   1.228  13.260
  496TIP3   OH251955   1.368   1.001  12.815
  496TIP3    H151956   1.275   0.981  12.805
  496TIP3    H251957   1.413   0.925  12.776
  497TIP3   OH251958   0.624   1.433  12.420
  497TIP3    H151959   0.672   1.512  12.399
  497TIP3    H251960   0.534   1.455  12.390
  498TIP3   OH251961   0.767   1.200  12.375
  498TIP3    H151962   0.737   1.292  12.384
  498TIP3    H251963   0.692   1.152  12.417
  499TIP3   OH251964   1.843   1.762  11.909
  499TIP3    H151965   1.913   1.827  11.891
  499TIP3    H251966   1.774   1.822  11.943
  500TIP3   OH251967   0.250   0.404  13.178
  500TIP3    H151968   0.162   0.439  13.155
  500TIP3    H251969   0.235   0.312  13.202
  501TIP3   OH251970   0.809   1.431  11.733
  501TIP3    H151971   0.821   1.354  11.676
  501TIP3    H251972   0.774   1.390  11.812
  502TIP3   OH251973   0.975   0.625  13.171
  502TIP3    H151974   0.997   0.658  13.259
  502TIP3    H251975   1.038   0.548  13.178
  503TIP3   OH251976   0.694   1.658  12.052
  503TIP3    H151977   0.722   1.737  12.000
  503TIP3    H251978   0.684   1.694  12.140
  504TIP3   OH251979   0.578   0.321  12.019
  504TIP3    H151980   0.563   0.417  12.043
  504TIP3    H251981   0.673   0.322  12.039
  505TIP3   OH251982   0.233   0.638  11.826
  505TIP3    H151983   0.232   0.732  11.855
  505TIP3    H251984   0.142   0.618  11.803
  506TIP3   OH251985   0.316   0.134  12.695
  506TIP3    H151986   0.277   0.115  12.605
  506TIP3    H251987   0.280   0.050  12.732
  507TIP3   OH251988   0.128   1.790  13.469
  507TIP3    H151989   0.201   1.748  13.518
  507TIP3    H251990   0.091   1.707  13.422
  508TIP3   OH251991   0.596   1.664  13.607
  508TIP3    H151992   0.675   1.617  13.637
  508TIP3    H251993   0.595   1.640  13.513
  509TIP3   OH251994   0.791   1.149  13.487
  509TIP3    H151995   0.755   1.186  13.405
  509TIP3    H251996   0.797   1.053  13.476
  510TIP3   OH251997   0.786   0.809  11.816
  510TIP3    H151998   0.766   0.795  11.722
  510TIP3    H251999   0.882   0.814  11.814
  511TIP3   OH252000   1.102   1.009  13.548
  511TIP3    H152001   1.197   1.030  13.542
  511TIP3    H252002   1.098   0.948  13.621
  512TIP3   OH252003   1.749   1.053  11.736
  512TIP3    H152004   1.681   1.006  11.683
  512TIP3    H252005   1.696   1.138  11.738
  513TIP3   OH252006   0.646   0.511  13.325
  513TIP3    H152007   0.654   0.435  13.265
  513TIP3    H252008   0.634   0.586  13.266
  514TIP3   OH252009   0.683   0.343  13.083
  514TIP3    H152010   0.733   0.391  13.013
  514TIP3    H252011   0.592   0.338  13.044
  515TIP3   OH252012   0.770   0.858  13.014
  515TIP3    H152013   0.861   0.841  12.984
  515TIP3    H252014   0.747   0.956  13.028
  516TIP3   OH252015   1.409   0.968  13.426
  516TIP3    H152016   1.377   1.019  13.352
  516TIP3    H252017   1.494   0.938  13.390
  517TIP3   OH252018   0.492   0.627  13.530
  517TIP3    H152019   0.415   0.587  13.491
  517TIP3    H252020   0.554   0.603  13.460
  518TIP3   OH252021   0.747   0.092  13.122
  518TIP3    H152022   0.739   0.190  13.113
  518TIP3    H252023   0.674   0.059  13.072
  519TIP3   OH252024   0.879   0.535  13.480
  519TIP3    H152025   0.862   0.499  13.569
  519TIP3    H252026   0.801   0.502  13.431
  520TIP3   OH252027   0.372   0.403  13.474
  520TIP3    H152028   0.349   0.329  13.412
  520TIP3    H252029   0.368   0.359  13.564
  521TIP3   OH252030   0.791   0.072  13.374
  521TIP3    H152031   0.849  -0.007  13.383
  521TIP3    H252032   0.769   0.060  13.280
  522TIP3   OH252033   0.818   0.188  13.605
  522TIP3    H152034   0.805   0.142  13.519
  522TIP3    H252035   0.760   0.266  13.591
  523TIP3   OH252036   0.772   1.877  11.913
  523TIP3    H152037   0.865   1.899  11.928
  523TIP3    H252038   0.745   1.948  11.855
  524TIP3   OH252039   1.800   1.218  12.846
  524TIP3    H152040   1.852   1.179  12.778
  524TIP3    H252041   1.787   1.311  12.816
  525TIP3   OH252042   1.842   0.945  11.967
  525TIP3    H152043   1.763   0.961  11.913
  525TIP3    H252044   1.818   0.989  12.051
  526TIP3   OH252045   1.674   0.990  13.377
  526TIP3    H152046   1.719   0.906  13.364
  526TIP3    H252047   1.726   1.069  13.356
  527TIP3   OH252048   1.820   0.769  13.423
  527TIP3    H152049   1.730   0.731  13.406
  527TIP3    H252050   1.871   0.683  13.420
  528TIP3   OH252051   0.050   0.512  13.388
  528TIP3    H152052   0.146   0.531  13.391
  528TIP3    H252053  -0.000   0.444  13.437
  529TIP3   OH252054   0.191   0.361  12.687
  529TIP3    H152055   0.194   0.278  12.740
  529TIP3    H252056   0.207   0.431  12.755
  530TIP3   OH252057   1.800   0.288  13.430
  530TIP3    H152058   1.707   0.317  13.424
  530TIP3    H252059   1.816   0.236  13.352
  531TIP3   OH252060   0.040   0.375  12.237
  531TIP3    H152061  -0.041   0.319  12.224
  531TIP3    H252062   0.081   0.350  12.150
  532TIP3   OH252063   8.173   0.160  13.054
  532TIP3    H152064   8.098   0.128  13.103
  532TIP3    H252065   8.125   0.215  12.989
  533TIP3   OH252066   0.541   1.570  13.085
  533TIP3    H152067   0.502   1.654  13.058
  533TIP3    H252068   0.633   1.579  13.055
  534TIP3   OH252069   0.280   1.886  13.085
  534TIP3    H152070   0.208   1.940  13.048
  534TIP3    H252071   0.249   1.875  13.174
  535TIP3   OH252072   0.442   1.625  12.635
  535TIP3    H152073   0.413   1.536  12.659
  535TIP3    H252074   0.519   1.641  12.692
  536TIP3   OH252075   0.681   1.668  12.737
  536TIP3    H152076   0.715   1.582  12.708
  536TIP3    H252077   0.702   1.671  12.831
  537TIP3   OH252078   0.275   0.156  12.447
  537TIP3    H152079   0.204   0.118  12.391
  537TIP3    H252080   0.323   0.068  12.446
  538TIP3   OH252081   0.118   0.240  11.940
  538TIP3    H152082   0.197   0.183  11.923
  538TIP3    H252083   0.103   0.191  12.021
  539TIP3   OH252084   0.726   0.106  12.408
  539TIP3    H152085   0.818   0.138  12.405
  539TIP3    H252086   0.731   0.075  12.500
  540TIP3   OH252087   0.357   0.273  11.848
  540TIP3    H152088   0.398   0.211  11.789
  540TIP3    H252089   0.414   0.309  11.916
  541TIP3   OH252090   0.263   0.173  13.397
  541TIP3    H152091   0.234   0.079  13.408
  541TIP3    H252092   0.360   0.153  13.408
  542TIP3   OH252093   0.473   0.099  13.546
  542TIP3    H152094   0.558   0.065  13.512
  542TIP3    H252095   0.435   0.013  13.571
  543TIP3   OH252096   0.305   1.754  11.822
  543TIP3    H152097   0.330   1.817  11.891
  543TIP3    H252098   0.401   1.725  11.804
  544TIP3   OH252099   2.191   0.935  12.932
  544TIP3    H152100   2.201   0.847  12.983
  544TIP3    H252101   2.284   0.959  12.944
  545TIP3   OH252102   3.337   1.249  12.598
  545TIP3    H152103   3.290   1.171  12.631
  545TIP3    H252104   3.333   1.317  12.665
  546TIP3   OH252105   2.341   0.366  12.970
  546TIP3    H152106   2.291   0.382  12.889
  546TIP3    H252107   2.267   0.342  13.030
  547TIP3   OH252108   2.400   1.295  13.064
  547TIP3    H152109   2.429   1.380  13.036
  547TIP3    H252110   2.329   1.286  13.131
  548TIP3   OH252111   2.029   1.261  12.153
  548TIP3    H152112   1.992   1.293  12.071
  548TIP3    H252113   2.022   1.341  12.209
  549TIP3   OH252114   3.382   1.425  12.832
  549TIP3    H152115   3.289   1.436  12.851
  549TIP3    H252116   3.411   1.516  12.813
  550TIP3   OH252117   3.411   0.251  12.974
  550TIP3    H152118   3.345   0.318  12.964
  550TIP3    H252119   3.487   0.289  12.923
  551TIP3   OH252120   3.329   1.391  12.347
  551TIP3    H152121   3.301   1.327  12.280
  551TIP3    H252122   3.334   1.342  12.429
  552TIP3   OH252123   3.507   1.238  13.191
  552TIP3    H152124   3.498   1.194  13.105
  552TIP3    H252125   3.502   1.333  13.162
  553TIP3   OH252126   3.681   0.902  13.008
  553TIP3    H152127   3.603   0.957  12.990
  553TIP3    H252128   3.719   0.889  12.918
  554TIP3   OH252129   3.286   0.798  13.168
  554TIP3    H152130   3.256   0.863  13.233
  554TIP3    H252131   3.207   0.806  13.108
  555TIP3   OH252132   2.569   1.349  13.290
  555TIP3    H152133   2.541   1.426  13.337
  555TIP3    H252134   2.515   1.318  13.217
  556TIP3   OH252135   2.385   1.572  13.356
  556TIP3    H152136   2.416   1.526  13.281
  556TIP3    H252137   2.304   1.533  13.398
  557TIP3   OH252138   2.349   0.937  12.214
  557TIP3    H152139   2.321   1.011  12.161
  557TIP3    H252140   2.285   0.869  12.196
  558TIP3   OH252141   3.660   1.485  11.852
  558TIP3    H152142   3.662   1.580  11.870
  558TIP3    H252143   3.753   1.463  11.849
  559TIP3   OH252144   1.972   1.165  13.073
  559TIP3    H152145   1.884   1.174  13.027
  559TIP3    H252146   1.954   1.081  13.124
  560TIP3   OH252147   3.755   1.521  13.351
  560TIP3    H152148   3.743   1.426  13.348
  560TIP3    H252149   3.665   1.546  13.386
  561TIP3   OH252150   3.469   0.678  13.391
  561TIP3    H152151   3.409   0.698  13.318
  561TIP3    H252152   3.473   0.579  13.371
  562TIP3   OH252153   2.176   1.323  13.195
  562TIP3    H152154   2.204   1.275  13.280
  562TIP3    H252155   2.094   1.270  13.182
  563TIP3   OH252156   2.439   0.149  12.799
  563TIP3    H152157   2.352   0.146  12.756
  563TIP3    H252158   2.441   0.235  12.844
  564TIP3   OH252159   3.244   0.506  13.225
  564TIP3    H152160   3.182   0.485  13.296
  564TIP3    H252161   3.216   0.593  13.194
  565TIP3   OH252162   3.353   0.961  11.787
  565TIP3    H152163   3.297   0.980  11.710
  565TIP3    H252164   3.385   1.046  11.825
  566TIP3   OH252165   2.426   0.651  12.890
  566TIP3    H152166   2.390   0.639  12.980
  566TIP3    H252167   2.457   0.741  12.892
  567TIP3   OH252168   2.452   0.684  12.401
  567TIP3    H152169   2.363   0.644  12.394
  567TIP3    H252170   2.498   0.644  12.326
  568TIP3   OH252171   2.206   0.689  13.089
  568TIP3    H152172   2.238   0.708  13.178
  568TIP3    H252173   2.185   0.594  13.101
  569TIP3   OH252174   2.194   0.575  12.386
  569TIP3    H152175   2.102   0.588  12.359
  569TIP3    H252176   2.219   0.491  12.347
  570TIP3   OH252177   3.477   1.905  13.462
  570TIP3    H152178   3.500   1.944  13.376
  570TIP3    H252179   3.547   1.937  13.521
  571TIP3   OH252180   2.231   1.163  13.412
  571TIP3    H152181   2.312   1.170  13.468
  571TIP3    H252182   2.166   1.176  13.482
  572TIP3   OH252183   3.478   1.067  12.985
  572TIP3    H152184   3.533   1.115  12.921
  572TIP3    H252185   3.391   1.075  12.941
  573TIP3   OH252186   1.965   0.927  13.212
  573TIP3    H152187   2.017   0.856  13.253
  573TIP3    H252188   1.906   0.870  13.154
  574TIP3   OH252189   3.712   0.640  12.060
  574TIP3    H152190   3.649   0.605  11.994
  574TIP3    H252191   3.718   0.734  12.036
  575TIP3   OH252192   3.712   1.224  13.338
  575TIP3    H152193   3.625   1.261  13.305
  575TIP3    H252194   3.770   1.232  13.261
  576TIP3   OH252195   2.070   0.955  11.858
  576TIP3    H152196   2.153   0.969  11.916
  576TIP3    H252197   2.003   0.934  11.929
  577TIP3   OH252198   3.334   1.673  13.222
  577TIP3    H152199   3.259   1.629  13.179
  577TIP3    H252200   3.348   1.750  13.163
  578TIP3   OH252201   2.127   0.430  13.204
  578TIP3    H152202   2.043   0.437  13.157
  578TIP3    H252203   2.135   0.331  13.205
  579TIP3   OH252204   3.366   1.182  12.111
  579TIP3    H152205   3.335   1.109  12.164
  579TIP3    H252206   3.457   1.196  12.135
  580TIP3   OH252207   2.118   1.575  13.004
  580TIP3    H152208   2.080   1.488  13.004
  580TIP3    H252209   2.077   1.626  13.081
  581TIP3   OH252210   2.211   1.116  12.014
  581TIP3    H152211   2.159   1.150  12.091
  581TIP3    H252212   2.286   1.180  12.013
  582TIP3   OH252213   3.484   0.415  13.255
  582TIP3    H152214   3.389   0.426  13.236
  582TIP3    H252215   3.518   0.392  13.165
  583TIP3   OH252216   2.110   0.640  11.822
  583TIP3    H152217   2.127   0.733  11.848
  583TIP3    H252218   2.022   0.620  11.828
  584TIP3   OH252219   3.449   1.701  12.825
  584TIP3    H152220   3.434   1.772  12.758
  584TIP3    H252221   3.545   1.713  12.842
  585TIP3   OH252222   2.200   0.114  12.692
  585TIP3    H152223   2.172   0.122  12.601
  585TIP3    H252224   2.155   0.037  12.727
  586TIP3   OH252225   1.994   1.143  13.552
  586TIP3    H152226   2.050   1.075  13.517
  586TIP3    H252227   1.935   1.190  13.488
  587TIP3   OH252228   2.435   1.182  11.751
  587TIP3    H152229   2.455   1.107  11.809
  587TIP3    H252230   2.511   1.176  11.692
  588TIP3   OH252231   2.656   1.144  13.494
  588TIP3    H152232   2.656   1.176  13.401
  588TIP3    H252233   2.700   1.059  13.469
  589TIP3   OH252234   2.124   0.862  13.500
  589TIP3    H152235   2.159   0.772  13.486
  589TIP3    H252236   2.102   0.861  13.597
  590TIP3   OH252237   2.998   1.017  13.548
  590TIP3    H152238   3.091   1.036  13.550
  590TIP3    H252239   2.977   0.949  13.611
  591TIP3   OH252240   3.607   1.065  11.783
  591TIP3    H152241   3.642   0.992  11.732
  591TIP3    H252242   3.619   1.158  11.751
  592TIP3   OH252243   3.163   0.672  13.595
  592TIP3    H152244   3.180   0.578  13.598
  592TIP3    H252245   3.248   0.713  13.613
  593TIP3   OH252246   3.294   0.947  13.410
  593TIP3    H152247   3.255   1.029  13.366
  593TIP3    H252248   3.381   0.945  13.424
  594TIP3   OH252249   2.184   0.426  13.494
  594TIP3    H152250   2.206   0.354  13.431
  594TIP3    H252251   2.175   0.379  13.579
  595TIP3   OH252252   2.669   0.068  13.375
  595TIP3    H152253   2.738  -0.002  13.379
  595TIP3    H252254   2.656   0.063  13.280
  596TIP3   OH252255   2.020   1.318  11.869
  596TIP3    H152256   2.106   1.359  11.895
  596TIP3    H252257   2.034   1.312  11.777
  597TIP3   OH252258   3.714   1.773  12.852
  597TIP3    H152259   3.721   1.787  12.948
  597TIP3    H252260   3.787   1.824  12.814
  598TIP3   OH252261   3.680   1.730  13.137
  598TIP3    H152262   3.630   1.652  13.106
  598TIP3    H252263   3.732   1.688  13.207
  599TIP3   OH252264   3.526   1.290  13.625
  599TIP3    H152265   3.431   1.309  13.632
  599TIP3    H252266   3.559   1.384  13.638
  600TIP3   OH252267   3.657   1.129  12.143
  600TIP3    H152268   3.738   1.177  12.168
  600TIP3    H252269   3.651   1.062  12.214
  601TIP3   OH252270   3.690   0.939  12.339
  601TIP3    H152271   3.619   0.888  12.380
  601TIP3    H252272   3.752   0.953  12.410
  602TIP3   OH252273   3.683   1.209  12.854
  602TIP3    H152274   3.734   1.182  12.780
  602TIP3    H252275   3.667   1.302  12.825
  603TIP3   OH252276   3.517   1.490  13.071
  603TIP3    H152277   3.452   1.537  13.125
  603TIP3    H252278   3.467   1.468  12.990
  604TIP3   OH252279   3.719   0.922  11.975
  604TIP3    H152280   3.664   0.968  11.911
  604TIP3    H252281   3.713   0.989  12.047
  605TIP3   OH252282   3.553   0.651  11.829
  605TIP3    H152283   3.564   0.711  11.759
  605TIP3    H252284   3.536   0.564  11.785
  606TIP3   OH252285   1.974   0.989  12.783
  606TIP3    H152286   1.987   0.972  12.688
  606TIP3    H252287   2.050   0.938  12.823
  607TIP3   OH252288   3.662   1.010  13.450
  607TIP3    H152289   3.683   0.919  13.411
  607TIP3    H252290   3.668   1.086  13.383
  608TIP3   OH252291   3.705   0.769  13.425
  608TIP3    H152292   3.623   0.716  13.411
  608TIP3    H252293   3.768   0.692  13.413
  609TIP3   OH252294   3.476   0.397  11.743
  609TIP3    H152295   3.544   0.354  11.801
  609TIP3    H252296   3.398   0.348  11.763
  610TIP3   OH252297   3.499   0.614  12.783
  610TIP3    H152298   3.595   0.620  12.783
  610TIP3    H252299   3.483   0.610  12.878
  611TIP3   OH252300   3.507   0.679  13.070
  611TIP3    H152301   3.416   0.704  13.088
  611TIP3    H252302   3.551   0.755  13.032
  612TIP3   OH252303   1.936   0.533  13.419
  612TIP3    H152304   2.030   0.501  13.427
  612TIP3    H252305   1.892   0.448  13.441
  613TIP3   OH252306   3.685   0.292  11.885
  613TIP3    H152307   3.729   0.210  11.857
  613TIP3    H252308   3.762   0.344  11.910
  614TIP3   OH252309   1.849   0.133  13.020
  614TIP3    H152310   1.864   0.147  13.115
  614TIP3    H252311   1.879   0.220  12.991
  615TIP3   OH252312   2.132   1.462  13.452
  615TIP3    H152313   2.047   1.496  13.417
  615TIP3    H252314   2.112   1.468  13.548
  616TIP3   OH252315   2.172   1.891  13.092
  616TIP3    H152316   2.100   1.936  13.041
  616TIP3    H252317   2.125   1.882  13.175
  617TIP3   OH252318   2.407   1.840  12.990
  617TIP3    H152319   2.323   1.874  13.031
  617TIP3    H252320   2.419   1.910  12.921
  618TIP3   OH252321   3.384   1.881  13.036
  618TIP3    H152322   3.364   1.975  13.012
  618TIP3    H252323   3.394   1.845  12.947
  619TIP3   OH252324   3.416   0.050  12.599
  619TIP3    H152325   3.495   0.109  12.601
  619TIP3    H252326   3.347   0.103  12.637
  620TIP3   OH252327   3.610   0.166  12.481
  620TIP3    H152328   3.674   0.113  12.434
  620TIP3    H252329   3.652   0.252  12.490
  621TIP3   OH252330   2.053   0.095  12.005
  621TIP3    H152331   2.093   0.156  11.942
  621TIP3    H252332   1.981   0.143  12.049
  622TIP3   OH252333   3.298   0.102  12.100
  622TIP3    H152334   3.235   0.173  12.125
  622TIP3    H252335   3.275   0.034  12.167
  623TIP3   OH252336   2.043   1.680  12.089
  623TIP3    H152337   1.964   1.679  12.033
  623TIP3    H252338   2.036   1.770  12.123
  624TIP3   OH252339   2.226   0.263  11.859
  624TIP3    H152340   2.281   0.221  11.793
  624TIP3    H252341   2.288   0.316  11.911
  625TIP3   OH252342   2.155   0.161  13.382
  625TIP3    H152343   2.124   0.081  13.423
  625TIP3    H252344   2.249   0.160  13.410
  626TIP3   OH252345   2.362   0.097  13.539
  626TIP3    H152346   2.447   0.064  13.509
  626TIP3    H252347   2.321   0.017  13.576
  627TIP3   OH252348   2.221   1.771  11.801
  627TIP3    H152349   2.190   1.800  11.888
  627TIP3    H252350   2.298   1.716  11.817
  628TIP3   OH252351   3.516   1.629  13.417
  628TIP3    H152352   3.432   1.619  13.368
  628TIP3    H252353   3.508   1.724  13.441
  629TIP3   OH252354   4.071   0.931  12.928
  629TIP3    H152355   4.086   0.846  12.982
  629TIP3    H252356   4.163   0.962  12.945
  630TIP3   OH252357   4.169   1.342  12.781
  630TIP3    H152358   4.153   1.264  12.731
  630TIP3    H252359   4.268   1.345  12.784
  631TIP3   OH252360   3.923   0.943  12.540
  631TIP3    H152361   3.932   0.851  12.570
  631TIP3    H252362   3.978   0.939  12.460
  632TIP3   OH252363   4.933   1.748  12.614
  632TIP3    H152364   4.995   1.677  12.592
  632TIP3    H252365   4.907   1.725  12.704
  633TIP3   OH252366   4.488   0.840  12.566
  633TIP3    H152367   4.559   0.786  12.607
  633TIP3    H252368   4.436   0.768  12.523
  634TIP3   OH252369   4.454   1.094  12.989
  634TIP3    H152370   4.389   1.162  13.018
  634TIP3    H252371   4.528   1.155  12.973
  635TIP3   OH252372   4.294   1.291  13.065
  635TIP3    H152373   4.303   1.387  13.048
  635TIP3    H252374   4.216   1.297  13.126
  636TIP3   OH252375   3.921   1.263  12.155
  636TIP3    H152376   3.879   1.290  12.070
  636TIP3    H252377   3.906   1.346  12.206
  637TIP3   OH252378   5.299   0.249  12.972
  637TIP3    H152379   5.229   0.316  12.967
  637TIP3    H252380   5.371   0.293  12.923
  638TIP3   OH252381   4.330   1.033  12.446
  638TIP3    H152382   4.297   0.975  12.377
  638TIP3    H252383   4.392   0.965  12.488
  639TIP3   OH252384   4.462   1.366  12.716
  639TIP3    H152385   4.469   1.311  12.641
  639TIP3    H252386   4.541   1.341  12.768
  640TIP3   OH252387   4.358   0.916  12.815
  640TIP3    H152388   4.426   0.912  12.743
  640TIP3    H252389   4.408   0.969  12.881
  641TIP3   OH252390   4.448   1.333  13.299
  641TIP3    H152391   4.431   1.428  13.324
  641TIP3    H252392   4.396   1.333  13.216
  642TIP3   OH252393   4.159   0.967  13.203
  642TIP3    H152394   4.159   1.029  13.278
  642TIP3    H252395   4.065   0.972  13.184
  643TIP3   OH252396   5.422   0.055  11.997
  643TIP3    H152397   5.342   0.075  12.051
  643TIP3    H252398   5.455   0.145  11.978
  644TIP3   OH252399   5.539   1.497  11.857
  644TIP3    H152400   5.554   1.591  11.868
  644TIP3    H252401   5.628   1.461  11.844
  645TIP3   OH252402   3.855   1.167  13.079
  645TIP3    H152403   3.776   1.173  13.024
  645TIP3    H252404   3.844   1.082  13.128
  646TIP3   OH252405   5.645   1.517  13.361
  646TIP3    H152406   5.624   1.424  13.341
  646TIP3    H252407   5.552   1.545  13.384
  647TIP3   OH252408   4.732   1.475  13.242
  647TIP3    H152409   4.736   1.561  13.286
  647TIP3    H252410   4.642   1.443  13.258
  648TIP3   OH252411   5.088   1.770  11.911
  648TIP3    H152412   5.124   1.688  11.872
  648TIP3    H252413   5.086   1.743  12.005
  649TIP3   OH252414   5.053   1.762  12.193
  649TIP3    H152415   4.958   1.767  12.207
  649TIP3    H252416   5.081   1.688  12.249
  650TIP3   OH252417   4.071   1.297  13.193
  650TIP3    H152418   4.087   1.275  13.286
  650TIP3    H252419   3.980   1.273  13.180
  651TIP3   OH252420   5.119   0.496  13.214
  651TIP3    H152421   5.072   0.496  13.299
  651TIP3    H252422   5.112   0.591  13.191
  652TIP3   OH252423   4.779   0.360  11.871
  652TIP3    H152424   4.721   0.379  11.946
  652TIP3    H252425   4.724   0.291  11.830
  653TIP3   OH252426   4.341   0.647  12.907
  653TIP3    H152427   4.274   0.642  12.978
  653TIP3    H252428   4.342   0.740  12.881
  654TIP3   OH252429   4.342   0.687  12.401
  654TIP3    H152430   4.255   0.643  12.400
  654TIP3    H252431   4.385   0.638  12.329
  655TIP3   OH252432   4.788   0.741  13.442
  655TIP3    H152433   4.745   0.654  13.450
  655TIP3    H252434   4.878   0.725  13.478
  656TIP3   OH252435   4.099   0.684  13.086
  656TIP3    H152436   4.117   0.712  13.178
  656TIP3    H252437   4.060   0.594  13.095
  657TIP3   OH252438   3.891   0.458  12.016
  657TIP3    H152439   3.944   0.520  11.962
  657TIP3    H252440   3.830   0.521  12.059
  658TIP3   OH252441   5.357   1.907  13.462
  658TIP3    H152442   5.385   1.943  13.376
  658TIP3    H252443   5.427   1.940  13.520
  659TIP3   OH252444   4.130   1.145  13.424
  659TIP3    H152445   4.197   1.190  13.476
  659TIP3    H252446   4.049   1.175  13.468
  660TIP3   OH252447   4.597   0.560  12.927
  660TIP3    H152448   4.503   0.578  12.947
  660TIP3    H252449   4.636   0.553  13.016
  661TIP3   OH252450   4.149   1.083  12.688
  661TIP3    H152451   4.224   1.082  12.623
  661TIP3    H252452   4.174   0.997  12.730
  662TIP3   OH252453   3.848   0.931  13.211
  662TIP3    H152454   3.886   0.885  13.289
  662TIP3    H252455   3.803   0.857  13.166
  663TIP3   OH252456   4.557   0.886  13.428
  663TIP3    H152457   4.528   0.858  13.339
  663TIP3    H252458   4.650   0.854  13.423
  664TIP3   OH252459   3.969   0.930  11.867
  664TIP3    H152460   4.032   0.979  11.919
  664TIP3    H252461   3.885   0.945  11.913
  665TIP3   OH252462   4.497   1.213  12.354
  665TIP3    H152463   4.522   1.296  12.398
  665TIP3    H252464   4.477   1.152  12.431
  666TIP3   OH252465   4.623   1.606  12.999
  666TIP3    H152466   4.624   1.701  12.998
  666TIP3    H252467   4.644   1.584  13.092
  667TIP3   OH252468   5.165   1.323  11.888
  667TIP3    H152469   5.194   1.279  11.968
  667TIP3    H252470   5.070   1.306  11.891
  668TIP3   OH252471   5.216   1.680  13.228
  668TIP3    H152472   5.148   1.630  13.179
  668TIP3    H252473   5.236   1.746  13.159
  669TIP3   OH252474   5.606   1.769  11.898
  669TIP3    H152475   5.686   1.820  11.901
  669TIP3    H252476   5.541   1.820  11.950
  670TIP3   OH252477   4.566   1.427  11.736
  670TIP3    H152478   4.598   1.356  11.680
  670TIP3    H252479   4.543   1.389  11.819
  671TIP3   OH252480   4.445   1.379  11.995
  671TIP3    H152481   4.507   1.341  12.055
  671TIP3    H252482   4.470   1.475  11.998
  672TIP3   OH252483   4.135   1.123  12.052
  672TIP3    H152484   4.040   1.143  12.077
  672TIP3    H252485   4.149   1.194  11.987
  673TIP3   OH252486   4.908   0.370  13.051
  673TIP3    H152487   4.957   0.392  13.129
  673TIP3    H252488   4.843   0.301  13.077
  674TIP3   OH252489   4.735   1.557  12.055
  674TIP3    H152490   4.657   1.613  12.053
  674TIP3    H252491   4.787   1.603  11.987
  675TIP3   OH252492   5.359   0.383  13.247
  675TIP3    H152493   5.280   0.442  13.241
  675TIP3    H252494   5.405   0.415  13.166
  676TIP3   OH252495   4.179   1.360  11.929
  676TIP3    H152496   4.225   1.445  11.939
  676TIP3    H252497   4.218   1.333  11.843
  677TIP3   OH252498   3.997   0.638  11.846
  677TIP3    H152499   4.005   0.735  11.844
  677TIP3    H252500   3.916   0.618  11.801
  678TIP3   OH252501   5.333   1.713  12.831
  678TIP3    H152502   5.325   1.772  12.755
  678TIP3    H252503   5.431   1.708  12.841
  679TIP3   OH252504   3.893   1.776  13.456
  679TIP3    H152505   3.965   1.754  13.515
  679TIP3    H252506   3.862   1.690  13.425
  680TIP3   OH252507   5.239   1.604  11.766
  680TIP3    H152508   5.258   1.518  11.811
  680TIP3    H252509   5.318   1.608  11.713
  681TIP3   OH252510   3.884   1.144  13.554
  681TIP3    H152511   3.911   1.063  13.506
  681TIP3    H252512   3.827   1.187  13.487
  682TIP3   OH252513   4.338   1.191  11.765
  682TIP3    H152514   4.339   1.102  11.801
  682TIP3    H252515   4.390   1.178  11.683
  683TIP3   OH252516   4.550   1.145  13.493
  683TIP3    H152517   4.534   1.184  13.403
  683TIP3    H252518   4.582   1.056  13.466
  684TIP3   OH252519   4.868   1.291  11.732
  684TIP3    H152520   4.836   1.310  11.820
  684TIP3    H252521   4.847   1.199  11.715
  685TIP3   OH252522   3.979   0.874  13.486
  685TIP3    H152523   4.025   0.790  13.468
  685TIP3    H252524   3.963   0.871  13.580
  686TIP3   OH252525   4.373   0.776  13.227
  686TIP3    H152526   4.310   0.847  13.243
  686TIP3    H252527   4.412   0.805  13.143
  687TIP3   OH252528   4.612   0.895  13.106
  687TIP3    H152529   4.686   0.882  13.046
  687TIP3    H252530   4.573   0.977  13.072
  688TIP3   OH252531   5.048   0.666  13.600
  688TIP3    H152532   5.075   0.575  13.596
  688TIP3    H252533   5.133   0.713  13.604
  689TIP3   OH252534   4.934   0.426  13.388
  689TIP3    H152535   4.835   0.445  13.389
  689TIP3    H252536   4.948   0.383  13.471
  690TIP3   OH252537   5.083   0.294  13.579
  690TIP3    H152538   5.085   0.199  13.604
  690TIP3    H252539   5.061   0.332  13.667
  691TIP3   OH252540   3.896   1.330  11.865
  691TIP3    H152541   3.987   1.357  11.886
  691TIP3    H252542   3.911   1.274  11.791
  692TIP3   OH252543   5.600   1.772  12.845
  692TIP3    H152544   5.610   1.788  12.940
  692TIP3    H252545   5.676   1.825  12.813
  693TIP3   OH252546   5.561   1.729  13.144
  693TIP3    H152547   5.516   1.652  13.101
  693TIP3    H252548   5.616   1.683  13.208
  694TIP3   OH252549   5.405   1.504  13.062
  694TIP3    H152550   5.335   1.532  13.122
  694TIP3    H252551   5.352   1.460  12.994
  695TIP3   OH252552   3.833   0.945  12.779
  695TIP3    H152553   3.858   0.957  12.684
  695TIP3    H252554   3.916   0.908  12.821
  696TIP3   OH252555   5.363   0.373  11.733
  696TIP3    H152556   5.427   0.362  11.806
  696TIP3    H252557   5.277   0.357  11.772
  697TIP3   OH252558   3.814   0.534  13.426
  697TIP3    H152559   3.908   0.511  13.424
  697TIP3    H252560   3.773   0.445  13.432
  698TIP3   OH252561   5.645   0.085  13.598
  698TIP3    H152562   5.640   0.011  13.535
  698TIP3    H252563   5.619   0.159  13.544
  699TIP3   OH252564   5.580   0.287  13.425
  699TIP3    H152565   5.485   0.318  13.429
  699TIP3    H252566   5.569   0.227  13.348
  700TIP3   OH252567   5.573   0.275  11.896
  700TIP3    H152568   5.628   0.211  11.848
  700TIP3    H252569   5.636   0.352  11.900
  701TIP3   OH252570   5.280   1.780  12.403
  701TIP3    H152571   5.350   1.746  12.345
  701TIP3    H252572   5.331   1.825  12.471
  702TIP3   OH252573   4.019   1.464  13.459
  702TIP3    H152574   3.939   1.491  13.412
  702TIP3    H252575   3.992   1.465  13.550
  703TIP3   OH252576   4.976   1.843  13.303
  703TIP3    H152577   5.043   1.775  13.284
  703TIP3    H252578   5.009   1.879  13.388
  704TIP3   OH252579   5.471   0.099  13.214
  704TIP3    H152580   5.392   0.129  13.168
  704TIP3    H252581   5.495   0.016  13.165
  705TIP3   OH252582   4.779   1.848  12.908
  705TIP3    H152583   4.723   1.896  12.848
  705TIP3    H252584   4.787   1.907  12.986
  706TIP3   OH252585   5.008   1.729  13.007
  706TIP3    H152586   4.918   1.747  12.975
  706TIP3    H252587   5.050   1.814  13.001
  707TIP3   OH252588   5.262   1.880  13.033
  707TIP3    H152589   5.251   1.974  13.012
  707TIP3    H252590   5.284   1.842  12.945
  708TIP3   OH252591   5.315   0.053  12.597
  708TIP3    H152592   5.386   0.117  12.602
  708TIP3    H252593   5.233   0.097  12.625
  709TIP3   OH252594   5.049   0.100  12.572
  709TIP3    H152595   5.073   0.110  12.479
  709TIP3    H252596   5.034   0.006  12.585
  710TIP3   OH252597   5.191   0.097  12.124
  710TIP3    H152598   5.128   0.171  12.128
  710TIP3    H252599   5.146   0.022  12.164
  711TIP3   OH252600   5.481   1.756  12.208
  711TIP3    H152601   5.459   1.682  12.150
  711TIP3    H252602   5.469   1.830  12.148
  712TIP3   OH252603   5.095   0.040  13.548
  712TIP3    H152604   5.086  -0.020  13.627
  712TIP3    H252605   5.183   0.007  13.524
  713TIP3   OH252606   5.408   1.636  13.420
  713TIP3    H152607   5.328   1.615  13.367
  713TIP3    H252608   5.387   1.730  13.439
  714TIP3   OH252609   6.819   1.760  12.615
  714TIP3    H152610   6.873   1.682  12.591
  714TIP3    H252611   6.790   1.729  12.702
  715TIP3   OH252612   6.889   0.633  12.840
  715TIP3    H152613   6.894   0.536  12.844
  715TIP3    H252614   6.877   0.649  12.746
  716TIP3   OH252615   6.195   0.455  12.556
  716TIP3    H152616   6.199   0.537  12.508
  716TIP3    H252617   6.147   0.393  12.496
  717TIP3   OH252618   6.978   0.449  12.401
  717TIP3    H152619   7.042   0.426  12.469
  717TIP3    H252620   7.028   0.511  12.345
  718TIP3   OH252621   5.874   0.692  12.638
  718TIP3    H152622   5.925   0.624  12.687
  718TIP3    H252623   5.870   0.648  12.552
  719TIP3   OH252624   7.488   0.507  13.113
  719TIP3    H152625   7.408   0.561  13.101
  719TIP3    H252626   7.478   0.475  13.204
  720TIP3   OH252627   6.072   0.365  12.975
  720TIP3    H152628   6.040   0.407  12.894
  720TIP3    H252629   6.000   0.370  13.039
  721TIP3   OH252630   7.160   0.372  12.600
  721TIP3    H152631   7.128   0.318  12.669
  721TIP3    H252632   7.215   0.436  12.651
  722TIP3   OH252633   6.043   0.520  12.761
  722TIP3    H152634   6.102   0.581  12.810
  722TIP3    H252635   6.103   0.478  12.696
  723TIP3   OH252636   6.179   1.295  13.068
  723TIP3    H152637   6.180   1.389  13.047
  723TIP3    H252638   6.100   1.285  13.124
  724TIP3   OH252639   7.184   0.249  12.956
  724TIP3    H152640   7.119   0.319  12.970
  724TIP3    H252641   7.262   0.298  12.928
  725TIP3   OH252642   6.540   0.065  12.840
  725TIP3    H152643   6.506  -0.004  12.787
  725TIP3    H252644   6.463   0.117  12.799
  726TIP3   OH252645   6.985   1.606  12.492
  726TIP3    H152646   7.022   1.534  12.442
  726TIP3    H252647   7.025   1.685  12.452
  727TIP3   OH252648   7.269   1.251  13.193
  727TIP3    H152649   7.270   1.189  13.117
  727TIP3    H252650   7.275   1.337  13.147
  728TIP3   OH252651   7.457   0.884  12.991
  728TIP3    H152652   7.385   0.951  13.004
  728TIP3    H252653   7.490   0.918  12.906
  729TIP3   OH252654   7.051   0.779  13.173
  729TIP3    H152655   7.051   0.857  13.230
  729TIP3    H252656   6.984   0.808  13.106
  730TIP3   OH252657   6.030   0.980  13.198
  730TIP3    H152658   6.047   1.029  13.279
  730TIP3    H252659   5.937   0.972  13.184
  731TIP3   OH252660   6.160   1.563  13.364
  731TIP3    H152661   6.174   1.537  13.270
  731TIP3    H252662   6.073   1.525  13.378
  732TIP3   OH252663   7.308   0.056  12.003
  732TIP3    H152664   7.223   0.074  12.050
  732TIP3    H252665   7.338   0.146  11.980
  733TIP3   OH252666   7.430   1.483  11.865
  733TIP3    H152667   7.432   1.582  11.869
  733TIP3    H252668   7.525   1.470  11.844
  734TIP3   OH252669   5.731   1.174  13.094
  734TIP3    H152670   5.676   1.168  13.015
  734TIP3    H252671   5.724   1.081  13.125
  735TIP3   OH252672   5.701   1.452  12.776
  735TIP3    H152673   5.796   1.438  12.777
  735TIP3    H252674   5.690   1.530  12.832
  736TIP3   OH252675   7.524   1.515  13.355
  736TIP3    H152676   7.506   1.422  13.343
  736TIP3    H252677   7.435   1.547  13.386
  737TIP3   OH252678   6.651   1.845  12.262
  737TIP3    H152679   6.594   1.803  12.194
  737TIP3    H252680   6.642   1.944  12.270
  738TIP3   OH252681   6.028   1.729  12.396
  738TIP3    H152682   6.043   1.697  12.487
  738TIP3    H252683   5.941   1.693  12.378
  739TIP3   OH252684   6.957   1.770  11.919
  739TIP3    H152685   7.010   1.702  11.866
  739TIP3    H252686   6.979   1.733  12.006
  740TIP3   OH252687   6.928   1.771  12.191
  740TIP3    H152688   6.842   1.755  12.228
  740TIP3    H252689   6.969   1.694  12.238
  741TIP3   OH252690   7.243   0.663  13.397
  741TIP3    H152691   7.195   0.710  13.327
  741TIP3    H252692   7.238   0.572  13.365
  742TIP3   OH252693   5.948   1.319  13.209
  742TIP3    H152694   5.980   1.260  13.282
  742TIP3    H252695   5.870   1.268  13.176
  743TIP3   OH252696   6.179   0.146  12.743
  743TIP3    H152697   6.087   0.130  12.767
  743TIP3    H252698   6.201   0.213  12.806
  744TIP3   OH252699   6.701   0.162  13.133
  744TIP3    H152700   6.740   0.095  13.189
  744TIP3    H252701   6.606   0.136  13.127
  745TIP3   OH252702   7.015   0.500  13.219
  745TIP3    H152703   6.953   0.486  13.295
  745TIP3    H252704   6.993   0.592  13.195
  746TIP3   OH252705   7.095   0.981  11.798
  746TIP3    H152706   7.085   0.968  11.704
  746TIP3    H252707   7.176   1.030  11.810
  747TIP3   OH252708   5.987   0.676  13.080
  747TIP3    H152709   6.004   0.720  13.165
  747TIP3    H252710   5.948   0.594  13.107
  748TIP3   OH252711   6.340   0.399  11.775
  748TIP3    H152712   6.282   0.398  11.848
  748TIP3    H252713   6.276   0.455  11.722
  749TIP3   OH252714   5.705   0.499  11.941
  749TIP3    H152715   5.801   0.523  11.926
  749TIP3    H252716   5.703   0.516  12.036
  750TIP3   OH252717   6.821   0.810  13.031
  750TIP3    H152718   6.834   0.748  12.957
  750TIP3    H252719   6.751   0.770  13.087
  751TIP3   OH252720   6.482   0.454  12.528
  751TIP3    H152721   6.391   0.419  12.540
  751TIP3    H252722   6.533   0.406  12.595
  752TIP3   OH252723   5.957   0.573  12.397
  752TIP3    H152724   5.876   0.584  12.346
  752TIP3    H252725   5.991   0.493  12.355
  753TIP3   OH252726   6.332   0.578  12.155
  753TIP3    H152727   6.425   0.598  12.174
  753TIP3    H252728   6.311   0.652  12.093
  754TIP3   OH252729   6.924   0.325  12.823
  754TIP3    H152730   6.859   0.349  12.898
  754TIP3    H252731   6.862   0.325  12.748
  755TIP3   OH252732   6.198   0.691  11.912
  755TIP3    H152733   6.143   0.654  11.839
  755TIP3    H252734   6.279   0.720  11.867
  756TIP3   OH252735   7.239   1.908  13.466
  756TIP3    H152736   7.270   1.940  13.378
  756TIP3    H252737   7.313   1.940  13.519
  757TIP3   OH252738   6.011   1.165  13.415
  757TIP3    H152739   6.086   1.171  13.475
  757TIP3    H252740   5.935   1.161  13.475
  758TIP3   OH252741   6.115   0.318  12.343
  758TIP3    H152742   6.080   0.227  12.337
  758TIP3    H252743   6.187   0.311  12.277
  759TIP3   OH252744   6.499   0.567  12.914
  759TIP3    H152745   6.405   0.567  12.950
  759TIP3    H252746   6.530   0.555  13.006
  760TIP3   OH252747   7.257   1.059  12.979
  760TIP3    H152748   7.305   1.122  12.923
  760TIP3    H252749   7.166   1.082  12.946
  761TIP3   OH252750   7.484   0.635  12.058
  761TIP3    H152751   7.417   0.608  11.995
  761TIP3    H252752   7.485   0.731  12.041
  762TIP3   OH252753   7.479   1.223  13.344
  762TIP3    H152754   7.390   1.242  13.301
  762TIP3    H252755   7.532   1.216  13.261
  763TIP3   OH252756   7.332   1.495  12.106
  763TIP3    H152757   7.255   1.442  12.132
  763TIP3    H252758   7.324   1.512  12.009
  764TIP3   OH252759   6.468   1.617  13.015
  764TIP3    H152760   6.511   1.700  12.987
  764TIP3    H252761   6.533   1.585  13.080
  765TIP3   OH252762   7.055   1.318  11.893
  765TIP3    H152763   7.076   1.275  11.975
  765TIP3    H252764   6.957   1.312  11.894
  766TIP3   OH252765   7.090   1.683  13.233
  766TIP3    H152766   7.036   1.624  13.174
  766TIP3    H252767   7.119   1.746  13.163
  767TIP3   OH252768   7.499   1.763  11.904
  767TIP3    H152769   7.571   1.828  11.898
  767TIP3    H252770   7.427   1.822  11.940
  768TIP3   OH252771   5.901   0.412  13.165
  768TIP3    H152772   5.811   0.445  13.152
  768TIP3    H252773   5.892   0.321  13.200
  769TIP3   OH252774   5.870   1.582  13.007
  769TIP3    H152775   5.895   1.490  13.013
  769TIP3    H252776   5.898   1.613  13.093
  770TIP3   OH252777   6.454   1.427  11.735
  770TIP3    H152778   6.481   1.351  11.681
  770TIP3    H252779   6.429   1.386  11.818
  771TIP3   OH252780   6.793   0.381  13.045
  771TIP3    H152781   6.846   0.393  13.125
  771TIP3    H252782   6.739   0.304  13.076
  772TIP3   OH252783   6.876   0.329  12.160
  772TIP3    H152784   6.876   0.397  12.092
  772TIP3    H252785   6.907   0.383  12.237
  773TIP3   OH252786   6.585   0.562  12.253
  773TIP3    H152787   6.680   0.571  12.256
  773TIP3    H252788   6.563   0.518  12.337
  774TIP3   OH252789   6.755   0.310  12.395
  774TIP3    H152790   6.661   0.301  12.413
  774TIP3    H252791   6.753   0.290  12.299
  775TIP3   OH252792   6.229   0.397  12.031
  775TIP3    H152793   6.233   0.485  12.076
  775TIP3    H252794   6.320   0.371  12.057
  776TIP3   OH252795   7.254   0.404  13.257
  776TIP3    H152796   7.159   0.432  13.245
  776TIP3    H252797   7.283   0.399  13.165
  777TIP3   OH252798   7.114   0.776  12.656
  777TIP3    H152799   7.029   0.740  12.631
  777TIP3    H252800   7.160   0.710  12.711
  778TIP3   OH252801   5.888   0.644  11.848
  778TIP3    H152802   5.886   0.740  11.841
  778TIP3    H252803   5.808   0.618  11.797
  779TIP3   OH252804   7.220   1.716  12.829
  779TIP3    H152805   7.209   1.774  12.754
  779TIP3    H252806   7.317   1.713  12.842
  780TIP3   OH252807   5.891   0.146  12.816
  780TIP3    H152808   5.887   0.142  12.717
  780TIP3    H252809   5.913   0.049  12.804
  781TIP3   OH252810   5.863   1.518  12.321
  781TIP3    H152811   5.777   1.559  12.315
  781TIP3    H252812   5.914   1.558  12.249
  782TIP3   OH252813   5.775   1.776  13.429
  782TIP3    H152814   5.826   1.788  13.503
  782TIP3    H252815   5.734   1.687  13.416
  783TIP3   OH252816   6.246   1.663  13.610
  783TIP3    H152817   6.326   1.618  13.642
  783TIP3    H252818   6.249   1.641  13.514
  784TIP3   OH252819   6.658   1.611  11.734
  784TIP3    H152820   6.598   1.547  11.777
  784TIP3    H252821   6.738   1.558  11.721
  785TIP3   OH252822   7.124   1.602  11.787
  785TIP3    H152823   7.144   1.511  11.810
  785TIP3    H252824   7.185   1.622  11.716
  786TIP3   OH252825   5.782   1.160  13.540
  786TIP3    H152826   5.793   1.065  13.515
  786TIP3    H252827   5.699   1.171  13.491
  787TIP3   OH252828   7.378   1.049  11.754
  787TIP3    H152829   7.349   1.004  11.674
  787TIP3    H252830   7.375   1.141  11.727
  788TIP3   OH252831   6.306   0.463  13.024
  788TIP3    H152832   6.395   0.413  13.013
  788TIP3    H252833   6.259   0.378  13.041
  789TIP3   OH252834   6.937   0.666  13.618
  789TIP3    H152835   6.958   0.578  13.589
  789TIP3    H252836   7.020   0.715  13.603
  790TIP3   OH252837   7.071   0.948  13.414
  790TIP3    H152838   7.042   1.022  13.361
  790TIP3    H252839   7.168   0.949  13.399
  791TIP3   OH252840   6.141   0.629  13.526
  791TIP3    H152841   6.070   0.580  13.485
  791TIP3    H252842   6.209   0.610  13.458
  792TIP3   OH252843   6.461   0.090  13.123
  792TIP3    H152844   6.438   0.187  13.115
  792TIP3    H252845   6.388   0.050  13.071
  793TIP3   OH252846   6.820   0.440  13.396
  793TIP3    H152847   6.721   0.445  13.394
  793TIP3    H252848   6.841   0.369  13.456
  794TIP3   OH252849   6.976   0.301  13.587
  794TIP3    H152850   6.973   0.203  13.579
  794TIP3    H252851   6.949   0.340  13.672
  795TIP3   OH252852   5.960   0.431  13.498
  795TIP3    H152853   6.001   0.374  13.427
  795TIP3    H252854   5.969   0.394  13.587
  796TIP3   OH252855   6.412   0.013  13.363
  796TIP3    H152856   6.505  -0.021  13.375
  796TIP3    H252857   6.438   0.047  13.273
  797TIP3   OH252858   6.473   0.162  13.601
  797TIP3    H152859   6.478   0.147  13.505
  797TIP3    H252860   6.439   0.257  13.592
  798TIP3   OH252861   6.422   1.891  11.917
  798TIP3    H152862   6.518   1.883  11.915
  798TIP3    H252863   6.411   1.945  11.841
  799TIP3   OH252864   5.732   1.690  12.546
  799TIP3    H152865   5.704   1.600  12.565
  799TIP3    H252866   5.764   1.721  12.633
  800TIP3   OH252867   7.490   1.779  12.844
  800TIP3    H152868   7.497   1.786  12.940
  800TIP3    H252869   7.567   1.831  12.815
  801TIP3   OH252870   7.448   1.730  13.137
  801TIP3    H152871   7.401   1.651  13.102
  801TIP3    H252872   7.503   1.689  13.205
  802TIP3   OH252873   7.425   1.121  12.162
  802TIP3    H152874   7.512   1.149  12.199
  802TIP3    H252875   7.411   1.045  12.226
  803TIP3   OH252876   7.460   0.941  12.336
  803TIP3    H152877   7.386   0.889  12.376
  803TIP3    H252878   7.515   0.957  12.415
  804TIP3   OH252879   7.447   1.209  12.841
  804TIP3    H152880   7.524   1.180  12.794
  804TIP3    H252881   7.454   1.306  12.823
  805TIP3   OH252882   7.292   1.501  13.062
  805TIP3    H152883   7.221   1.535  13.118
  805TIP3    H252884   7.235   1.462  12.992
  806TIP3   OH252885   7.502   0.935  11.976
  806TIP3    H152886   7.437   0.959  11.906
  806TIP3    H252887   7.472   0.986  12.051
  807TIP3   OH252888   7.351   0.639  11.813
  807TIP3    H152889   7.321   0.723  11.773
  807TIP3    H252890   7.293   0.568  11.789
  808TIP3   OH252891   7.253   0.788  12.399
  808TIP3    H152892   7.222   0.697  12.388
  808TIP3    H252893   7.203   0.818  12.477
  809TIP3   OH252894   5.745   1.004  12.790
  809TIP3    H152895   5.766   0.982  12.699
  809TIP3    H252896   5.826   0.981  12.838
  810TIP3   OH252897   7.327   0.988  13.375
  810TIP3    H152898   7.389   0.910  13.373
  810TIP3    H252899   7.387   1.062  13.356
  811TIP3   OH252900   7.482   0.781  13.421
  811TIP3    H152901   7.393   0.739  13.410
  811TIP3    H252902   7.536   0.700  13.423
  812TIP3   OH252903   7.248   0.387  11.724
  812TIP3    H152904   7.312   0.360  11.800
  812TIP3    H252905   7.168   0.362  11.774
  813TIP3   OH252906   7.213   0.546  12.245
  813TIP3    H152907   7.244   0.454  12.248
  813TIP3    H252908   7.286   0.590  12.200
  814TIP3   OH252909   7.275   0.600  12.785
  814TIP3    H152910   7.369   0.624  12.783
  814TIP3    H252911   7.252   0.615  12.879
  815TIP3   OH252912   7.277   0.678  13.061
  815TIP3    H152913   7.189   0.706  13.095
  815TIP3    H252914   7.319   0.764  13.041
  816TIP3   OH252915   7.278   0.268  12.240
  816TIP3    H152916   7.294   0.234  12.330
  816TIP3    H252917   7.209   0.216  12.198
  817TIP3   OH252918   5.794   0.397  12.736
  817TIP3    H152919   5.829   0.306  12.739
  817TIP3    H252920   5.876   0.449  12.745
  818TIP3   OH252921   7.470   0.295  11.871
  818TIP3    H152922   7.497   0.201  11.863
  818TIP3    H252923   7.524   0.349  11.933
  819TIP3   OH252924   5.668   0.355  12.239
  819TIP3    H152925   5.593   0.302  12.211
  819TIP3    H252926   5.729   0.339  12.168
  820TIP3   OH252927   7.165   1.775  12.403
  820TIP3    H152928   7.234   1.749  12.339
  820TIP3    H252929   7.216   1.827  12.466
  821TIP3   OH252930   5.685   0.173  13.059
  821TIP3    H152931   5.615   0.123  13.102
  821TIP3    H252932   5.645   0.213  12.981
  822TIP3   OH252933   5.898   1.505  13.479
  822TIP3    H152934   5.829   1.480  13.410
  822TIP3    H252935   5.874   1.437  13.545
  823TIP3   OH252936   6.200   1.566  13.081
  823TIP3    H152937   6.163   1.653  13.061
  823TIP3    H252938   6.293   1.579  13.055
  824TIP3   OH252939   6.643   1.736  13.413
  824TIP3    H152940   6.647   1.647  13.449
  824TIP3    H252941   6.715   1.734  13.342
  825TIP3   OH252942   6.858   1.833  13.317
  825TIP3    H152943   6.931   1.783  13.275
  825TIP3    H252944   6.908   1.882  13.383
  826TIP3   OH252945   5.934   1.878  13.090
  826TIP3    H152946   5.880   1.946  13.044
  826TIP3    H252947   5.905   1.882  13.179
  827TIP3   OH252948   6.656   1.839  12.914
  827TIP3    H152949   6.615   1.894  12.844
  827TIP3    H252950   6.675   1.907  12.982
  828TIP3   OH252951   6.886   1.737  13.020
  828TIP3    H152952   6.803   1.745  12.970
  828TIP3    H252953   6.935   1.816  12.996
  829TIP3   OH252954   7.143   1.887  13.038
  829TIP3    H152955   7.141   1.981  13.012
  829TIP3    H252956   7.167   1.846  12.952
  830TIP3   OH252957   5.877   1.751  12.779
  830TIP3    H152958   5.880   1.715  12.869
  830TIP3    H252959   5.966   1.729  12.741
  831TIP3   OH252960   6.088   1.633  12.654
  831TIP3    H152961   6.076   1.537  12.661
  831TIP3    H252962   6.180   1.647  12.687
  832TIP3   OH252963   6.346   1.676  12.736
  832TIP3    H152964   6.377   1.592  12.701
  832TIP3    H252965   6.362   1.669  12.831
  833TIP3   OH252966   6.716   0.266  12.671
  833TIP3    H152967   6.637   0.209  12.682
  833TIP3    H252968   6.759   0.220  12.596
  834TIP3   OH252969   7.253   0.057  12.600
  834TIP3    H152970   7.328   0.118  12.583
  834TIP3    H252971   7.209   0.130  12.639
  835TIP3   OH252972   7.394   0.185  12.458
  835TIP3    H152973   7.461   0.120  12.439
  835TIP3    H252974   7.440   0.268  12.487
  836TIP3   OH252975   5.796   0.163  12.369
  836TIP3    H152976   5.777   0.072  12.396
  836TIP3    H252977   5.883   0.113  12.351
  837TIP3   OH252978   5.773   0.089  11.897
  837TIP3    H152979   5.855   0.136  11.920
  837TIP3    H252980   5.740   0.095  11.990
  838TIP3   OH252981   6.302   0.057  12.352
  838TIP3    H152982   6.391   0.102  12.347
  838TIP3    H252983   6.331   0.034  12.442
  839TIP3   OH252984   6.897   0.139  12.548
  839TIP3    H152985   6.935   0.133  12.457
  839TIP3    H252986   6.867   0.043  12.558
  840TIP3   OH252987   7.068   0.102  12.109
  840TIP3    H152988   7.006   0.175  12.131
  840TIP3    H252989   7.041   0.029  12.166
  841TIP3   OH252990   5.817   1.690  12.086
  841TIP3    H152991   5.736   1.672  12.037
  841TIP3    H252992   5.800   1.770  12.134
  842TIP3   OH252993   6.018   0.255  11.886
  842TIP3    H152994   6.019   0.252  11.786
  842TIP3    H252995   6.057   0.343  11.900
  843TIP3   OH252996   6.587   0.326  12.045
  843TIP3    H152997   6.556   0.255  12.104
  843TIP3    H252998   6.534   0.397  12.089
  844TIP3   OH252999   6.691   1.801  11.889
  844TIP3    H153000   6.789   1.804  11.877
  844TIP3    H253001   6.671   1.732  11.819
  845TIP3   OH253002   7.368   1.756  12.207
  845TIP3    H153003   7.342   1.683  12.149
  845TIP3    H253004   7.354   1.834  12.149
  846TIP3   OH253005   5.893   0.244  13.340
  846TIP3    H153006   5.853   0.156  13.364
  846TIP3    H253007   5.981   0.202  13.361
  847TIP3   OH253008   6.161   0.117  13.533
  847TIP3    H153009   6.237   0.051  13.543
  847TIP3    H253010   6.104   0.059  13.589
  848TIP3   OH253011   6.003   1.800  11.805
  848TIP3    H153012   5.955   1.786  11.889
  848TIP3    H253013   6.056   1.716  11.811
  849TIP3   OH253014   6.975   0.041  13.574
  849TIP3    H153015   6.985  -0.038  13.628
  849TIP3    H253016   7.051   0.021  13.514
  850TIP3   OH253017   7.285   1.624  13.421
  850TIP3    H153018   7.207   1.615  13.363
  850TIP3    H253019   7.277   1.719  13.443
  851TIP3   OH253020   7.885   0.933  12.934
  851TIP3    H153021   7.894   0.877  13.015
  851TIP3    H253022   7.957   0.996  12.962
  852TIP3   OH253023   7.920   1.306  12.809
  852TIP3    H153024   7.914   1.241  12.739
  852TIP3    H253025   8.012   1.342  12.795
  853TIP3   OH253026   7.599   0.707  12.332
  853TIP3    H153027   7.558   0.794  12.317
  853TIP3    H253028   7.557   0.654  12.263
  854TIP3   OH253029   7.660   0.919  12.559
  854TIP3    H153030   7.704   0.836  12.582
  854TIP3    H253031   7.721   0.941  12.484
  855TIP3   OH253032   7.722   0.682  12.646
  855TIP3    H153033   7.800   0.628  12.673
  855TIP3    H253034   7.739   0.660  12.552
  856TIP3   OH253035   8.029   1.331  13.105
  856TIP3    H153036   8.040   1.397  13.033
  856TIP3    H253037   7.940   1.299  13.105
  857TIP3   OH253038   7.633   1.282  12.166
  857TIP3    H153039   7.690   1.291  12.082
  857TIP3    H253040   7.694   1.343  12.212
  858TIP3   OH253041   8.115   1.054  12.463
  858TIP3    H153042   8.080   1.011  12.380
  858TIP3    H253043   8.164   0.972  12.482
  859TIP3   OH253044   7.904   0.944  13.217
  859TIP3    H153045   7.929   1.019  13.277
  859TIP3    H253046   7.822   0.982  13.186
  860TIP3   OH253047   8.103   1.619  13.398
  860TIP3    H153048   8.100   1.584  13.301
  860TIP3    H253049   8.024   1.561  13.409
  861TIP3   OH253050   8.048   0.922  12.254
  861TIP3    H153051   8.010   0.988  12.191
  861TIP3    H253052   7.973   0.859  12.246
  862TIP3   OH253053   7.582   1.171  13.098
  862TIP3    H153054   7.557   1.167  13.005
  862TIP3    H253055   7.613   1.081  13.122
  863TIP3   OH253056   7.590   1.446  12.784
  863TIP3    H153057   7.687   1.441  12.779
  863TIP3    H253058   7.578   1.527  12.834
  864TIP3   OH253059   7.917   1.745  12.392
  864TIP3    H153060   7.924   1.701  12.481
  864TIP3    H253061   7.834   1.694  12.369
  865TIP3   OH253062   7.814   1.229  13.178
  865TIP3    H153063   7.848   1.259  13.265
  865TIP3    H253064   7.724   1.266  13.175
  866TIP3   OH253065   8.096   0.650  12.912
  866TIP3    H153066   8.045   0.642  12.991
  866TIP3    H253067   8.111   0.743  12.896
  867TIP3   OH253068   8.018   0.627  12.261
  867TIP3    H153069   8.003   0.625  12.356
  867TIP3    H253070   8.116   0.630  12.277
  868TIP3   OH253071   7.862   0.683  13.079
  868TIP3    H153072   7.891   0.716  13.169
  868TIP3    H253073   7.843   0.590  13.107
  869TIP3   OH253074   7.537   0.395  12.481
  869TIP3    H153075   7.603   0.385  12.550
  869TIP3    H253076   7.586   0.364  12.403
  870TIP3   OH253077   7.666   0.455  11.995
  870TIP3    H153078   7.727   0.531  11.977
  870TIP3    H253079   7.606   0.510  12.054
  871TIP3   OH253080   8.083   0.660  11.903
  871TIP3    H153081   8.021   0.664  11.832
  871TIP3    H253082   8.153   0.723  11.878
  872TIP3   OH253083   7.875   1.130  13.411
  872TIP3    H153084   7.956   1.162  13.461
  872TIP3    H253085   7.814   1.162  13.476
  873TIP3   OH253086   7.923   1.094  12.691
  873TIP3    H153087   7.996   1.090  12.624
  873TIP3    H253088   7.926   1.017  12.748
  874TIP3   OH253089   7.633   0.921  13.202
  874TIP3    H153090   7.648   0.891  13.295
  874TIP3    H253091   7.557   0.866  13.175
  875TIP3   OH253092   7.735   0.929  11.858
  875TIP3    H153093   7.804   0.978  11.909
  875TIP3    H253094   7.652   0.948  11.903
  876TIP3   OH253095   7.793   0.409  13.186
  876TIP3    H153096   7.704   0.430  13.154
  876TIP3    H253097   7.782   0.312  13.197
  877TIP3   OH253098   7.733   1.578  13.022
  877TIP3    H153099   7.792   1.503  13.000
  877TIP3    H253100   7.786   1.612  13.095
  878TIP3   OH253101   7.855   1.141  11.975
  878TIP3    H153102   7.827   1.146  12.069
  878TIP3    H253103   7.940   1.186  11.992
  879TIP3   OH253104   7.994   1.433  11.857
  879TIP3    H153105   7.997   1.426  11.954
  879TIP3    H253106   7.999   1.332  11.844
  880TIP3   OH253107   7.772   0.633  11.818
  880TIP3    H153108   7.782   0.726  11.852
  880TIP3    H253109   7.679   0.632  11.805
  881TIP3   OH253110   7.731   1.592  12.320
  881TIP3    H153111   7.642   1.570  12.296
  881TIP3    H253112   7.788   1.565  12.244
  882TIP3   OH253113   7.678   1.778  13.442
  882TIP3    H153114   7.725   1.752  13.521
  882TIP3    H253115   7.628   1.696  13.426
  883TIP3   OH253116   7.649   1.154  13.557
  883TIP3    H153117   7.684   1.069  13.516
  883TIP3    H253118   7.592   1.179  13.481
  884TIP3   OH253119   8.035   1.194  11.783
  884TIP3    H153120   8.082   1.116  11.820
  884TIP3    H253121   8.117   1.206  11.725
  885TIP3   OH253122   7.744   0.878  13.481
  885TIP3    H153123   7.795   0.797  13.472
  885TIP3    H253124   7.729   0.874  13.578
  886TIP3   OH253125   8.029   0.624  13.537
  886TIP3    H153126   7.947   0.585  13.504
  886TIP3    H253127   8.088   0.616  13.459
  887TIP3   OH253128   7.653   1.335  11.857
  887TIP3    H153129   7.747   1.350  11.893
  887TIP3    H253130   7.681   1.272  11.790
  888TIP3   OH253131   7.621   1.696  12.553
  888TIP3    H153132   7.596   1.605  12.568
  888TIP3    H253133   7.650   1.724  12.641
  889TIP3   OH253134   7.642   0.973  12.808
  889TIP3    H153135   7.639   0.994  12.708
  889TIP3    H253136   7.724   1.017  12.832
  890TIP3   OH253137   7.591   0.530  13.412
  890TIP3    H153138   7.684   0.510  13.430
  890TIP3    H253139   7.545   0.452  13.443
  891TIP3   OH253140   7.553   0.655  12.821
  891TIP3    H153141   7.584   0.629  12.729
  891TIP3    H253142   7.549   0.749  12.815
  892TIP3   OH253143   7.748   1.524  13.504
  892TIP3    H153144   7.703   1.493  13.422
  892TIP3    H253145   7.749   1.451  13.564
  893TIP3   OH253146   8.111   1.621  13.144
  893TIP3    H153147   8.047   1.646  13.073
  893TIP3    H253148   8.170   1.576  13.076
  894TIP3   OH253149   7.824   1.894  13.083
  894TIP3    H153150   7.753   1.946  13.042
  894TIP3    H253151   7.789   1.875  13.171
  895TIP3   OH253152   8.070   1.862  13.007
  895TIP3    H153153   7.976   1.860  13.033
  895TIP3    H253154   8.068   1.899  12.917
  896TIP3   OH253155   7.761   1.759  12.784
  896TIP3    H153156   7.768   1.710  12.868
  896TIP3    H253157   7.846   1.726  12.745
  897TIP3   OH253158   7.927   1.629  12.634
  897TIP3    H153159   7.947   1.538  12.661
  897TIP3    H253160   8.013   1.654  12.684
  898TIP3   OH253161   7.703   1.690  12.077
  898TIP3    H153162   7.618   1.681  12.032
  898TIP3    H253163   7.686   1.771  12.126
  899TIP3   OH253164   7.893   0.264  11.853
  899TIP3    H153165   7.954   0.207  11.802
  899TIP3    H253166   7.956   0.307  11.918
  900TIP3   OH253167   7.897   1.791  11.794
  900TIP3    H153168   7.834   1.795  11.874
  900TIP3    H253169   7.932   1.702  11.816
  901TIP3   OH253170   1.195   2.908  12.409
  901TIP3    H153171   1.189   3.005  12.417
  901TIP3    H253172   1.113   2.882  12.364
  902TIP3   OH253173   1.089   2.825  12.763
  902TIP3    H153174   1.061   2.767  12.835
  902TIP3    H253175   1.039   2.790  12.687
  903TIP3   OH253176   1.448   3.122  12.593
  903TIP3    H153177   1.403   3.055  12.642
  903TIP3    H253178   1.450   3.196  12.654
  904TIP3   OH253179   0.403   3.247  12.772
  904TIP3    H153180   0.368   3.156  12.755
  904TIP3    H253181   0.498   3.223  12.779
  905TIP3   OH253182   0.918   3.076  12.808
  905TIP3    H153183   0.943   3.007  12.745
  905TIP3    H253184   0.995   3.090  12.864
  906TIP3   OH253185   1.773   2.243  12.892
  906TIP3    H153186   1.792   2.303  12.963
  906TIP3    H253187   1.826   2.282  12.822
  907TIP3   OH253188   1.233   2.524  12.849
  907TIP3    H153189   1.247   2.425  12.842
  907TIP3    H253190   1.221   2.531  12.750
  908TIP3   OH253191   0.529   3.187  13.088
  908TIP3    H153192   0.524   3.270  13.041
  908TIP3    H253193   0.438   3.164  13.115
  909TIP3   OH253194   0.148   3.150  12.156
  909TIP3    H153195   0.101   3.162  12.074
  909TIP3    H253196   0.133   3.228  12.210
  910TIP3   OH253197   1.499   3.313  12.839
  910TIP3    H153198   1.400   3.317  12.846
  910TIP3    H253199   1.525   3.401  12.807
  911TIP3   OH253200   1.522   2.141  12.979
  911TIP3    H153201   1.454   2.203  12.957
  911TIP3    H253202   1.599   2.170  12.923
  912TIP3   OH253203   1.607   3.138  13.197
  912TIP3    H153204   1.619   3.076  13.120
  912TIP3    H253205   1.623   3.222  13.147
  913TIP3   OH253206   1.399   2.848  12.260
  913TIP3    H153207   1.327   2.876  12.323
  913TIP3    H253208   1.444   2.781  12.313
  914TIP3   OH253209   1.417   2.666  13.200
  914TIP3    H153210   1.415   2.746  13.256
  914TIP3    H253211   1.324   2.652  13.188
  915TIP3   OH253212   0.695   3.255  12.721
  915TIP3    H153213   0.690   3.196  12.643
  915TIP3    H253214   0.773   3.218  12.766
  916TIP3   OH253215   1.238   3.350  12.891
  916TIP3    H153216   1.198   3.411  12.952
  916TIP3    H253217   1.208   3.264  12.928
  917TIP3   OH253218   0.694   3.238  13.294
  917TIP3    H153219   0.645   3.312  13.335
  917TIP3    H253220   0.629   3.213  13.222
  918TIP3   OH253221   1.286   2.770  12.047
  918TIP3    H153222   1.335   2.776  12.134
  918TIP3    H253223   1.361   2.759  11.991
  919TIP3   OH253224   0.508   3.447  13.360
  919TIP3    H153225   0.513   3.423  13.266
  919TIP3    H253226   0.419   3.419  13.389
  920TIP3   OH253227   1.771   3.378  11.842
  920TIP3    H153228   1.775   3.469  11.873
  920TIP3    H253229   1.864   3.351  11.846
  921TIP3   OH253230   0.101   3.045  13.099
  921TIP3    H153231   0.039   3.052  13.024
  921TIP3    H253232   0.086   2.952  13.117
  922TIP3   OH253233   0.053   3.330  12.799
  922TIP3    H153234   0.140   3.324  12.753
  922TIP3    H253235   0.026   3.427  12.801
  923TIP3   OH253236   1.879   3.400  13.371
  923TIP3    H153237   1.855   3.311  13.335
  923TIP3    H253238   1.785   3.438  13.379
  924TIP3   OH253239   0.968   3.346  13.254
  924TIP3    H153240   0.967   3.441  13.276
  924TIP3    H253241   0.872   3.329  13.253
  925TIP3   OH253242   0.373   3.586  12.379
  925TIP3    H153243   0.391   3.581  12.479
  925TIP3    H253244   0.278   3.587  12.388
  926TIP3   OH253245   1.573   2.557  13.400
  926TIP3    H153246   1.542   2.596  13.319
  926TIP3    H253247   1.591   2.465  13.369
  927TIP3   OH253248   0.278   3.208  13.203
  927TIP3    H153249   0.319   3.155  13.274
  927TIP3    H253250   0.215   3.139  13.168
  928TIP3   OH253251   1.348   2.386  13.214
  928TIP3    H153252   1.305   2.367  13.299
  928TIP3    H253253   1.346   2.479  13.204
  929TIP3   OH253254   1.476   2.849  11.770
  929TIP3    H153255   1.463   2.853  11.674
  929TIP3    H253256   1.547   2.917  11.790
  930TIP3   OH253257   1.034   2.617  13.424
  930TIP3    H153258   0.969   2.549  13.453
  930TIP3    H253259   1.110   2.597  13.480
  931TIP3   OH253260   1.223   2.546  12.564
  931TIP3    H153261   1.198   2.602  12.489
  931TIP3    H253262   1.237   2.461  12.517
  932TIP3   OH253263   1.101   2.699  13.012
  932TIP3    H153264   1.130   2.625  12.952
  932TIP3    H253265   1.068   2.643  13.090
  933TIP3   OH253266   0.829   2.305  12.502
  933TIP3    H153267   0.735   2.299  12.524
  933TIP3    H253268   0.875   2.288  12.584
  934TIP3   OH253269   1.262   2.239  12.827
  934TIP3    H153270   1.197   2.229  12.900
  934TIP3    H253271   1.218   2.201  12.751
  935TIP3   OH253272   1.586   2.964  12.990
  935TIP3    H153273   1.656   2.993  12.925
  935TIP3    H253274   1.511   2.965  12.929
  936TIP3   OH253275   1.260   2.313  11.923
  936TIP3    H153276   1.165   2.328  11.902
  936TIP3    H253277   1.288   2.399  11.958
  937TIP3   OH253278   1.043   3.066  13.254
  937TIP3    H153279   0.973   3.010  13.292
  937TIP3    H253280   0.994   3.147  13.226
  938TIP3   OH253281   1.331   2.506  12.089
  938TIP3    H153282   1.421   2.488  12.126
  938TIP3    H253283   1.341   2.585  12.038
  939TIP3   OH253284   1.085   3.179  12.003
  939TIP3    H153285   1.062   3.267  12.042
  939TIP3    H253286   1.011   3.124  12.033
  940TIP3   OH253287   1.253   3.293  13.229
  940TIP3    H153288   1.167   3.323  13.193
  940TIP3    H253289   1.250   3.343  13.313
  941TIP3   OH253290   1.817   3.120  13.342
  941TIP3    H153291   1.741   3.124  13.278
  941TIP3    H253292   1.882   3.096  13.269
  942TIP3   OH253293   1.362   2.862  12.836
  942TIP3    H153294   1.277   2.873  12.786
  942TIP3    H253295   1.416   2.818  12.764
  943TIP3   OH253296   0.625   3.315  12.406
  943TIP3    H153297   0.674   3.399  12.407
  943TIP3    H253298   0.535   3.346  12.397
  944TIP3   OH253299   0.632   3.589  12.327
  944TIP3    H153300   0.538   3.602  12.347
  944TIP3    H253301   0.673   3.667  12.369
  945TIP3   OH253302   1.168   3.105  12.982
  945TIP3    H153303   1.127   3.083  13.066
  945TIP3    H253304   1.233   3.039  12.959
  946TIP3   OH253305   1.385   3.171  11.882
  946TIP3    H153306   1.426   3.172  11.971
  946TIP3    H253307   1.297   3.210  11.897
  947TIP3   OH253308   1.479   3.058  12.101
  947TIP3    H153309   1.454   2.999  12.175
  947TIP3    H253310   1.568   3.086  12.133
  948TIP3   OH253311   0.295   3.503  13.035
  948TIP3    H153312   0.318   3.409  13.028
  948TIP3    H253313   0.260   3.520  13.123
  949TIP3   OH253314   0.777   3.301  11.723
  949TIP3    H153315   0.840   3.242  11.680
  949TIP3    H253316   0.783   3.279  11.818
  950TIP3   OH253317   0.676   3.275  11.982
  950TIP3    H153318   0.713   3.221  12.055
  950TIP3    H253319   0.705   3.364  12.011
  951TIP3   OH253320   0.334   3.009  12.010
  951TIP3    H153321   0.273   3.019  12.089
  951TIP3    H253322   0.399   3.076  12.019
  952TIP3   OH253323   1.130   2.264  13.054
  952TIP3    H153324   1.192   2.267  13.128
  952TIP3    H253325   1.079   2.184  13.079
  953TIP3   OH253326   0.936   2.388  12.254
  953TIP3    H153327   1.002   2.455  12.254
  953TIP3    H253328   0.895   2.381  12.341
  954TIP3   OH253329   1.014   2.516  13.166
  954TIP3    H153330   0.974   2.548  13.251
  954TIP3    H253331   1.019   2.420  13.184
  955TIP3   OH253332   1.596   2.295  13.259
  955TIP3    H153333   1.503   2.313  13.240
  955TIP3    H253334   1.630   2.285  13.169
  956TIP3   OH253335   1.448   2.666  12.679
  956TIP3    H153336   1.382   2.619  12.624
  956TIP3    H253337   1.509   2.595  12.706
  957TIP3   OH253338   0.400   3.283  11.902
  957TIP3    H153339   0.477   3.321  11.947
  957TIP3    H253340   0.446   3.202  11.873
  958TIP3   OH253341   0.215   3.383  12.280
  958TIP3    H153342   0.132   3.419  12.320
  958TIP3    H253343   0.270   3.459  12.287
  959TIP3   OH253344   0.147   3.644  13.465
  959TIP3    H153345   0.188   3.606  13.543
  959TIP3    H253346   0.086   3.574  13.437
  960TIP3   OH253347   0.610   3.555  13.599
  960TIP3    H153348   0.675   3.496  13.639
  960TIP3    H253349   0.596   3.516  13.511
  961TIP3   OH253350   1.003   3.500  11.739
  961TIP3    H153351   0.941   3.441  11.779
  961TIP3    H253352   1.081   3.448  11.726
  962TIP3   OH253353   1.266   3.371  13.474
  962TIP3    H153354   1.216   3.314  13.528
  962TIP3    H253355   1.322   3.415  13.542
  963TIP3   OH253356   1.461   3.479  11.764
  963TIP3    H153357   1.495   3.407  11.817
  963TIP3    H253358   1.539   3.509  11.718
  964TIP3   OH253359   0.566   3.072  11.760
  964TIP3    H153360   0.565   2.989  11.814
  964TIP3    H253361   0.635   3.044  11.696
  965TIP3   OH253362   0.817   3.038  13.472
  965TIP3    H153363   0.749   3.065  13.405
  965TIP3    H253364   0.796   2.942  13.478
  966TIP3   OH253365   1.106   3.170  11.732
  966TIP3    H153366   1.068   3.198  11.817
  966TIP3    H253367   1.065   3.087  11.711
  967TIP3   OH253368   1.361   3.025  13.230
  967TIP3    H153369   1.438   3.082  13.209
  967TIP3    H253370   1.291   3.093  13.224
  968TIP3   OH253371   1.118   2.916  13.561
  968TIP3    H153372   1.210   2.892  13.550
  968TIP3    H253373   1.088   2.834  13.610
  969TIP3   OH253374   1.710   2.937  11.756
  969TIP3    H153375   1.708   2.889  11.671
  969TIP3    H253376   1.737   3.027  11.732
  970TIP3   OH253377   0.844   2.788  13.113
  970TIP3    H153378   0.904   2.759  13.045
  970TIP3    H253379   0.792   2.857  13.070
  971TIP3   OH253380   1.278   2.560  13.592
  971TIP3    H153381   1.298   2.466  13.597
  971TIP3    H253382   1.366   2.598  13.608
  972TIP3   OH253383   1.410   2.840  13.417
  972TIP3    H153384   1.387   2.909  13.353
  972TIP3    H253385   1.506   2.822  13.400
  973TIP3   OH253386   1.328   2.184  13.590
  973TIP3    H153387   1.311   2.089  13.584
  973TIP3    H253388   1.286   2.211  13.672
  974TIP3   OH253389   0.290   2.304  13.491
  974TIP3    H153390   0.330   2.239  13.429
  974TIP3    H253391   0.296   2.261  13.576
  975TIP3   OH253392   0.760   3.767  11.914
  975TIP3    H153393   0.858   3.765  11.933
  975TIP3    H253394   0.756   3.829  11.843
  976TIP3   OH253395   0.140   3.246  11.850
  976TIP3    H153396   0.223   3.225  11.894
  976TIP3    H253397   0.122   3.158  11.809
  977TIP3   OH253398   8.170   3.801  12.314
  977TIP3    H153399   8.080   3.762  12.312
  977TIP3    H253400   8.189   3.761  12.401
  978TIP3   OH253401   0.158   3.489  12.585
  978TIP3    H153402   0.065   3.478  12.556
  978TIP3    H253403   0.145   3.581  12.625
  979TIP3   OH253404   1.792   3.611  13.146
  979TIP3    H153405   1.743   3.544  13.097
  979TIP3    H253406   1.845   3.567  13.206
  980TIP3   OH253407   1.634   3.190  13.664
  980TIP3    H153408   1.537   3.197  13.683
  980TIP3    H253409   1.668   3.280  13.684
  981TIP3   OH253410   1.785   3.102  12.841
  981TIP3    H153411   1.860   3.057  12.797
  981TIP3    H253412   1.793   3.194  12.813
  982TIP3   OH253413   1.630   3.379  13.073
  982TIP3    H153414   1.563   3.433  13.117
  982TIP3    H253415   1.581   3.349  12.993
  983TIP3   OH253416   1.825   2.811  11.980
  983TIP3    H153417   1.786   2.853  11.902
  983TIP3    H253418   1.837   2.881  12.045
  984TIP3   OH253419   1.653   2.542  11.831
  984TIP3    H153420   1.685   2.599  11.762
  984TIP3    H253421   1.657   2.455  11.786
  985TIP3   OH253422   1.674   2.879  13.373
  985TIP3    H153423   1.725   2.794  13.373
  985TIP3    H253424   1.747   2.940  13.355
  986TIP3   OH253425   1.594   2.275  11.742
  986TIP3    H153426   1.654   2.237  11.808
  986TIP3    H253427   1.508   2.237  11.765
  987TIP3   OH253428   1.555   2.438  12.235
  987TIP3    H153429   1.585   2.347  12.247
  987TIP3    H253430   1.635   2.476  12.197
  988TIP3   OH253431   1.612   2.564  13.050
  988TIP3    H153432   1.546   2.593  13.111
  988TIP3    H253433   1.676   2.638  13.037
  989TIP3   OH253434   0.059   2.391  13.393
  989TIP3    H153435   0.150   2.396  13.432
  989TIP3    H253436   0.013   2.330  13.449
  990TIP3   OH253437   1.801   2.174  13.437
  990TIP3    H153438   1.711   2.207  13.425
  990TIP3    H253439   1.815   2.131  13.352
  991TIP3   OH253440   8.183   2.079  13.067
  991TIP3    H153441   8.117   2.012  13.097
  991TIP3    H253442   8.135   2.099  12.987
  992TIP3   OH253443   0.247   3.356  13.458
  992TIP3    H153444   0.164   3.374  13.415
  992TIP3    H253445   0.225   3.353  13.552
  993TIP3   OH253446   0.547   3.453  13.087
  993TIP3    H153447   0.508   3.536  13.053
  993TIP3    H253448   0.638   3.468  13.057
  994TIP3   OH253449   0.305   3.788  13.104
  994TIP3    H153450   0.237   3.819  13.031
  994TIP3    H253451   0.239   3.754  13.163
  995TIP3   OH253452   0.528   3.730  12.996
  995TIP3    H153453   0.438   3.753  13.024
  995TIP3    H253454   0.535   3.790  12.917
  996TIP3   OH253455   0.277   3.637  12.749
  996TIP3    H153456   0.239   3.621  12.838
  996TIP3    H253457   0.352   3.583  12.729
  997TIP3   OH253458   0.448   3.498  12.626
  997TIP3    H153459   0.425   3.414  12.670
  997TIP3    H253460   0.525   3.530  12.682
  998TIP3   OH253461   0.686   3.556  12.729
  998TIP3    H153462   0.718   3.468  12.704
  998TIP3    H253463   0.708   3.566  12.823
  999TIP3   OH253464   0.140   3.574  12.092
  999TIP3    H153465   0.067   3.577  12.028
  999TIP3    H253466   0.139   3.671  12.117
 1000TIP3   OH253467   0.264   2.049  13.385
 1000TIP3    H153468   0.242   1.962  13.416
 1000TIP3    H253469   0.362   2.048  13.403
 1001TIP3   OH253470   0.462   1.973  13.533
 1001TIP3    H153471   0.557   1.956  13.512
 1001TIP3    H253472   0.436   1.897  13.584
 1002TIP3   OH253473   0.328   3.645  11.805
 1002TIP3    H153474   0.302   3.698  11.883
 1002TIP3    H253475   0.417   3.612  11.818
 1003TIP3   OH253476   1.634   3.515  13.421
 1003TIP3    H153477   1.552   3.505  13.368
 1003TIP3    H253478   1.619   3.611  13.434
 1004TIP3   OH253479   3.663   2.238  12.887
 1004TIP3    H153480   3.679   2.294  12.965
 1004TIP3    H253481   3.716   2.283  12.820
 1005TIP3   OH253482   3.123   2.507  12.835
 1005TIP3    H153483   3.125   2.411  12.839
 1005TIP3    H253484   3.101   2.531  12.745
 1006TIP3   OH253485   3.208   2.345  12.405
 1006TIP3    H153486   3.269   2.306  12.471
 1006TIP3    H253487   3.265   2.391  12.344
 1007TIP3   OH253488   3.705   2.383  13.116
 1007TIP3    H153489   3.637   2.453  13.103
 1007TIP3    H253490   3.707   2.367  13.211
 1008TIP3   OH253491   2.315   2.229  12.980
 1008TIP3    H153492   2.286   2.263  12.895
 1008TIP3    H253493   2.238   2.235  13.037
 1009TIP3   OH253494   3.384   2.267  12.602
 1009TIP3    H153495   3.358   2.190  12.656
 1009TIP3    H253496   3.448   2.315  12.659
 1010TIP3   OH253497   3.414   2.139  12.968
 1010TIP3    H153498   3.341   2.201  12.965
 1010TIP3    H253499   3.486   2.179  12.917
 1011TIP3   OH253500   2.947   2.652  11.883
 1011TIP3    H153501   3.018   2.696  11.934
 1011TIP3    H253502   2.979   2.630  11.797
 1012TIP3   OH253503   3.678   2.770  13.000
 1012TIP3    H153504   3.610   2.842  13.001
 1012TIP3    H253505   3.727   2.791  12.919
 1013TIP3   OH253506   3.181   2.755  12.030
 1013TIP3    H153507   3.225   2.796  12.106
 1013TIP3    H253508   3.209   2.818  11.957
 1014TIP3   OH253509   2.387   3.458  13.359
 1014TIP3    H153510   2.414   3.424  13.269
 1014TIP3    H253511   2.319   3.405  13.376
 1015TIP3   OH253512   3.661   3.389  11.848
 1015TIP3    H153513   3.650   3.482  11.877
 1015TIP3    H253514   3.734   3.363  11.906
 1016TIP3   OH253515   1.946   3.060  13.107
 1016TIP3    H153516   1.912   3.054  13.014
 1016TIP3    H253517   1.964   2.963  13.109
 1017TIP3   OH253518   3.753   3.403  13.352
 1017TIP3    H153519   3.743   3.307  13.345
 1017TIP3    H253520   3.666   3.430  13.384
 1018TIP3   OH253521   2.243   3.628  12.401
 1018TIP3    H153522   2.274   3.577  12.479
 1018TIP3    H253523   2.175   3.570  12.365
 1019TIP3   OH253524   3.472   2.549  13.393
 1019TIP3    H153525   3.418   2.602  13.330
 1019TIP3    H253526   3.464   2.459  13.361
 1020TIP3   OH253527   2.156   3.212  13.231
 1020TIP3    H153528   2.216   3.143  13.271
 1020TIP3    H253529   2.106   3.151  13.168
 1021TIP3   OH253530   3.248   2.398  13.222
 1021TIP3    H153531   3.183   2.370  13.292
 1021TIP3    H253532   3.216   2.484  13.194
 1022TIP3   OH253533   2.902   2.255  11.872
 1022TIP3    H153534   2.842   2.264  11.951
 1022TIP3    H253535   2.850   2.182  11.830
 1023TIP3   OH253536   2.915   2.611  13.425
 1023TIP3    H153537   2.860   2.541  13.460
 1023TIP3    H253538   2.996   2.613  13.477
 1024TIP3   OH253539   2.567   2.298  11.769
 1024TIP3    H153540   2.521   2.263  11.846
 1024TIP3    H253541   2.497   2.344  11.722
 1025TIP3   OH253542   2.700   2.423  12.933
 1025TIP3    H153543   2.620   2.471  12.953
 1025TIP3    H253544   2.758   2.444  13.010
 1026TIP3   OH253545   3.482   2.946  12.975
 1026TIP3    H153546   3.538   3.007  12.924
 1026TIP3    H253547   3.392   2.967  12.946
 1027TIP3   OH253548   3.135   2.261  12.031
 1027TIP3    H153549   3.042   2.272  11.997
 1027TIP3    H253550   3.177   2.351  12.051
 1028TIP3   OH253551   3.234   2.499  12.057
 1028TIP3    H153552   3.305   2.496  12.127
 1028TIP3    H253553   3.227   2.599  12.045
 1029TIP3   OH253554   3.698   2.530  12.070
 1029TIP3    H153555   3.659   2.490  11.991
 1029TIP3    H253556   3.723   2.616  12.034
 1030TIP3   OH253557   3.708   3.109  13.343
 1030TIP3    H153558   3.621   3.131  13.307
 1030TIP3    H253559   3.762   3.103  13.260
 1031TIP3   OH253560   2.698   3.502  13.011
 1031TIP3    H153561   2.742   3.585  12.988
 1031TIP3    H253562   2.755   3.468  13.083
 1032TIP3   OH253563   3.736   3.648  11.916
 1032TIP3    H153564   3.799   3.716  11.889
 1032TIP3    H253565   3.660   3.705  11.942
 1033TIP3   OH253566   2.100   3.465  13.008
 1033TIP3    H153567   2.130   3.374  13.008
 1033TIP3    H253568   2.128   3.500  13.093
 1034TIP3   OH253569   2.857   2.492  13.169
 1034TIP3    H153570   2.872   2.563  13.236
 1034TIP3    H253571   2.929   2.430  13.181
 1035TIP3   OH253572   3.482   2.286  13.255
 1035TIP3    H153573   3.390   2.319  13.242
 1035TIP3    H253574   3.514   2.283  13.164
 1036TIP3   OH253575   3.340   2.666  12.658
 1036TIP3    H153576   3.262   2.620  12.628
 1036TIP3    H253577   3.391   2.597  12.708
 1037TIP3   OH253578   2.203   2.002  12.697
 1037TIP3    H153579   2.178   2.009  12.606
 1037TIP3    H253580   2.149   1.927  12.728
 1038TIP3   OH253581   2.011   3.661  13.471
 1038TIP3    H153582   2.090   3.633  13.521
 1038TIP3    H253583   1.965   3.588  13.423
 1039TIP3   OH253584   2.465   3.543  13.606
 1039TIP3    H153585   2.552   3.513  13.643
 1039TIP3    H253586   2.485   3.532  13.510
 1040TIP3   OH253587   2.892   3.503  11.745
 1040TIP3    H153588   2.828   3.437  11.780
 1040TIP3    H253589   2.967   3.445  11.727
 1041TIP3   OH253590   2.527   2.392  13.332
 1041TIP3    H153591   2.539   2.322  13.264
 1041TIP3    H253592   2.526   2.472  13.277
 1042TIP3   OH253593   2.557   2.251  13.087
 1042TIP3    H153594   2.623   2.265  13.015
 1042TIP3    H253595   2.482   2.217  13.034
 1043TIP3   OH253596   3.163   2.552  13.610
 1043TIP3    H153597   3.185   2.461  13.595
 1043TIP3    H253598   3.245   2.601  13.602
 1044TIP3   OH253599   2.774   2.391  13.484
 1044TIP3    H153600   2.737   2.391  13.572
 1044TIP3    H253601   2.693   2.396  13.427
 1045TIP3   OH253602   3.050   2.325  13.397
 1045TIP3    H153603   2.952   2.326  13.396
 1045TIP3    H253604   3.070   2.254  13.458
 1046TIP3   OH253605   2.653   3.770  11.916
 1046TIP3    H153606   2.751   3.771  11.927
 1046TIP3    H253607   2.632   3.830  11.847
 1047TIP3   OH253608   3.684   3.616  13.147
 1047TIP3    H153609   3.629   3.552  13.094
 1047TIP3    H253610   3.731   3.563  13.209
 1048TIP3   OH253611   3.693   2.819  12.336
 1048TIP3    H153612   3.614   2.778  12.375
 1048TIP3    H253613   3.748   2.844  12.412
 1049TIP3   OH253614   3.671   3.100  12.841
 1049TIP3    H153615   3.748   3.062  12.796
 1049TIP3    H253616   3.677   3.196  12.820
 1050TIP3   OH253617   3.541   2.535  11.828
 1050TIP3    H153618   3.564   2.606  11.765
 1050TIP3    H253619   3.549   2.454  11.777
 1051TIP3   OH253620   3.471   2.676  12.395
 1051TIP3    H153621   3.454   2.581  12.389
 1051TIP3    H253622   3.435   2.701  12.482
 1052TIP3   OH253623   3.561   2.872  13.363
 1052TIP3    H153624   3.620   2.796  13.377
 1052TIP3    H253625   3.617   2.950  13.360
 1053TIP3   OH253626   3.712   2.661  13.425
 1053TIP3    H153627   3.621   2.624  13.413
 1053TIP3    H253628   3.767   2.584  13.419
 1054TIP3   OH253629   3.473   2.276  11.740
 1054TIP3    H153630   3.545   2.241  11.800
 1054TIP3    H253631   3.402   2.221  11.769
 1055TIP3   OH253632   3.438   2.431  12.230
 1055TIP3    H153633   3.473   2.345  12.256
 1055TIP3    H253634   3.520   2.477  12.203
 1056TIP3   OH253635   3.498   2.491  12.785
 1056TIP3    H153636   3.595   2.511  12.781
 1056TIP3    H253637   3.486   2.502  12.880
 1057TIP3   OH253638   3.505   2.561  13.063
 1057TIP3    H153639   3.419   2.594  13.094
 1057TIP3    H253640   3.554   2.644  13.040
 1058TIP3   OH253641   3.733   1.962  13.596
 1058TIP3    H153642   3.775   1.899  13.535
 1058TIP3    H253643   3.747   2.046  13.549
 1059TIP3   OH253644   3.689   2.173  13.432
 1059TIP3    H153645   3.596   2.201  13.425
 1059TIP3    H253646   3.695   2.122  13.350
 1060TIP3   OH253647   3.682   2.172  11.888
 1060TIP3    H153648   3.733   2.097  11.855
 1060TIP3    H253649   3.758   2.230  11.911
 1061TIP3   OH253650   2.067   3.242  13.534
 1061TIP3    H153651   2.002   3.276  13.470
 1061TIP3    H253652   2.099   3.308  13.602
 1062TIP3   OH253653   2.423   3.457  13.085
 1062TIP3    H153654   2.396   3.544  13.052
 1062TIP3    H253655   2.518   3.461  13.057
 1063TIP3   OH253656   2.863   3.607  13.380
 1063TIP3    H153657   2.876   3.559  13.465
 1063TIP3    H253658   2.953   3.622  13.350
 1064TIP3   OH253659   3.587   1.988  13.219
 1064TIP3    H153660   3.506   2.013  13.173
 1064TIP3    H253661   3.611   1.908  13.167
 1065TIP3   OH253662   2.168   3.775  13.086
 1065TIP3    H153663   2.096   3.827  13.044
 1065TIP3    H253664   2.132   3.763  13.173
 1066TIP3   OH253665   2.415   3.733  12.989
 1066TIP3    H153666   2.326   3.752  13.028
 1066TIP3    H253667   2.415   3.799  12.916
 1067TIP3   OH253668   2.880   3.731  12.915
 1067TIP3    H153669   2.843   3.787  12.845
 1067TIP3    H253670   2.905   3.799  12.981
 1068TIP3   OH253671   2.110   3.646  12.778
 1068TIP3    H153672   2.105   3.600  12.864
 1068TIP3    H253673   2.192   3.609  12.740
 1069TIP3   OH253674   2.321   3.519  12.650
 1069TIP3    H153675   2.307   3.425  12.662
 1069TIP3    H253676   2.409   3.529  12.689
 1070TIP3   OH253677   3.446   1.939  12.656
 1070TIP3    H153678   3.503   1.992  12.599
 1070TIP3    H253679   3.356   1.966  12.630
 1071TIP3   OH253680   2.045   1.968  12.003
 1071TIP3    H153681   2.090   2.036  11.949
 1071TIP3    H253682   1.981   2.022  12.053
 1072TIP3   OH253683   2.040   3.566  12.094
 1072TIP3    H153684   1.965   3.562  12.035
 1072TIP3    H253685   2.034   3.657  12.122
 1073TIP3   OH253686   2.230   2.156  11.853
 1073TIP3    H153687   2.283   2.096  11.800
 1073TIP3    H253688   2.290   2.199  11.915
 1074TIP3   OH253689   2.915   3.712  11.922
 1074TIP3    H153690   3.013   3.716  11.925
 1074TIP3    H253691   2.903   3.638  11.859
 1075TIP3   OH253692   2.158   2.037  13.370
 1075TIP3    H153693   2.119   1.969  13.425
 1075TIP3    H253694   2.245   2.047  13.414
 1076TIP3   OH253695   2.360   1.982  13.539
 1076TIP3    H153696   2.448   1.949  13.519
 1076TIP3    H253697   2.316   1.906  13.582
 1077TIP3   OH253698   2.220   3.665  11.801
 1077TIP3    H153699   2.190   3.682  11.891
 1077TIP3    H253700   2.291   3.600  11.814
 1078TIP3   OH253701   4.962   2.903  12.413
 1078TIP3    H153702   4.954   2.999  12.421
 1078TIP3    H253703   4.886   2.880  12.356
 1079TIP3   OH253704   4.846   2.834  12.763
 1079TIP3    H153705   4.843   2.771  12.836
 1079TIP3    H253706   4.813   2.778  12.691
 1080TIP3   OH253707   4.190   3.242  12.753
 1080TIP3    H153708   4.132   3.161  12.743
 1080TIP3    H253709   4.250   3.204  12.812
 1081TIP3   OH253710   3.836   2.603  12.327
 1081TIP3    H153711   3.791   2.688  12.312
 1081TIP3    H253712   3.791   2.548  12.261
 1082TIP3   OH253713   3.914   2.827  12.540
 1082TIP3    H153714   3.934   2.739  12.579
 1082TIP3    H253715   3.977   2.829  12.467
 1083TIP3   OH253716   4.677   3.073  12.811
 1083TIP3    H153717   4.721   3.009  12.752
 1083TIP3    H253718   4.761   3.090  12.864
 1084TIP3   OH253719   5.532   2.274  12.882
 1084TIP3    H153720   5.581   2.278  12.969
 1084TIP3    H253721   5.609   2.266  12.821
 1085TIP3   OH253722   5.018   2.517  12.841
 1085TIP3    H153723   5.007   2.420  12.845
 1085TIP3    H253724   4.985   2.531  12.749
 1086TIP3   OH253725   5.087   2.338  12.410
 1086TIP3    H153726   5.155   2.299  12.468
 1086TIP3    H253727   5.140   2.388  12.348
 1087TIP3   OH253728   3.971   2.570  12.637
 1087TIP3    H153729   4.039   2.519  12.688
 1087TIP3    H253730   3.981   2.532  12.549
 1088TIP3   OH253731   5.573   2.390  13.106
 1088TIP3    H153732   5.533   2.470  13.140
 1088TIP3    H253733   5.606   2.361  13.195
 1089TIP3   OH253734   4.452   2.987  12.984
 1089TIP3    H153735   4.382   3.043  13.024
 1089TIP3    H253736   4.531   3.041  12.977
 1090TIP3   OH253737   5.267   2.270  12.606
 1090TIP3    H153738   5.243   2.189  12.653
 1090TIP3    H253739   5.338   2.307  12.656
 1091TIP3   OH253740   4.296   3.183  13.066
 1091TIP3    H153741   4.291   3.280  13.053
 1091TIP3    H253742   4.214   3.171  13.123
 1092TIP3   OH253743   3.923   3.149  12.151
 1092TIP3    H153744   3.875   3.168  12.070
 1092TIP3    H253745   3.903   3.224  12.209
 1093TIP3   OH253746   5.304   2.151  12.979
 1093TIP3    H153747   5.220   2.194  12.958
 1093TIP3    H253748   5.369   2.172  12.911
 1094TIP3   OH253749   5.383   3.135  13.192
 1094TIP3    H153750   5.395   3.075  13.118
 1094TIP3    H253751   5.391   3.223  13.151
 1095TIP3   OH253752   4.823   2.822  12.160
 1095TIP3    H153753   4.759   2.892  12.138
 1095TIP3    H253754   4.901   2.843  12.106
 1096TIP3   OH253755   4.832   2.675  11.868
 1096TIP3    H153756   4.902   2.700  11.936
 1096TIP3    H253757   4.888   2.649  11.794
 1097TIP3   OH253758   5.542   2.752  12.965
 1097TIP3    H153759   5.512   2.836  13.013
 1097TIP3    H253760   5.622   2.794  12.930
 1098TIP3   OH253761   5.172   2.851  12.260
 1098TIP3    H153762   5.094   2.873  12.317
 1098TIP3    H253763   5.216   2.780  12.308
 1099TIP3   OH253764   5.159   2.668  13.162
 1099TIP3    H153765   5.161   2.742  13.227
 1099TIP3    H253766   5.087   2.700  13.104
 1100TIP3   OH253767   4.334   2.917  12.456
 1100TIP3    H153768   4.297   2.878  12.372
 1100TIP3    H253769   4.392   2.844  12.482
 1101TIP3   OH253770   4.619   3.299  12.669
 1101TIP3    H153771   4.585   3.241  12.597
 1101TIP3    H253772   4.639   3.246  12.752
 1102TIP3   OH253773   4.460   3.234  13.286
 1102TIP3    H153774   4.421   3.313  13.327
 1102TIP3    H253775   4.395   3.215  13.216
 1103TIP3   OH253776   5.054   2.767  12.024
 1103TIP3    H153777   5.111   2.785  12.105
 1103TIP3    H253778   5.106   2.820  11.959
 1104TIP3   OH253779   4.155   2.853  13.206
 1104TIP3    H153780   4.154   2.915  13.279
 1104TIP3    H253781   4.063   2.854  13.177
 1105TIP3   OH253782   4.284   3.425  13.367
 1105TIP3    H153783   4.281   3.431  13.270
 1105TIP3    H253784   4.188   3.429  13.384
 1106TIP3   OH253785   5.427   1.940  11.999
 1106TIP3    H153786   5.340   1.952  12.047
 1106TIP3    H253787   5.446   2.033  11.986
 1107TIP3   OH253788   4.232   2.823  12.208
 1107TIP3    H153789   4.196   2.899  12.159
 1107TIP3    H253790   4.165   2.754  12.190
 1108TIP3   OH253791   5.557   3.368  11.869
 1108TIP3    H153792   5.541   3.467  11.871
 1108TIP3    H253793   5.642   3.372  11.824
 1109TIP3   OH253794   3.840   3.058  13.101
 1109TIP3    H153795   3.792   3.055  13.016
 1109TIP3    H253796   3.844   2.963  13.124
 1110TIP3   OH253797   5.642   3.404  13.351
 1110TIP3    H153798   5.630   3.307  13.343
 1110TIP3    H253799   5.554   3.423  13.387
 1111TIP3   OH253800   4.722   3.353  13.227
 1111TIP3    H153801   4.744   3.432  13.280
 1111TIP3    H253802   4.640   3.320  13.265
 1112TIP3   OH253803   4.088   3.619  12.457
 1112TIP3    H153804   4.146   3.566  12.519
 1112TIP3    H253805   4.028   3.555  12.415
 1113TIP3   OH253806   5.353   2.554  13.398
 1113TIP3    H153807   5.308   2.598  13.326
 1113TIP3    H253808   5.354   2.461  13.371
 1114TIP3   OH253809   4.065   3.199  13.201
 1114TIP3    H153810   4.088   3.152  13.284
 1114TIP3    H253811   3.982   3.154  13.174
 1115TIP3   OH253812   4.793   2.015  13.132
 1115TIP3    H153813   4.835   1.965  13.206
 1115TIP3    H253814   4.699   1.993  13.149
 1116TIP3   OH253815   5.130   2.395  13.216
 1116TIP3    H153816   5.075   2.369  13.295
 1116TIP3    H253817   5.103   2.486  13.198
 1117TIP3   OH253818   5.191   2.880  11.790
 1117TIP3    H153819   5.219   2.839  11.706
 1117TIP3    H253820   5.282   2.905  11.816
 1118TIP3   OH253821   4.892   2.598  12.276
 1118TIP3    H153822   4.852   2.684  12.249
 1118TIP3    H253823   4.966   2.584  12.216
 1119TIP3   OH253824   4.800   2.618  13.423
 1119TIP3    H153825   4.746   2.543  13.456
 1119TIP3    H253826   4.882   2.608  13.472
 1120TIP3   OH253827   5.005   2.548  12.563
 1120TIP3    H153828   4.962   2.598  12.491
 1120TIP3    H253829   5.003   2.461  12.518
 1121TIP3   OH253830   4.445   2.339  11.784
 1121TIP3    H153831   4.414   2.262  11.838
 1121TIP3    H253832   4.377   2.330  11.716
 1122TIP3   OH253833   4.930   2.704  13.024
 1122TIP3    H153834   4.946   2.636  12.958
 1122TIP3    H253835   4.871   2.657  13.087
 1123TIP3   OH253836   5.040   2.233  12.827
 1123TIP3    H153837   4.971   2.232  12.897
 1123TIP3    H253838   4.985   2.203  12.751
 1124TIP3   OH253839   4.312   2.602  11.901
 1124TIP3    H153840   4.250   2.541  11.853
 1124TIP3    H253841   4.398   2.585  11.866
 1125TIP3   OH253842   4.129   3.045  13.414
 1125TIP3    H153843   4.197   3.056  13.479
 1125TIP3    H253844   4.048   3.048  13.471
 1126TIP3   OH253845   4.742   2.582  12.703
 1126TIP3    H153846   4.776   2.520  12.638
 1126TIP3    H253847   4.703   2.523  12.770
 1127TIP3   OH253848   4.596   2.419  12.933
 1127TIP3    H153849   4.504   2.452  12.948
 1127TIP3    H253850   4.642   2.450  13.012
 1128TIP3   OH253851   4.651   3.036  12.097
 1128TIP3    H153852   4.568   2.987  12.077
 1128TIP3    H253853   4.635   3.048  12.192
 1129TIP3   OH253854   5.363   2.936  12.960
 1129TIP3    H153855   5.420   3.013  12.934
 1129TIP3    H253856   5.275   2.978  12.948
 1130TIP3   OH253857   5.023   2.340  11.894
 1130TIP3    H153858   4.946   2.302  11.936
 1130TIP3    H253859   5.072   2.392  11.966
 1131TIP3   OH253860   4.795   3.057  13.230
 1131TIP3    H153861   4.761   3.020  13.312
 1131TIP3    H253862   4.775   3.152  13.235
 1132TIP3   OH253863   5.105   2.507  12.080
 1132TIP3    H153864   5.192   2.493  12.122
 1132TIP3    H253865   5.120   2.594  12.040
 1133TIP3   OH253866   4.167   2.971  12.690
 1133TIP3    H153867   4.226   2.958  12.614
 1133TIP3    H253868   4.161   2.881  12.730
 1134TIP3   OH253869   3.853   2.817  13.213
 1134TIP3    H153870   3.879   2.769  13.293
 1134TIP3    H253871   3.799   2.752  13.166
 1135TIP3   OH253872   4.559   2.771  13.430
 1135TIP3    H153873   4.525   2.741  13.343
 1135TIP3    H253874   4.652   2.740  13.428
 1136TIP3   OH253875   5.129   2.881  12.821
 1136TIP3    H153876   5.032   2.874  12.807
 1136TIP3    H253877   5.155   2.800  12.779
 1137TIP3   OH253878   4.390   3.331  12.445
 1137TIP3    H153879   4.453   3.389  12.396
 1137TIP3    H253880   4.312   3.333  12.387
 1138TIP3   OH253881   3.970   2.815  11.871
 1138TIP3    H153882   4.031   2.865  11.927
 1138TIP3    H253883   3.885   2.833  11.912
 1139TIP3   OH253884   4.540   3.083  12.387
 1139TIP3    H153885   4.514   3.174  12.372
 1139TIP3    H253886   4.458   3.036  12.410
 1140TIP3   OH253887   4.584   3.500  13.007
 1140TIP3    H153888   4.625   3.588  12.996
 1140TIP3    H253889   4.641   3.471  13.082
 1141TIP3   OH253890   4.397   3.597  12.325
 1141TIP3    H153891   4.327   3.597  12.382
 1141TIP3    H253892   4.456   3.668  12.362
 1142TIP3   OH253893   4.921   3.096  12.973
 1142TIP3    H153894   4.904   3.088  13.069
 1142TIP3    H253895   5.000   3.042  12.961
 1143TIP3   OH253896   5.162   3.191  11.882
 1143TIP3    H153897   5.198   3.167  11.970
 1143TIP3    H253898   5.071   3.203  11.904
 1144TIP3   OH253899   5.618   3.646  11.909
 1144TIP3    H153900   5.686   3.714  11.895
 1144TIP3    H253901   5.540   3.699  11.939
 1145TIP3   OH253902   5.250   3.067  12.103
 1145TIP3    H153903   5.218   2.996  12.162
 1145TIP3    H253904   5.341   3.076  12.133
 1146TIP3   OH253905   3.997   3.466  13.005
 1146TIP3    H153906   4.004   3.372  13.012
 1146TIP3    H253907   4.010   3.496  13.096
 1147TIP3   OH253908   4.108   3.000  12.021
 1147TIP3    H153909   4.042   3.033  12.087
 1147TIP3    H253910   4.164   3.078  12.010
 1148TIP3   OH253911   4.902   2.264  13.060
 1148TIP3    H153912   4.964   2.268  13.132
 1148TIP3    H253913   4.856   2.179  13.079
 1149TIP3   OH253914   4.755   2.502  13.165
 1149TIP3    H153915   4.755   2.555  13.247
 1149TIP3    H253916   4.813   2.428  13.181
 1150TIP3   OH253917   5.369   2.294  13.253
 1150TIP3    H153918   5.273   2.314  13.246
 1150TIP3    H253919   5.396   2.277  13.163
 1151TIP3   OH253920   5.218   2.669  12.663
 1151TIP3    H153921   5.139   2.622  12.623
 1151TIP3    H253922   5.265   2.589  12.692
 1152TIP3   OH253923   4.168   3.256  11.920
 1152TIP3    H153924   4.232   3.324  11.945
 1152TIP3    H253925   4.221   3.217  11.848
 1153TIP3   OH253926   4.011   2.534  11.818
 1153TIP3    H153927   3.999   2.624  11.851
 1153TIP3    H253928   3.922   2.500  11.809
 1154TIP3   OH253929   3.908   3.661  13.443
 1154TIP3    H153930   3.958   3.643  13.525
 1154TIP3    H253931   3.861   3.577  13.430
 1155TIP3   OH253932   4.361   3.516  13.615
 1155TIP3    H153933   4.456   3.521  13.632
 1155TIP3    H253934   4.363   3.535  13.516
 1156TIP3   OH253935   5.234   3.473  11.765
 1156TIP3    H153936   5.269   3.403  11.819
 1156TIP3    H253937   5.307   3.502  11.712
 1157TIP3   OH253938   3.900   3.037  13.543
 1157TIP3    H153939   3.904   2.944  13.513
 1157TIP3    H253940   3.821   3.065  13.493
 1158TIP3   OH253941   4.319   3.072  11.744
 1158TIP3    H153942   4.325   3.012  11.818
 1158TIP3    H253943   4.396   3.075  11.687
 1159TIP3   OH253944   4.554   3.040  13.489
 1159TIP3    H153945   4.531   3.066  13.398
 1159TIP3    H253946   4.575   2.944  13.477
 1160TIP3   OH253947   4.848   3.216  11.772
 1160TIP3    H153948   4.834   3.235  11.866
 1160TIP3    H253949   4.802   3.136  11.781
 1161TIP3   OH253950   5.132   3.025  13.228
 1161TIP3    H153951   5.210   3.083  13.216
 1161TIP3    H253952   5.061   3.090  13.228
 1162TIP3   OH253953   3.986   2.765  13.489
 1162TIP3    H153954   4.023   2.678  13.470
 1162TIP3    H253955   3.949   2.759  13.578
 1163TIP3   OH253956   4.457   2.863  12.022
 1163TIP3    H153957   4.389   2.818  12.076
 1163TIP3    H253958   4.486   2.789  11.969
 1164TIP3   OH253959   4.382   2.663  13.228
 1164TIP3    H153960   4.309   2.725  13.244
 1164TIP3    H253961   4.406   2.688  13.137
 1165TIP3   OH253962   4.557   2.709  11.800
 1165TIP3    H153963   4.540   2.661  11.720
 1165TIP3    H253964   4.652   2.703  11.824
 1166TIP3   OH253965   4.881   2.907  13.553
 1166TIP3    H153966   4.977   2.914  13.547
 1166TIP3    H253967   4.863   2.834  13.614
 1167TIP3   OH253968   4.611   2.779  13.108
 1167TIP3    H153969   4.679   2.762  13.043
 1167TIP3    H253970   4.569   2.860  13.075
 1168TIP3   OH253971   5.049   2.557  13.601
 1168TIP3    H153972   5.072   2.463  13.594
 1168TIP3    H253973   5.137   2.598  13.600
 1169TIP3   OH253974   5.181   2.839  13.419
 1169TIP3    H153975   5.158   2.910  13.355
 1169TIP3    H253976   5.275   2.830  13.403
 1170TIP3   OH253977   4.657   2.405  13.480
 1170TIP3    H153978   4.631   2.386  13.571
 1170TIP3    H253979   4.578   2.387  13.427
 1171TIP3   OH253980   4.930   2.322  13.390
 1171TIP3    H153981   4.835   2.327  13.405
 1171TIP3    H253982   4.960   2.258  13.458
 1172TIP3   OH253983   5.089   2.186  13.583
 1172TIP3    H153984   5.085   2.088  13.586
 1172TIP3    H253985   5.064   2.214  13.674
 1173TIP3   OH253986   3.913   3.207  11.880
 1173TIP3    H153987   4.008   3.225  11.902
 1173TIP3    H253988   3.921   3.132  11.819
 1174TIP3   OH253989   5.620   3.647  12.847
 1174TIP3    H153990   5.598   3.674  12.936
 1174TIP3    H253991   5.672   3.719  12.810
 1175TIP3   OH253992   5.582   3.612  13.136
 1175TIP3    H153993   5.513   3.551  13.097
 1175TIP3    H253994   5.604   3.561  13.213
 1176TIP3   OH253995   5.550   3.031  12.143
 1176TIP3    H153996   5.634   3.050  12.181
 1176TIP3    H253997   5.536   2.949  12.200
 1177TIP3   OH253998   5.575   2.836  12.337
 1177TIP3    H153999   5.507   2.771  12.366
 1177TIP3    H254000   5.638   2.835  12.409
 1178TIP3   OH254001   5.551   3.093  12.824
 1178TIP3    H154002   5.642   3.069  12.807
 1178TIP3    H254003   5.559   3.191  12.827
 1179TIP3   OH254004   5.359   2.676  12.400
 1179TIP3    H154005   5.344   2.581  12.386
 1179TIP3    H254006   5.312   2.697  12.480
 1180TIP3   OH254007   3.860   2.886  12.801
 1180TIP3    H154008   3.874   2.875  12.704
 1180TIP3    H254009   3.948   2.867  12.834
 1181TIP3   OH254010   5.361   2.256  11.729
 1181TIP3    H154011   5.420   2.256  11.807
 1181TIP3    H254012   5.278   2.244  11.773
 1182TIP3   OH254013   5.389   2.493  12.737
 1182TIP3    H154014   5.484   2.515  12.748
 1182TIP3    H254015   5.324   2.520  12.805
 1183TIP3   OH254016   5.394   2.590  13.110
 1183TIP3    H154017   5.297   2.614  13.121
 1183TIP3    H254018   5.435   2.674  13.074
 1184TIP3   OH254019   5.633   1.961  13.599
 1184TIP3    H154020   5.648   1.900  13.527
 1184TIP3    H254021   5.629   2.047  13.549
 1185TIP3   OH254022   5.395   2.157  12.239
 1185TIP3    H154023   5.410   2.118  12.327
 1185TIP3    H254024   5.325   2.100  12.202
 1186TIP3   OH254025   3.762   2.546  12.798
 1186TIP3    H154026   3.827   2.520  12.730
 1186TIP3    H254027   3.814   2.618  12.836
 1187TIP3   OH254028   5.575   2.174  13.432
 1187TIP3    H154029   5.482   2.202  13.433
 1187TIP3    H254030   5.579   2.123  13.351
 1188TIP3   OH254031   5.560   2.176  11.894
 1188TIP3    H154032   5.586   2.083  11.896
 1188TIP3    H254033   5.627   2.245  11.916
 1189TIP3   OH254034   4.022   3.356  13.463
 1189TIP3    H154035   3.941   3.380  13.414
 1189TIP3    H254036   3.988   3.353  13.553
 1190TIP3   OH254037   4.315   3.449  13.074
 1190TIP3    H154038   4.277   3.539  13.061
 1190TIP3    H254039   4.409   3.471  13.061
 1191TIP3   OH254040   5.476   1.991  13.212
 1191TIP3    H154041   5.389   2.012  13.176
 1191TIP3    H254042   5.493   1.905  13.166
 1192TIP3   OH254043   4.056   3.781  13.089
 1192TIP3    H154044   3.985   3.832  13.046
 1192TIP3    H254045   4.015   3.763  13.175
 1193TIP3   OH254046   4.299   3.721  12.985
 1193TIP3    H154047   4.216   3.750  13.031
 1193TIP3    H254048   4.302   3.793  12.917
 1194TIP3   OH254049   3.997   3.636  12.772
 1194TIP3    H154050   3.989   3.602  12.864
 1194TIP3    H254051   4.083   3.609  12.744
 1195TIP3   OH254052   4.221   3.499  12.632
 1195TIP3    H154053   4.182   3.423  12.679
 1195TIP3    H254054   4.289   3.536  12.696
 1196TIP3   OH254055   4.448   3.546  12.733
 1196TIP3    H154056   4.513   3.483  12.703
 1196TIP3    H254057   4.473   3.568  12.825
 1197TIP3   OH254058   4.823   2.126  12.655
 1197TIP3    H154059   4.747   2.071  12.666
 1197TIP3    H254060   4.872   2.082  12.585
 1198TIP3   OH254061   5.327   1.936  12.657
 1198TIP3    H154062   5.389   1.988  12.601
 1198TIP3    H254063   5.239   1.968  12.628
 1199TIP3   OH254064   5.497   2.053  12.481
 1199TIP3    H154065   5.565   1.999  12.438
 1199TIP3    H254066   5.544   2.137  12.486
 1200TIP3   OH254067   5.066   1.986  12.572
 1200TIP3    H154068   5.070   1.995  12.476
 1200TIP3    H254069   5.031   1.895  12.584
 1201TIP3   OH254070   5.199   1.985  12.131
 1201TIP3    H154071   5.128   2.049  12.127
 1201TIP3    H254072   5.152   1.905  12.162
 1202TIP3   OH254073   3.933   3.569  12.100
 1202TIP3    H154074   3.855   3.560  12.039
 1202TIP3    H254075   3.912   3.661  12.118
 1203TIP3   OH254076   4.090   3.636  11.811
 1203TIP3    H154077   4.083   3.696  11.886
 1203TIP3    H254078   4.186   3.614  11.806
 1204TIP3   OH254079   5.083   1.916  13.554
 1204TIP3    H154080   5.092   1.864  13.637
 1204TIP3    H254081   5.174   1.909  13.519
 1205TIP3   OH254082   6.849   2.904  12.414
 1205TIP3    H154083   6.845   3.002  12.411
 1205TIP3    H254084   6.775   2.881  12.359
 1206TIP3   OH254085   6.729   2.835  12.774
 1206TIP3    H154086   6.733   2.758  12.828
 1206TIP3    H254087   6.705   2.790  12.690
 1207TIP3   OH254088   6.059   3.243  12.769
 1207TIP3    H154089   6.027   3.154  12.747
 1207TIP3    H254090   6.154   3.228  12.789
 1208TIP3   OH254091   6.890   2.517  12.847
 1208TIP3    H154092   6.902   2.422  12.837
 1208TIP3    H254093   6.879   2.536  12.749
 1209TIP3   OH254094   6.971   2.337  12.404
 1209TIP3    H154095   7.037   2.304  12.468
 1209TIP3    H254096   7.030   2.388  12.347
 1210TIP3   OH254097   6.820   3.159  12.327
 1210TIP3    H154098   6.790   3.138  12.239
 1210TIP3    H254099   6.789   3.251  12.329
 1211TIP3   OH254100   6.360   2.984  13.015
 1211TIP3    H154101   6.275   3.038  13.019
 1211TIP3    H254102   6.407   3.052  12.962
 1212TIP3   OH254103   6.182   3.182  13.081
 1212TIP3    H154104   6.182   3.272  13.042
 1212TIP3    H254105   6.095   3.165  13.122
 1213TIP3   OH254106   7.159   3.309  12.832
 1213TIP3    H154107   7.064   3.314  12.842
 1213TIP3    H254108   7.182   3.401  12.816
 1214TIP3   OH254109   7.183   2.142  12.975
 1214TIP3    H154110   7.113   2.200  12.948
 1214TIP3    H254111   7.261   2.178  12.925
 1215TIP3   OH254112   6.484   1.948  12.719
 1215TIP3    H154113   6.468   1.852  12.706
 1215TIP3    H254114   6.396   1.981  12.744
 1216TIP3   OH254115   6.714   2.674  11.877
 1216TIP3    H154116   6.794   2.687  11.927
 1216TIP3    H254117   6.751   2.620  11.805
 1217TIP3   OH254118   6.154   3.462  13.351
 1217TIP3    H154119   6.177   3.413  13.271
 1217TIP3    H254120   6.080   3.411  13.392
 1218TIP3   OH254121   7.317   1.938  12.011
 1218TIP3    H154122   7.226   1.955  12.045
 1218TIP3    H254123   7.338   2.026  11.975
 1219TIP3   OH254124   7.418   3.394  11.852
 1219TIP3    H154125   7.458   3.479  11.872
 1219TIP3    H254126   7.505   3.342  11.849
 1220TIP3   OH254127   5.704   3.338  12.764
 1220TIP3    H154128   5.795   3.320  12.785
 1220TIP3    H254129   5.681   3.407  12.829
 1221TIP3   OH254130   7.534   3.402  13.346
 1221TIP3    H154131   7.505   3.308  13.344
 1221TIP3    H254132   7.445   3.433  13.383
 1222TIP3   OH254133   6.683   2.015  13.134
 1222TIP3    H154134   6.723   1.963  13.205
 1222TIP3    H254135   6.586   1.991  13.140
 1223TIP3   OH254136   7.126   2.339  13.319
 1223TIP3    H154137   7.035   2.319  13.350
 1223TIP3    H254138   7.144   2.428  13.283
 1224TIP3   OH254139   6.650   2.255  11.865
 1224TIP3    H154140   6.615   2.267  11.954
 1224TIP3    H254141   6.619   2.173  11.830
 1225TIP3   OH254142   6.690   2.614  13.416
 1225TIP3    H154143   6.631   2.549  13.463
 1225TIP3    H254144   6.766   2.611  13.479
 1226TIP3   OH254145   6.880   2.547  12.563
 1226TIP3    H154146   6.854   2.604  12.490
 1226TIP3    H254147   6.891   2.461  12.518
 1227TIP3   OH254148   6.793   2.708  13.028
 1227TIP3    H154149   6.835   2.652  12.957
 1227TIP3    H254150   6.756   2.641  13.087
 1228TIP3   OH254151   6.920   2.233  12.836
 1228TIP3    H154152   6.843   2.229  12.893
 1228TIP3    H254153   6.877   2.205  12.752
 1229TIP3   OH254154   7.247   3.798  13.463
 1229TIP3    H154155   7.278   3.829  13.376
 1229TIP3    H254156   7.320   3.827  13.519
 1230TIP3   OH254157   6.624   2.585  12.707
 1230TIP3    H154158   6.667   2.529  12.640
 1230TIP3    H254159   6.588   2.519  12.766
 1231TIP3   OH254160   6.487   2.432  12.930
 1231TIP3    H154161   6.392   2.448  12.943
 1231TIP3    H254162   6.526   2.446  13.015
 1232TIP3   OH254163   6.659   3.044  13.225
 1232TIP3    H154164   6.655   3.030  13.322
 1232TIP3    H254165   6.668   3.144  13.228
 1233TIP3   OH254166   6.455   2.782  13.418
 1233TIP3    H154167   6.405   2.734  13.352
 1233TIP3    H254168   6.537   2.733  13.440
 1234TIP3   OH254169   7.289   3.410  12.090
 1234TIP3    H154170   7.276   3.327  12.140
 1234TIP3    H254171   7.349   3.378  12.020
 1235TIP3   OH254172   6.818   3.098  12.979
 1235TIP3    H154173   6.794   3.093  13.071
 1235TIP3    H254174   6.889   3.035  12.962
 1236TIP3   OH254175   7.049   3.222  11.901
 1236TIP3    H154176   7.083   3.158  11.966
 1236TIP3    H254177   6.958   3.188  11.891
 1237TIP3   OH254178   7.094   3.563  13.230
 1237TIP3    H154179   7.034   3.510  13.178
 1237TIP3    H254180   7.124   3.629  13.165
 1238TIP3   OH254181   5.871   3.469  13.012
 1238TIP3    H154182   5.895   3.376  13.000
 1238TIP3    H254183   5.905   3.482  13.097
 1239TIP3   OH254184   6.446   3.310  11.727
 1239TIP3    H154185   6.488   3.239  11.678
 1239TIP3    H254186   6.429   3.276  11.817
 1240TIP3   OH254187   6.351   3.272  11.979
 1240TIP3    H154188   6.367   3.219  12.059
 1240TIP3    H254189   6.351   3.365  12.011
 1241TIP3   OH254190   6.786   2.272  13.072
 1241TIP3    H154191   6.851   2.243  13.132
 1241TIP3    H254192   6.736   2.185  13.069
 1242TIP3   OH254193   6.860   2.222  12.164
 1242TIP3    H154194   6.882   2.280  12.088
 1242TIP3    H254195   6.913   2.268  12.233
 1243TIP3   OH254196   6.654   2.516  13.166
 1243TIP3    H154197   6.643   2.550  13.257
 1243TIP3    H254198   6.679   2.423  13.179
 1244TIP3   OH254199   6.668   2.104  12.338
 1244TIP3    H154200   6.634   2.165  12.407
 1244TIP3    H254201   6.735   2.165  12.299
 1245TIP3   OH254202   6.351   3.537  12.048
 1245TIP3    H154203   6.381   3.615  11.999
 1245TIP3    H254204   6.334   3.572  12.137
 1246TIP3   OH254205   6.052   3.265  11.907
 1246TIP3    H154206   6.118   3.320  11.952
 1246TIP3    H254207   6.111   3.208  11.855
 1247TIP3   OH254208   7.217   3.594  12.825
 1247TIP3    H154209   7.209   3.662  12.755
 1247TIP3    H254210   7.314   3.598  12.841
 1248TIP3   OH254211   5.869   3.378  12.269
 1248TIP3    H154212   5.792   3.435  12.277
 1248TIP3    H254213   5.931   3.448  12.237
 1249TIP3   OH254214   5.800   3.650  13.438
 1249TIP3    H154215   5.842   3.641  13.529
 1249TIP3    H254216   5.736   3.575  13.446
 1250TIP3   OH254217   6.664   3.501  11.749
 1250TIP3    H154218   6.593   3.439  11.773
 1250TIP3    H254219   6.733   3.441  11.724
 1251TIP3   OH254220   7.098   3.387  11.684
 1251TIP3    H154221   7.119   3.333  11.767
 1251TIP3    H254222   7.174   3.433  11.644
 1252TIP3   OH254223   6.213   3.071  11.747
 1252TIP3    H154224   6.217   2.997  11.814
 1252TIP3    H254225   6.289   3.053  11.692
 1253TIP3   OH254226   6.464   3.041  13.475
 1253TIP3    H154227   6.403   3.065  13.404
 1253TIP3    H254228   6.456   2.942  13.481
 1254TIP3   OH254229   6.754   3.184  11.732
 1254TIP3    H154230   6.719   3.194  11.821
 1254TIP3    H254231   6.738   3.090  11.712
 1255TIP3   OH254232   6.438   2.704  11.808
 1255TIP3    H154233   6.422   2.675  11.719
 1255TIP3    H254234   6.535   2.700  11.818
 1256TIP3   OH254235   6.764   2.907  13.544
 1256TIP3    H154236   6.861   2.916  13.542
 1256TIP3    H254237   6.748   2.840  13.613
 1257TIP3   OH254238   6.445   2.730  13.058
 1257TIP3    H154239   6.529   2.718  13.009
 1257TIP3    H254240   6.402   2.820  13.043
 1258TIP3   OH254241   6.935   2.554  13.592
 1258TIP3    H154242   6.958   2.461  13.603
 1258TIP3    H254243   7.020   2.600  13.605
 1259TIP3   OH254244   6.419   1.975  13.128
 1259TIP3    H154245   6.400   2.069  13.109
 1259TIP3    H254246   6.344   1.942  13.076
 1260TIP3   OH254247   6.549   2.397  13.477
 1260TIP3    H154248   6.519   2.396  13.571
 1260TIP3    H254249   6.463   2.385  13.434
 1261TIP3   OH254250   6.824   2.319  13.376
 1261TIP3    H154251   6.729   2.333  13.402
 1261TIP3    H254252   6.849   2.265  13.456
 1262TIP3   OH254253   6.960   2.186  13.578
 1262TIP3    H154254   6.977   2.091  13.587
 1262TIP3    H254255   6.956   2.215  13.673
 1263TIP3   OH254256   6.453   1.915  13.397
 1263TIP3    H154257   6.504   1.834  13.381
 1263TIP3    H254258   6.423   1.934  13.305
 1264TIP3   OH254259   5.801   3.237  11.839
 1264TIP3    H154260   5.893   3.238  11.881
 1264TIP3    H254261   5.810   3.157  11.784
 1265TIP3   OH254262   5.731   3.585  12.556
 1265TIP3    H154263   5.685   3.506  12.586
 1265TIP3    H254264   5.757   3.620  12.645
 1266TIP3   OH254265   7.493   3.655  12.849
 1266TIP3    H154266   7.489   3.678  12.943
 1266TIP3    H254267   7.562   3.712  12.812
 1267TIP3   OH254268   7.467   3.605  13.132
 1267TIP3    H154269   7.399   3.539  13.100
 1267TIP3    H254270   7.482   3.568  13.218
 1268TIP3   OH254271   7.294   3.188  13.605
 1268TIP3    H154272   7.207   3.176  13.643
 1268TIP3    H254273   7.328   3.268  13.647
 1269TIP3   OH254274   7.289   3.406  13.059
 1269TIP3    H154275   7.220   3.413  13.126
 1269TIP3    H254276   7.245   3.342  12.999
 1270TIP3   OH254277   7.257   2.270  11.744
 1270TIP3    H154278   7.315   2.234  11.812
 1270TIP3    H254279   7.167   2.241  11.764
 1271TIP3   OH254280   7.451   2.173  13.436
 1271TIP3    H154281   7.360   2.198  13.424
 1271TIP3    H254282   7.472   2.126  13.353
 1272TIP3   OH254283   7.460   2.162  11.902
 1272TIP3    H154284   7.504   2.098  11.846
 1272TIP3    H254285   7.526   2.234  11.903
 1273TIP3   OH254286   5.680   2.033  13.043
 1273TIP3    H154287   5.615   2.013  13.112
 1273TIP3    H254288   5.644   2.100  12.986
 1274TIP3   OH254289   5.905   3.379  13.457
 1274TIP3    H154290   5.818   3.361  13.417
 1274TIP3    H254291   5.886   3.344  13.547
 1275TIP3   OH254292   7.349   1.986  13.220
 1275TIP3    H154293   7.276   2.015  13.165
 1275TIP3    H254294   7.383   1.914  13.163
 1276TIP3   OH254295   5.931   3.782  13.081
 1276TIP3    H154296   5.869   3.831  13.022
 1276TIP3    H254297   5.896   3.820  13.160
 1277TIP3   OH254298   6.187   3.753  12.997
 1277TIP3    H154299   6.096   3.753  13.024
 1277TIP3    H254300   6.186   3.791  12.909
 1278TIP3   OH254301   7.145   3.772  13.032
 1278TIP3    H154302   7.142   3.865  13.009
 1278TIP3    H254303   7.169   3.728  12.947
 1279TIP3   OH254304   5.882   3.641  12.780
 1279TIP3    H154305   5.880   3.600  12.868
 1279TIP3    H254306   5.968   3.612  12.744
 1280TIP3   OH254307   6.703   2.127  12.647
 1280TIP3    H154308   6.630   2.066  12.670
 1280TIP3    H254309   6.758   2.073  12.591
 1281TIP3   OH254310   5.795   1.990  11.976
 1281TIP3    H154311   5.878   2.041  11.973
 1281TIP3    H254312   5.762   2.015  12.068
 1282TIP3   OH254313   6.396   1.980  12.405
 1282TIP3    H154314   6.480   2.023  12.409
 1282TIP3    H254315   6.376   1.962  12.498
 1283TIP3   OH254316   6.945   1.988  12.570
 1283TIP3    H154317   6.957   1.995  12.476
 1283TIP3    H254318   6.918   1.895  12.587
 1284TIP3   OH254319   7.083   1.986  12.129
 1284TIP3    H154320   7.014   2.053  12.126
 1284TIP3    H254321   7.043   1.904  12.162
 1285TIP3   OH254322   5.806   3.565  12.099
 1285TIP3    H154323   5.737   3.569  12.030
 1285TIP3    H254324   5.810   3.660  12.118
 1286TIP3   OH254325   5.980   2.155  11.873
 1286TIP3    H154326   6.012   2.147  11.786
 1286TIP3    H254327   6.049   2.209  11.925
 1287TIP3   OH254328   5.924   2.047  13.390
 1287TIP3    H154329   5.894   1.964  13.421
 1287TIP3    H254330   6.022   2.051  13.396
 1288TIP3   OH254331   5.987   3.653  11.800
 1288TIP3    H154332   5.960   3.686  11.886
 1288TIP3    H254333   6.065   3.601  11.819
 1289TIP3   OH254334   6.959   1.906  13.559
 1289TIP3    H154335   6.992   1.868  13.642
 1289TIP3    H254336   7.050   1.916  13.516
 1290TIP3   OH254337   7.292   3.521  13.415
 1290TIP3    H154338   7.207   3.504  13.368
 1290TIP3    H254339   7.275   3.614  13.441
 1291TIP3   OH254340   8.050   2.294  12.610
 1291TIP3    H154341   8.079   2.383  12.575
 1291TIP3    H254342   8.031   2.266  12.519
 1292TIP3   OH254343   8.057   3.205  13.086
 1292TIP3    H154344   8.044   3.281  13.032
 1292TIP3    H254345   7.970   3.177  13.117
 1293TIP3   OH254346   7.920   2.852  13.209
 1293TIP3    H154347   7.922   2.920  13.276
 1293TIP3    H254348   7.830   2.855  13.174
 1294TIP3   OH254349   8.055   3.427  13.363
 1294TIP3    H154350   8.056   3.426  13.266
 1294TIP3    H254351   7.963   3.423  13.393
 1295TIP3   OH254352   7.828   3.209  13.211
 1295TIP3    H154353   7.854   3.145  13.281
 1295TIP3    H254354   7.756   3.153  13.172
 1296TIP3   OH254355   8.099   2.039  12.799
 1296TIP3    H154356   8.012   2.029  12.754
 1296TIP3    H254357   8.094   2.131  12.825
 1297TIP3   OH254358   8.101   2.530  12.905
 1297TIP3    H154359   8.040   2.531  12.978
 1297TIP3    H254360   8.117   2.624  12.884
 1298TIP3   OH254361   8.072   2.576  11.907
 1298TIP3    H154362   8.021   2.547  11.833
 1298TIP3    H254363   8.163   2.601  11.881
 1299TIP3   OH254364   7.898   3.034  13.416
 1299TIP3    H154365   7.947   3.089  13.466
 1299TIP3    H254366   7.808   3.044  13.461
 1300TIP3   OH254367   7.970   2.176  12.341
 1300TIP3    H154368   7.944   2.084  12.347
 1300TIP3    H254369   8.059   2.191  12.308
 1301TIP3   OH254370   7.745   3.457  13.027
 1301TIP3    H154371   7.782   3.372  12.997
 1301TIP3    H254372   7.815   3.507  13.061
 1302TIP3   OH254373  -0.049   2.226  11.988
 1302TIP3    H154374  -0.054   2.313  12.037
 1302TIP3    H254375   0.047   2.216  12.006
 1303TIP3   OH254376   7.948   3.279  11.889
 1303TIP3    H154377   8.003   3.318  11.959
 1303TIP3    H254378   7.995   3.199  11.860
 1304TIP3   OH254379   7.863   1.996  12.699
 1304TIP3    H154380   7.827   2.017  12.611
 1304TIP3    H254381   7.808   1.924  12.732
 1305TIP3   OH254382   7.671   3.047  13.538
 1305TIP3    H154383   7.671   2.951  13.519
 1305TIP3    H254384   7.580   3.058  13.498
 1306TIP3   OH254385   8.104   3.080  11.751
 1306TIP3    H154386   8.102   2.998  11.807
 1306TIP3    H254387   8.164   3.048  11.684
 1307TIP3   OH254388   8.023   2.533  13.518
 1307TIP3    H154389   7.949   2.472  13.504
 1307TIP3    H254390   8.094   2.488  13.467
 1308TIP3   OH254391   7.672   3.240  11.842
 1308TIP3    H154392   7.754   3.233  11.895
 1308TIP3    H254393   7.666   3.151  11.805
 1309TIP3   OH254394   7.524   3.762  12.378
 1309TIP3    H154395   7.476   3.713  12.311
 1309TIP3    H254396   7.574   3.693  12.426
 1310TIP3   OH254397   7.622   3.574  12.551
 1310TIP3    H154398   7.593   3.485  12.570
 1310TIP3    H254399   7.649   3.610  12.636
 1311TIP3   OH254400   7.788   3.369  13.450
 1311TIP3    H154401   7.695   3.360  13.419
 1311TIP3    H254402   7.766   3.353  13.543
 1312TIP3   OH254403   8.084   3.466  13.086
 1312TIP3    H154404   8.040   3.545  13.048
 1312TIP3    H254405   8.167   3.511  13.078
 1313TIP3   OH254406   7.824   1.989  12.416
 1313TIP3    H154407   7.736   1.970  12.382
 1313TIP3    H254408   7.863   1.902  12.435
 1314TIP3   OH254409   7.712   1.970  12.000
 1314TIP3    H154410   7.739   2.047  11.952
 1314TIP3    H254411   7.644   2.017  12.055
 1315TIP3   OH254412   7.895   2.161  11.837
 1315TIP3    H154413   7.938   2.084  11.816
 1315TIP3    H254414   7.938   2.203  11.920
 1316TIP3   OH254415   8.005   1.987  13.510
 1316TIP3    H154416   8.084   1.953  13.463
 1316TIP3    H254417   7.946   1.912  13.541
 1317TIP3   OH254418   7.879   3.644  11.800
 1317TIP3    H154419   7.843   3.692  11.877
 1317TIP3    H254420   7.959   3.609  11.830
 1318TIP3   OH254421   1.070   4.717  12.764
 1318TIP3    H154422   1.075   4.653  12.836
 1318TIP3    H254423   1.038   4.664  12.690
 1319TIP3   OH254424  -0.078   4.578  12.297
 1319TIP3    H154425   0.010   4.599  12.314
 1319TIP3    H254426  -0.058   4.481  12.286
 1320TIP3   OH254427   0.917   4.956  12.820
 1320TIP3    H154428   0.942   4.897  12.747
 1320TIP3    H254429   1.001   4.973  12.858
 1321TIP3   OH254430   1.227   4.404  12.842
 1321TIP3    H154431   1.244   4.308  12.840
 1321TIP3    H254432   1.219   4.419  12.746
 1322TIP3   OH254433   0.557   4.208  12.572
 1322TIP3    H154434   0.560   4.295  12.530
 1322TIP3    H254435   0.505   4.155  12.509
 1323TIP3   OH254436   0.239   4.470  12.649
 1323TIP3    H154437   0.287   4.394  12.689
 1323TIP3    H254438   0.215   4.440  12.562
 1324TIP3   OH254439   0.723   4.607  12.567
 1324TIP3    H154440   0.787   4.553  12.615
 1324TIP3    H254441   0.667   4.541  12.521
 1325TIP3   OH254442   0.432   4.101  12.980
 1325TIP3    H154443   0.412   4.147  12.896
 1325TIP3    H254444   0.355   4.126  13.033
 1326TIP3   OH254445   0.388   4.289  12.768
 1326TIP3    H154446   0.453   4.352  12.806
 1326TIP3    H254447   0.444   4.241  12.703
 1327TIP3   OH254448   1.592   5.022  13.188
 1327TIP3    H154449   1.627   4.960  13.122
 1327TIP3    H254450   1.633   5.107  13.162
 1328TIP3   OH254451   1.046   4.702  12.138
 1328TIP3    H154452   0.997   4.782  12.165
 1328TIP3    H254453   1.140   4.725  12.120
 1329TIP3   OH254454   1.062   4.578  11.873
 1329TIP3    H154455   1.137   4.555  11.933
 1329TIP3    H254456   1.088   4.506  11.809
 1330TIP3   OH254457   1.788   4.650  12.992
 1330TIP3    H154458   1.730   4.726  13.004
 1330TIP3    H254459   1.844   4.681  12.919
 1331TIP3   OH254460   1.389   4.550  13.170
 1331TIP3    H154461   1.393   4.628  13.228
 1331TIP3    H254462   1.328   4.583  13.102
 1332TIP3   OH254463   0.556   4.792  12.452
 1332TIP3    H154464   0.530   4.759  12.367
 1332TIP3    H254465   0.622   4.731  12.489
 1333TIP3   OH254466   1.236   5.230  12.890
 1333TIP3    H154467   1.203   5.302  12.945
 1333TIP3    H254468   1.205   5.143  12.923
 1334TIP3   OH254469   0.926   5.299  13.225
 1334TIP3    H154470   0.962   5.362  13.291
 1334TIP3    H254471   0.846   5.257  13.261
 1335TIP3   OH254472   1.576   4.438  13.400
 1335TIP3    H154473   1.539   4.479  13.321
 1335TIP3    H254474   1.592   4.345  13.367
 1336TIP3   OH254475   1.350   4.274  13.214
 1336TIP3    H154476   1.310   4.257  13.300
 1336TIP3    H254477   1.345   4.368  13.196
 1337TIP3   OH254478   1.423   4.767  11.794
 1337TIP3    H154479   1.436   4.731  11.705
 1337TIP3    H254480   1.514   4.793  11.817
 1338TIP3   OH254481   0.981   4.147  11.862
 1338TIP3    H154482   0.969   4.144  11.956
 1338TIP3    H254483   0.971   4.056  11.833
 1339TIP3   OH254484   0.573   4.427  12.916
 1339TIP3    H154485   0.500   4.423  12.980
 1339TIP3    H254486   0.565   4.517  12.881
 1340TIP3   OH254487   0.592   4.440  12.409
 1340TIP3    H154488   0.495   4.427  12.400
 1340TIP3    H254489   0.619   4.406  12.323
 1341TIP3   OH254490   1.031   4.501  13.421
 1341TIP3    H154491   0.975   4.427  13.456
 1341TIP3    H254492   1.112   4.494  13.473
 1342TIP3   OH254493   1.219   4.430  12.564
 1342TIP3    H154494   1.202   4.489  12.489
 1342TIP3    H254495   1.233   4.345  12.520
 1343TIP3   OH254496   0.333   4.452  13.086
 1343TIP3    H154497   0.341   4.492  13.174
 1343TIP3    H254498   0.294   4.366  13.105
 1344TIP3   OH254499   0.660   4.166  11.759
 1344TIP3    H154500   0.640   4.155  11.853
 1344TIP3    H254501   0.614   4.243  11.724
 1345TIP3   OH254502  -0.079   4.171  12.493
 1345TIP3    H154503   0.002   4.180  12.550
 1345TIP3    H254504  -0.025   4.139  12.418
 1346TIP3   OH254505   0.183   4.258  11.987
 1346TIP3    H154506   0.160   4.320  11.918
 1346TIP3    H254507   0.088   4.247  12.024
 1347TIP3   OH254508   1.142   4.595  13.024
 1347TIP3    H154509   1.180   4.528  12.961
 1347TIP3    H254510   1.099   4.537  13.089
 1348TIP3   OH254511   0.367   4.414  12.318
 1348TIP3    H154512   0.276   4.418  12.367
 1348TIP3    H254513   0.362   4.320  12.346
 1349TIP3   OH254514   0.666   4.346  12.149
 1349TIP3    H154515   0.761   4.354  12.175
 1349TIP3    H254516   0.657   4.418  12.086
 1350TIP3   OH254517   0.535   4.445  11.913
 1350TIP3    H154518   0.487   4.441  11.829
 1350TIP3    H254519   0.616   4.492  11.878
 1351TIP3   OH254520   0.956   4.467  12.697
 1351TIP3    H154521   1.012   4.410  12.642
 1351TIP3    H254522   0.937   4.406  12.771
 1352TIP3   OH254523   0.504   4.083  12.334
 1352TIP3    H154524   0.448   4.001  12.337
 1352TIP3    H254525   0.563   4.061  12.264
 1353TIP3   OH254526   0.819   4.307  12.933
 1353TIP3    H154527   0.732   4.350  12.947
 1353TIP3    H254528   0.873   4.329  13.011
 1354TIP3   OH254529   0.876   4.901  12.102
 1354TIP3    H154530   0.778   4.892  12.085
 1354TIP3    H254531   0.861   4.938  12.191
 1355TIP3   OH254532   1.591   4.839  12.980
 1355TIP3    H154533   1.653   4.885  12.923
 1355TIP3    H254534   1.505   4.848  12.938
 1356TIP3   OH254535   1.036   4.915  13.241
 1356TIP3    H154536   0.989   4.869  13.315
 1356TIP3    H254537   0.967   4.957  13.190
 1357TIP3   OH254538   1.075   5.060  11.998
 1357TIP3    H154539   1.069   5.150  12.039
 1357TIP3    H254540   1.001   5.018  12.042
 1358TIP3   OH254541   0.081   4.691  13.216
 1358TIP3    H154542   0.120   4.664  13.303
 1358TIP3    H254543   0.048   4.606  13.187
 1359TIP3   OH254544   0.789   4.660  13.427
 1359TIP3    H154545   0.754   4.625  13.343
 1359TIP3    H254546   0.879   4.623  13.429
 1360TIP3   OH254547   1.817   4.411  12.065
 1360TIP3    H154548   1.769   4.371  11.989
 1360TIP3    H254549   1.833   4.501  12.030
 1361TIP3   OH254550   0.201   4.686  11.881
 1361TIP3    H154551   0.259   4.757  11.913
 1361TIP3    H254552   0.113   4.721  11.907
 1362TIP3   OH254553   1.167   4.996  12.995
 1362TIP3    H154554   1.127   4.946  13.066
 1362TIP3    H254555   1.221   4.924  12.955
 1363TIP3   OH254556   0.256   4.182  13.168
 1363TIP3    H154557   0.165   4.214  13.159
 1363TIP3    H254558   0.242   4.093  13.195
 1364TIP3   OH254559   0.823   5.192  11.746
 1364TIP3    H154560   0.818   5.126  11.677
 1364TIP3    H254561   0.762   5.163  11.816
 1365TIP3   OH254562   0.978   4.391  13.164
 1365TIP3    H154563   0.984   4.440  13.248
 1365TIP3    H254564   1.039   4.317  13.178
 1366TIP3   OH254565   0.576   4.110  12.007
 1366TIP3    H154566   0.585   4.191  12.059
 1366TIP3    H254567   0.659   4.069  12.040
 1367TIP3   OH254568   0.243   4.423  11.826
 1367TIP3    H154569   0.226   4.519  11.836
 1367TIP3    H254570   0.154   4.394  11.792
 1368TIP3   OH254571   0.340   3.879  12.710
 1368TIP3    H154572   0.303   3.890  12.619
 1368TIP3    H254573   0.276   3.811  12.742
 1369TIP3   OH254574   1.004   5.390  11.739
 1369TIP3    H154575   0.936   5.329  11.774
 1369TIP3    H254576   1.080   5.333  11.729
 1370TIP3   OH254577   0.562   4.958  11.755
 1370TIP3    H154578   0.564   4.879  11.806
 1370TIP3    H254579   0.620   4.946  11.680
 1371TIP3   OH254580   0.813   4.924  13.472
 1371TIP3    H154581   0.746   4.942  13.406
 1371TIP3    H254582   0.799   4.826  13.483
 1372TIP3   OH254583   1.086   5.066  11.726
 1372TIP3    H154584   1.078   5.085  11.821
 1372TIP3    H254585   1.080   4.973  11.712
 1373TIP3   OH254586   1.359   4.909  13.223
 1373TIP3    H154587   1.443   4.963  13.216
 1373TIP3    H254588   1.292   4.975  13.229
 1374TIP3   OH254589   0.206   4.644  13.480
 1374TIP3    H154590   0.255   4.559  13.480
 1374TIP3    H254591   0.185   4.646  13.574
 1375TIP3   OH254592   0.604   4.544  13.221
 1375TIP3    H154593   0.541   4.613  13.246
 1375TIP3    H254594   0.639   4.579  13.138
 1376TIP3   OH254595   0.788   4.593  11.814
 1376TIP3    H154596   0.761   4.567  11.723
 1376TIP3    H254597   0.882   4.570  11.811
 1377TIP3   OH254598   1.105   4.800  13.552
 1377TIP3    H154599   1.202   4.796  13.546
 1377TIP3    H254600   1.087   4.725  13.612
 1378TIP3   OH254601   1.712   4.821  11.759
 1378TIP3    H154602   1.700   4.774  11.676
 1378TIP3    H254603   1.729   4.913  11.735
 1379TIP3   OH254604   0.642   4.278  13.327
 1379TIP3    H154605   0.659   4.210  13.258
 1379TIP3    H254606   0.635   4.360  13.274
 1380TIP3   OH254607   0.670   4.134  13.093
 1380TIP3    H154608   0.735   4.147  13.020
 1380TIP3    H254609   0.597   4.102  13.036
 1381TIP3   OH254610   0.841   4.674  13.110
 1381TIP3    H154611   0.907   4.645  13.046
 1381TIP3    H254612   0.798   4.747  13.065
 1382TIP3   OH254613   1.275   4.440  13.604
 1382TIP3    H154614   1.300   4.348  13.591
 1382TIP3    H254615   1.362   4.483  13.603
 1383TIP3   OH254616   1.407   4.723  13.417
 1383TIP3    H154617   1.387   4.794  13.354
 1383TIP3    H254618   1.503   4.715  13.400
 1384TIP3   OH254619   0.490   4.402  13.521
 1384TIP3    H154620   0.409   4.351  13.503
 1384TIP3    H254621   0.554   4.369  13.456
 1385TIP3   OH254622   0.890   4.295  13.481
 1385TIP3    H154623   0.859   4.271  13.570
 1385TIP3    H254624   0.811   4.275  13.427
 1386TIP3   OH254625   0.301   4.197  13.492
 1386TIP3    H154626   0.319   4.134  13.425
 1386TIP3    H254627   0.294   4.158  13.582
 1387TIP3   OH254628   0.130   5.111  11.872
 1387TIP3    H154629   0.225   5.120  11.888
 1387TIP3    H254630   0.129   5.050  11.797
 1388TIP3   OH254631   8.143   5.649  12.367
 1388TIP3    H154632   8.069   5.608  12.323
 1388TIP3    H254633   8.170   5.586  12.434
 1389TIP3   OH254634   1.636   5.071  13.612
 1389TIP3    H154635   1.547   5.071  13.647
 1389TIP3    H254636   1.677   5.154  13.640
 1390TIP3   OH254637   1.832   4.695  11.983
 1390TIP3    H154638   1.787   4.732  11.903
 1390TIP3    H254639   1.828   4.770  12.042
 1391TIP3   OH254640   1.668   4.760  13.365
 1391TIP3    H154641   1.733   4.687  13.373
 1391TIP3    H254642   1.729   4.835  13.355
 1392TIP3   OH254643   1.821   4.545  13.427
 1392TIP3    H154644   1.734   4.503  13.410
 1392TIP3    H254645   1.878   4.466  13.417
 1393TIP3   OH254646   1.561   4.320  12.243
 1393TIP3    H154647   1.585   4.227  12.246
 1393TIP3    H254648   1.636   4.360  12.199
 1394TIP3   OH254649   1.617   4.377  12.781
 1394TIP3    H154650   1.713   4.396  12.783
 1394TIP3    H254651   1.598   4.382  12.877
 1395TIP3   OH254652   1.617   4.448  13.049
 1395TIP3    H154653   1.538   4.476  13.098
 1395TIP3    H254654   1.670   4.529  13.041
 1396TIP3   OH254655   0.061   4.280  13.390
 1396TIP3    H154656   0.145   4.285  13.438
 1396TIP3    H254657   0.007   4.222  13.447
 1397TIP3   OH254658   1.826   3.871  13.565
 1397TIP3    H154659   1.850   3.816  13.488
 1397TIP3    H254660   1.848   3.958  13.527
 1398TIP3   OH254661   0.155   4.152  12.791
 1398TIP3    H154662   0.201   4.067  12.766
 1398TIP3    H254663   0.224   4.209  12.752
 1399TIP3   OH254664   0.025   4.444  12.777
 1399TIP3    H154665   0.090   4.407  12.716
 1399TIP3    H254666   0.078   4.512  12.819
 1400TIP3   OH254667   0.025   4.103  12.040
 1400TIP3    H154668  -0.024   4.103  12.129
 1400TIP3    H254669   0.101   4.110  12.101
 1401TIP3   OH254670   8.194   3.978  13.021
 1401TIP3    H154671   8.133   3.915  13.078
 1401TIP3    H254672   8.126   3.984  12.956
 1402TIP3   OH254673   0.314   3.817  12.459
 1402TIP3    H154674   0.240   3.846  12.400
 1402TIP3    H254675   0.355   3.748  12.412
 1403TIP3   OH254676   0.128   3.820  11.944
 1403TIP3    H154677   0.190   3.893  11.938
 1403TIP3    H254678   0.091   3.866  12.023
 1404TIP3   OH254679   0.366   4.086  11.856
 1404TIP3    H154680   0.346   3.989  11.859
 1404TIP3    H254681   0.405   4.076  11.945
 1405TIP3   OH254682   0.202   3.889  13.442
 1405TIP3    H154683   0.195   3.793  13.444
 1405TIP3    H254684   0.243   3.910  13.349
 1406TIP3   OH254685   0.524   3.834  13.588
 1406TIP3    H154686   0.589   3.811  13.518
 1406TIP3    H254687   0.465   3.755  13.601
 1407TIP3   OH254688   2.203   4.678  12.916
 1407TIP3    H154689   2.204   4.616  12.993
 1407TIP3    H254690   2.264   4.744  12.953
 1408TIP3   OH254691   3.332   5.014  12.593
 1408TIP3    H154692   3.289   4.942  12.639
 1408TIP3    H254693   3.333   5.083  12.662
 1409TIP3   OH254694   1.955   4.491  12.320
 1409TIP3    H154695   1.906   4.573  12.316
 1409TIP3    H254696   1.900   4.433  12.264
 1410TIP3   OH254697   2.034   4.712  12.537
 1410TIP3    H154698   2.047   4.624  12.578
 1410TIP3    H254699   2.096   4.710  12.464
 1411TIP3   OH254700   3.204   4.221  12.403
 1411TIP3    H154701   3.268   4.191  12.470
 1411TIP3    H254702   3.258   4.274  12.343
 1412TIP3   OH254703   2.094   4.450  12.643
 1412TIP3    H154704   2.166   4.396  12.681
 1412TIP3    H254705   2.095   4.421  12.550
 1413TIP3   OH254706   3.680   4.249  13.123
 1413TIP3    H154707   3.656   4.339  13.096
 1413TIP3    H254708   3.728   4.255  13.207
 1414TIP3   OH254709   2.309   4.095  12.971
 1414TIP3    H154710   2.296   4.158  12.899
 1414TIP3    H254711   2.246   4.126  13.040
 1415TIP3   OH254712   3.381   4.154  12.604
 1415TIP3    H154713   3.354   4.079  12.660
 1415TIP3    H254714   3.448   4.197  12.657
 1416TIP3   OH254715   3.385   5.196  12.835
 1416TIP3    H154716   3.288   5.207  12.842
 1416TIP3    H254717   3.410   5.287  12.812
 1417TIP3   OH254718   3.423   4.055  12.991
 1417TIP3    H154719   3.336   4.076  12.952
 1417TIP3    H254720   3.484   4.059  12.916
 1418TIP3   OH254721   2.711   3.831  12.714
 1418TIP3    H154722   2.699   3.736  12.711
 1418TIP3    H254723   2.627   3.867  12.747
 1419TIP3   OH254724   3.210   5.375  12.496
 1419TIP3    H154725   3.251   5.305  12.443
 1419TIP3    H254726   3.246   5.453  12.450
 1420TIP3   OH254727   3.332   5.162  12.338
 1420TIP3    H154728   3.299   5.094  12.279
 1420TIP3    H254729   3.331   5.119  12.426
 1421TIP3   OH254730   3.490   5.025  13.189
 1421TIP3    H154731   3.507   4.964  13.115
 1421TIP3    H254732   3.510   5.111  13.149
 1422TIP3   OH254733   3.673   4.658  13.003
 1422TIP3    H154734   3.613   4.734  12.998
 1422TIP3    H254735   3.729   4.665  12.923
 1423TIP3   OH254736   3.277   4.553  13.178
 1423TIP3    H154737   3.274   4.640  13.225
 1423TIP3    H254738   3.218   4.580  13.104
 1424TIP3   OH254739   3.119   5.231  12.888
 1424TIP3    H154740   3.093   5.296  12.955
 1424TIP3    H254741   3.093   5.146  12.931
 1425TIP3   OH254742   2.384   5.341  13.365
 1425TIP3    H154743   2.409   5.305  13.277
 1425TIP3    H254744   2.300   5.300  13.381
 1426TIP3   OH254745   3.655   5.271  11.836
 1426TIP3    H154746   3.673   5.358  11.877
 1426TIP3    H254747   3.745   5.234  11.850
 1427TIP3   OH254748   3.753   5.290  13.348
 1427TIP3    H154749   3.745   5.193  13.348
 1427TIP3    H254750   3.666   5.314  13.391
 1428TIP3   OH254751   3.476   4.450  13.459
 1428TIP3    H154752   3.456   4.522  13.395
 1428TIP3    H254753   3.505   4.360  13.430
 1429TIP3   OH254754   2.447   3.921  12.797
 1429TIP3    H154755   2.359   3.916  12.755
 1429TIP3    H254756   2.444   4.011  12.836
 1430TIP3   OH254757   2.912   3.889  13.131
 1430TIP3    H154758   2.948   3.855  13.212
 1430TIP3    H254759   2.814   3.883  13.142
 1431TIP3   OH254760   3.236   4.279  13.226
 1431TIP3    H154761   3.169   4.246  13.290
 1431TIP3    H254762   3.191   4.353  13.180
 1432TIP3   OH254763   3.319   4.754  11.797
 1432TIP3    H154764   3.319   4.739  11.702
 1432TIP3    H254765   3.405   4.795  11.815
 1433TIP3   OH254766   2.849   4.143  11.852
 1433TIP3    H154767   2.855   4.149  11.952
 1433TIP3    H254768   2.864   4.048  11.843
 1434TIP3   OH254769   2.216   4.455  13.088
 1434TIP3    H154770   2.228   4.493  13.177
 1434TIP3    H254771   2.179   4.368  13.107
 1435TIP3   OH254772   2.500   4.231  11.815
 1435TIP3    H154773   2.485   4.145  11.865
 1435TIP3    H254774   2.442   4.233  11.736
 1436TIP3   OH254775   1.883   4.158  12.484
 1436TIP3    H154776   1.951   4.162  12.554
 1436TIP3    H254777   1.931   4.126  12.407
 1437TIP3   OH254778   3.156   4.111  12.833
 1437TIP3    H154779   3.080   4.121  12.893
 1437TIP3    H254780   3.103   4.093  12.754
 1438TIP3   OH254781   3.478   5.675  13.463
 1438TIP3    H154782   3.499   5.713  13.376
 1438TIP3    H254783   3.549   5.707  13.520
 1439TIP3   OH254784   3.474   4.834  12.983
 1439TIP3    H154785   3.536   4.882  12.925
 1439TIP3    H254786   3.393   4.849  12.932
 1440TIP3   OH254787   3.151   4.215  11.896
 1440TIP3    H154788   3.056   4.218  11.916
 1440TIP3    H254789   3.173   4.286  11.961
 1441TIP3   OH254790   1.969   4.697  13.209
 1441TIP3    H154791   1.995   4.661  13.295
 1441TIP3    H254792   1.909   4.634  13.168
 1442TIP3   OH254793   3.135   5.186  13.222
 1442TIP3    H154794   3.043   5.209  13.203
 1442TIP3    H254795   3.134   5.222  13.314
 1443TIP3   OH254796   3.706   4.407  12.060
 1443TIP3    H154797   3.651   4.375  11.989
 1443TIP3    H254798   3.721   4.499  12.036
 1444TIP3   OH254799   3.706   4.992  13.343
 1444TIP3    H154800   3.619   5.014  13.305
 1444TIP3    H254801   3.767   4.993  13.266
 1445TIP3   OH254802   3.535   5.292  12.100
 1445TIP3    H154803   3.500   5.211  12.139
 1445TIP3    H254804   3.567   5.267  12.014
 1446TIP3   OH254805   3.255   4.776  12.812
 1446TIP3    H154806   3.163   4.750  12.801
 1446TIP3    H254807   3.298   4.700  12.767
 1447TIP3   OH254808   3.048   4.988  12.975
 1447TIP3    H154809   3.016   4.975  13.066
 1447TIP3    H254810   3.118   4.924  12.963
 1448TIP3   OH254811   3.283   5.091  11.886
 1448TIP3    H154812   3.311   5.047  11.968
 1448TIP3    H254813   3.185   5.088  11.892
 1449TIP3   OH254814   3.334   5.447  13.225
 1449TIP3    H154815   3.261   5.400  13.181
 1449TIP3    H254816   3.346   5.521  13.164
 1450TIP3   OH254817   3.721   5.540  11.893
 1450TIP3    H154818   3.805   5.590  11.901
 1450TIP3    H254819   3.664   5.595  11.951
 1451TIP3   OH254820   2.133   4.172  13.165
 1451TIP3    H154821   2.042   4.205  13.166
 1451TIP3    H254822   2.118   4.087  13.212
 1452TIP3   OH254823   3.363   4.957  12.112
 1452TIP3    H154824   3.343   4.878  12.164
 1452TIP3    H254825   3.457   4.967  12.131
 1453TIP3   OH254826   2.131   5.360  13.007
 1453TIP3    H154827   2.122   5.264  13.017
 1453TIP3    H254828   2.128   5.381  13.103
 1454TIP3   OH254829   2.669   5.194  11.727
 1454TIP3    H154830   2.716   5.125  11.681
 1454TIP3    H254831   2.665   5.162  11.818
 1455TIP3   OH254832   2.462   4.091  12.018
 1455TIP3    H154833   2.451   4.180  12.058
 1455TIP3    H254834   2.550   4.067  12.054
 1456TIP3   OH254835   3.476   4.189  13.257
 1456TIP3    H154836   3.383   4.169  13.232
 1456TIP3    H254837   3.522   4.160  13.171
 1457TIP3   OH254838   3.338   4.554  12.672
 1457TIP3    H154839   3.261   4.514  12.627
 1457TIP3    H254840   3.387   4.479  12.706
 1458TIP3   OH254841   2.284   5.144  11.916
 1458TIP3    H154842   2.344   5.214  11.944
 1458TIP3    H254843   2.333   5.095  11.850
 1459TIP3   OH254844   3.445   5.480  12.826
 1459TIP3    H154845   3.438   5.545  12.753
 1459TIP3    H254846   3.543   5.482  12.842
 1460TIP3   OH254847   2.196   3.891  12.704
 1460TIP3    H154848   2.181   3.892  12.607
 1460TIP3    H254849   2.153   3.807  12.730
 1461TIP3   OH254850   3.145   5.269  13.477
 1461TIP3    H154851   3.095   5.192  13.512
 1461TIP3    H254852   3.212   5.290  13.544
 1462TIP3   OH254853   3.356   5.366  11.763
 1462TIP3    H154854   3.368   5.287  11.821
 1462TIP3    H254855   3.435   5.396  11.731
 1463TIP3   OH254856   1.989   4.909  13.555
 1463TIP3    H154857   2.037   4.843  13.502
 1463TIP3    H254858   1.944   4.961  13.485
 1464TIP3   OH254859   3.247   4.906  13.222
 1464TIP3    H154860   3.323   4.968  13.218
 1464TIP3    H254861   3.178   4.976  13.231
 1465TIP3   OH254862   2.085   4.638  13.485
 1465TIP3    H154863   2.140   4.560  13.474
 1465TIP3    H254864   2.070   4.646  13.579
 1466TIP3   OH254865   2.993   4.799  13.554
 1466TIP3    H154866   3.089   4.802  13.550
 1466TIP3    H254867   2.975   4.718  13.604
 1467TIP3   OH254868   3.593   4.820  11.760
 1467TIP3    H154869   3.586   4.772  11.676
 1467TIP3    H254870   3.621   4.908  11.734
 1468TIP3   OH254871   3.170   4.439  13.584
 1468TIP3    H154872   3.184   4.347  13.608
 1468TIP3    H254873   3.249   4.487  13.615
 1469TIP3   OH254874   3.299   4.708  13.405
 1469TIP3    H154875   3.268   4.792  13.360
 1469TIP3    H254876   3.395   4.727  13.404
 1470TIP3   OH254877   2.643   3.861  13.125
 1470TIP3    H154878   2.636   3.956  13.106
 1470TIP3    H254879   2.569   3.826  13.072
 1471TIP3   OH254880   3.207   4.074  13.589
 1471TIP3    H154881   3.197   3.977  13.587
 1471TIP3    H254882   3.173   4.098  13.676
 1472TIP3   OH254883   2.181   4.196  13.493
 1472TIP3    H154884   2.209   4.126  13.432
 1472TIP3    H254885   2.179   4.153  13.579
 1473TIP3   OH254886   2.670   3.798  13.389
 1473TIP3    H154887   2.736   3.726  13.386
 1473TIP3    H254888   2.657   3.820  13.294
 1474TIP3   OH254889   3.717   5.545  12.847
 1474TIP3    H154890   3.725   5.558  12.942
 1474TIP3    H254891   3.789   5.600  12.812
 1475TIP3   OH254892   3.678   5.499  13.140
 1475TIP3    H154893   3.627   5.423  13.104
 1475TIP3    H254894   3.730   5.456  13.210
 1476TIP3   OH254895   3.521   5.075  13.604
 1476TIP3    H154896   3.434   5.071  13.648
 1476TIP3    H254897   3.561   5.153  13.649
 1477TIP3   OH254898   3.671   4.981  12.838
 1477TIP3    H154899   3.750   4.947  12.796
 1477TIP3    H254900   3.679   5.077  12.817
 1478TIP3   OH254901   3.519   5.272  13.065
 1478TIP3    H154902   3.451   5.310  13.123
 1478TIP3    H254903   3.465   5.236  12.992
 1479TIP3   OH254904   3.552   4.422  11.828
 1479TIP3    H154905   3.569   4.492  11.765
 1479TIP3    H254906   3.548   4.339  11.781
 1480TIP3   OH254907   1.972   4.769  12.795
 1480TIP3    H154908   1.994   4.759  12.701
 1480TIP3    H254909   2.059   4.755  12.839
 1481TIP3   OH254910   3.558   4.753  13.360
 1481TIP3    H154911   3.627   4.685  13.377
 1481TIP3    H254912   3.612   4.836  13.363
 1482TIP3   OH254913   3.716   4.549  13.418
 1482TIP3    H154914   3.629   4.511  13.423
 1482TIP3    H254915   3.774   4.473  13.417
 1483TIP3   OH254916   3.475   4.160  11.753
 1483TIP3    H154917   3.551   4.125  11.809
 1483TIP3    H254918   3.407   4.106  11.795
 1484TIP3   OH254919   3.441   4.318  12.243
 1484TIP3    H154920   3.469   4.225  12.247
 1484TIP3    H254921   3.516   4.361  12.200
 1485TIP3   OH254922   3.499   4.455  13.087
 1485TIP3    H154923   3.413   4.493  13.065
 1485TIP3    H254924   3.559   4.519  13.036
 1486TIP3   OH254925   1.937   4.306  13.418
 1486TIP3    H154926   2.029   4.276  13.431
 1486TIP3    H254927   1.883   4.226  13.435
 1487TIP3   OH254928   3.735   3.850  13.598
 1487TIP3    H154929   3.770   3.784  13.536
 1487TIP3    H254930   3.747   3.932  13.545
 1488TIP3   OH254931   3.500   4.046  12.246
 1488TIP3    H154932   3.519   3.997  12.328
 1488TIP3    H254933   3.441   3.986  12.198
 1489TIP3   OH254934   2.058   4.127  12.692
 1489TIP3    H154935   2.101   4.047  12.729
 1489TIP3    H254936   2.100   4.197  12.743
 1490TIP3   OH254937   1.883   4.429  12.803
 1490TIP3    H154938   1.939   4.406  12.726
 1490TIP3    H254939   1.924   4.510  12.832
 1491TIP3   OH254940   3.686   4.060  13.434
 1491TIP3    H154941   3.593   4.085  13.427
 1491TIP3    H254942   3.701   4.013  13.351
 1492TIP3   OH254943   3.686   4.054  11.890
 1492TIP3    H154944   3.734   3.981  11.849
 1492TIP3    H254945   3.758   4.118  11.906
 1493TIP3   OH254946   3.394   5.555  12.402
 1493TIP3    H154947   3.464   5.518  12.345
 1493TIP3    H254948   3.445   5.599  12.471
 1494TIP3   OH254949   2.170   5.674  13.089
 1494TIP3    H154950   2.090   5.706  13.046
 1494TIP3    H254951   2.136   5.633  13.171
 1495TIP3   OH254952   3.121   5.498  13.002
 1495TIP3    H154953   3.029   5.520  12.985
 1495TIP3    H254954   3.166   5.584  13.002
 1496TIP3   OH254955   3.376   5.653  13.033
 1496TIP3    H154956   3.369   5.749  13.010
 1496TIP3    H254957   3.399   5.614  12.946
 1497TIP3   OH254958   3.440   3.832  12.653
 1497TIP3    H154959   3.506   3.880  12.602
 1497TIP3    H254960   3.351   3.853  12.628
 1498TIP3   OH254961   3.609   3.943  12.476
 1498TIP3    H154962   3.676   3.886  12.439
 1498TIP3    H254963   3.660   4.023  12.492
 1499TIP3   OH254964   2.160   3.876  12.434
 1499TIP3    H154965   2.090   3.855  12.373
 1499TIP3    H254966   2.217   3.797  12.424
 1500TIP3   OH254967   2.054   3.860  12.012
 1500TIP3    H154968   2.091   3.922  11.946
 1500TIP3    H254969   1.981   3.911  12.048
 1501TIP3   OH254970   2.615   3.857  12.410
 1501TIP3    H154971   2.701   3.900  12.408
 1501TIP3    H254972   2.608   3.845  12.504
 1502TIP3   OH254973   2.041   5.448  12.104
 1502TIP3    H154974   1.977   5.441  12.031
 1502TIP3    H254975   2.044   5.543  12.119
 1503TIP3   OH254976   2.232   4.049  11.849
 1503TIP3    H154977   2.277   3.979  11.802
 1503TIP3    H254978   2.290   4.074  11.923
 1504TIP3   OH254979   2.730   4.076  12.091
 1504TIP3    H154980   2.754   4.013  12.163
 1504TIP3    H254981   2.734   4.159  12.142
 1505TIP3   OH254982   3.597   5.529  12.211
 1505TIP3    H154983   3.572   5.452  12.154
 1505TIP3    H254984   3.590   5.602  12.149
 1506TIP3   OH254985   2.156   3.933  13.379
 1506TIP3    H154986   2.121   3.853  13.414
 1506TIP3    H254987   2.250   3.933  13.409
 1507TIP3   OH254988   2.349   3.859  13.534
 1507TIP3    H154989   2.445   3.842  13.515
 1507TIP3    H254990   2.327   3.785  13.589
 1508TIP3   OH254991   3.516   5.401  13.416
 1508TIP3    H154992   3.432   5.389  13.368
 1508TIP3    H254993   3.504   5.495  13.441
 1509TIP3   OH254994   5.562   4.116  12.895
 1509TIP3    H154995   5.561   4.185  12.964
 1509TIP3    H254996   5.592   4.165  12.817
 1510TIP3   OH254997   5.598   4.269  13.118
 1510TIP3    H154998   5.526   4.334  13.105
 1510TIP3    H254999   5.589   4.251  13.212
 1511TIP3   OH255000   5.554   4.651  12.990
 1511TIP3    H155001   5.511   4.737  13.004
 1511TIP3    H255002   5.615   4.682  12.921
 1512TIP3   OH255003   4.272   5.337  13.361
 1512TIP3    H155004   4.287   5.301  13.273
 1512TIP3    H255005   4.187   5.298  13.387
 1513TIP3   OH255006   3.835   4.947  13.102
 1513TIP3    H155007   3.793   4.939  13.016
 1513TIP3    H255008   3.847   4.853  13.122
 1514TIP3   OH255009   3.814   5.215  12.791
 1514TIP3    H155010   3.908   5.213  12.773
 1514TIP3    H255011   3.805   5.303  12.829
 1515TIP3   OH255012   5.359   4.434  13.392
 1515TIP3    H155013   5.306   4.485  13.329
 1515TIP3    H255014   5.349   4.343  13.362
 1516TIP3   OH255015   4.331   3.925  12.798
 1516TIP3    H155016   4.241   3.917  12.759
 1516TIP3    H255017   4.321   4.011  12.839
 1517TIP3   OH255018   5.136   4.284  13.225
 1517TIP3    H155019   5.070   4.255  13.294
 1517TIP3    H255020   5.097   4.367  13.197
 1518TIP3   OH255021   4.449   4.185  11.770
 1518TIP3    H155022   4.405   4.145  11.847
 1518TIP3    H255023   4.377   4.226  11.723
 1519TIP3   OH255024   5.362   5.681  13.462
 1519TIP3    H155025   5.386   5.716  13.375
 1519TIP3    H255026   5.435   5.704  13.520
 1520TIP3   OH255027   5.611   4.410  12.052
 1520TIP3    H155028   5.530   4.379  12.006
 1520TIP3    H255029   5.595   4.504  12.037
 1521TIP3   OH255030   5.218   5.445  13.227
 1521TIP3    H155031   5.141   5.403  13.187
 1521TIP3    H255032   5.232   5.518  13.164
 1522TIP3   OH255033   5.617   5.542  11.900
 1522TIP3    H155034   5.681   5.604  11.894
 1522TIP3    H255035   5.541   5.584  11.947
 1523TIP3   OH255036   3.983   5.354  13.013
 1523TIP3    H155037   4.009   5.261  13.011
 1523TIP3    H255038   4.010   5.383  13.100
 1524TIP3   OH255039   4.576   5.196  11.729
 1524TIP3    H155040   4.590   5.115  11.682
 1524TIP3    H255041   4.539   5.165  11.814
 1525TIP3   OH255042   4.471   5.157  11.978
 1525TIP3    H155043   4.477   5.105  12.058
 1525TIP3    H255044   4.466   5.249  12.009
 1526TIP3   OH255045   4.753   4.384  13.166
 1526TIP3    H155046   4.757   4.444  13.243
 1526TIP3    H255047   4.810   4.309  13.187
 1527TIP3   OH255048   5.368   4.173  13.255
 1527TIP3    H155049   5.275   4.204  13.244
 1527TIP3    H255050   5.398   4.174  13.164
 1528TIP3   OH255051   4.094   3.880  12.696
 1528TIP3    H155052   4.058   3.900  12.610
 1528TIP3    H255053   4.035   3.811  12.734
 1529TIP3   OH255054   3.895   5.545  13.451
 1529TIP3    H155055   3.964   5.524  13.517
 1529TIP3    H255056   3.857   5.459  13.430
 1530TIP3   OH255057   4.365   5.422  13.607
 1530TIP3    H155058   4.450   5.386  13.635
 1530TIP3    H255059   4.368   5.410  13.510
 1531TIP3   OH255060   4.779   5.385  11.731
 1531TIP3    H155061   4.713   5.330  11.778
 1531TIP3    H255062   4.855   5.329  11.731
 1532TIP3   OH255063   5.022   5.275  13.486
 1532TIP3    H155064   4.987   5.185  13.502
 1532TIP3    H255065   5.098   5.286  13.543
 1533TIP3   OH255066   5.232   5.365  11.769
 1533TIP3    H155067   5.265   5.291  11.822
 1533TIP3    H255068   5.310   5.391  11.721
 1534TIP3   OH255069   5.526   4.817  11.745
 1534TIP3    H155070   5.462   4.769  11.686
 1534TIP3    H255071   5.492   4.907  11.734
 1535TIP3   OH255072   4.409   4.280  13.330
 1535TIP3    H155073   4.433   4.205  13.272
 1535TIP3    H255074   4.415   4.358  13.273
 1536TIP3   OH255075   4.656   4.302  13.483
 1536TIP3    H155076   4.629   4.267  13.569
 1536TIP3    H255077   4.584   4.272  13.426
 1537TIP3   OH255078   4.933   4.217  13.389
 1537TIP3    H155079   4.836   4.209  13.397
 1537TIP3    H255080   4.957   4.144  13.449
 1538TIP3   OH255081   5.083   4.073  13.583
 1538TIP3    H155082   5.087   3.978  13.585
 1538TIP3    H255083   5.061   4.100  13.674
 1539TIP3   OH255084   5.598   5.556  12.843
 1539TIP3    H155085   5.607   5.551  12.939
 1539TIP3    H255086   5.681   5.597  12.816
 1540TIP3   OH255087   5.559   5.503  13.142
 1540TIP3    H155088   5.522   5.424  13.095
 1540TIP3    H255089   5.617   5.457  13.203
 1541TIP3   OH255090   5.592   4.549  13.428
 1541TIP3    H155091   5.504   4.510  13.413
 1541TIP3    H255092   5.647   4.470  13.422
 1542TIP3   OH255093   5.371   4.155  11.738
 1542TIP3    H155094   5.422   4.121  11.812
 1542TIP3    H255095   5.280   4.129  11.762
 1543TIP3   OH255096   5.391   4.380  12.783
 1543TIP3    H155097   5.486   4.398  12.782
 1543TIP3    H255098   5.370   4.386  12.877
 1544TIP3   OH255099   5.390   4.446  13.065
 1544TIP3    H155100   5.307   4.481  13.095
 1544TIP3    H255101   5.439   4.528  13.037
 1545TIP3   OH255102   5.638   3.854  13.599
 1545TIP3    H155103   5.651   3.786  13.534
 1545TIP3    H255104   5.626   3.936  13.547
 1546TIP3   OH255105   5.576   4.054  13.432
 1546TIP3    H155106   5.484   4.088  13.427
 1546TIP3    H255107   5.575   4.009  13.347
 1547TIP3   OH255108   5.576   4.056  11.896
 1547TIP3    H155109   5.612   3.978  11.850
 1547TIP3    H255110   5.648   4.115  11.903
 1548TIP3   OH255111   3.802   3.925  13.046
 1548TIP3    H155112   3.729   3.897  13.101
 1548TIP3    H255113   3.759   3.991  12.989
 1549TIP3   OH255114   4.019   5.246  13.460
 1549TIP3    H155115   3.935   5.259  13.413
 1549TIP3    H255116   3.991   5.237  13.551
 1550TIP3   OH255117   5.482   3.871  13.209
 1550TIP3    H155118   5.395   3.905  13.183
 1550TIP3    H255119   5.489   3.788  13.159
 1551TIP3   OH255120   5.016   5.502  12.983
 1551TIP3    H155121   4.919   5.511  12.997
 1551TIP3    H255122   5.047   5.588  13.012
 1552TIP3   OH255123   5.259   5.654  13.032
 1552TIP3    H155124   5.253   5.750  13.011
 1552TIP3    H255125   5.284   5.618  12.946
 1553TIP3   OH255126   4.048   3.874  12.419
 1553TIP3    H155127   3.963   3.856  12.380
 1553TIP3    H255128   4.089   3.794  12.449
 1554TIP3   OH255129   3.934   3.856  12.011
 1554TIP3    H155130   3.977   3.920  11.951
 1554TIP3    H255131   3.871   3.916  12.053
 1555TIP3   OH255132   4.036   3.930  13.384
 1555TIP3    H155133   4.006   3.846  13.420
 1555TIP3    H255134   4.131   3.930  13.410
 1556TIP3   OH255135   4.245   3.867  13.538
 1556TIP3    H155136   4.335   3.838  13.513
 1556TIP3    H255137   4.205   3.792  13.584
 1557TIP3   OH255138   4.098   5.539  11.802
 1557TIP3    H155139   4.078   5.576  11.889
 1557TIP3    H255140   4.182   5.491  11.816
 1558TIP3   OH255141   5.978   4.671  12.913
 1558TIP3    H155142   5.967   4.625  12.997
 1558TIP3    H255143   6.036   4.745  12.940
 1559TIP3   OH255144   6.069   5.129  12.766
 1559TIP3    H155145   6.024   5.045  12.744
 1559TIP3    H255146   6.162   5.103  12.776
 1560TIP3   OH255147   5.734   4.488  12.297
 1560TIP3    H155148   5.682   4.570  12.321
 1560TIP3    H255149   5.657   4.432  12.275
 1561TIP3   OH255150   6.190   4.215  12.570
 1561TIP3    H155151   6.213   4.296  12.520
 1561TIP3    H255152   6.163   4.152  12.500
 1562TIP3   OH255153   5.864   4.450  12.641
 1562TIP3    H155154   5.931   4.395  12.684
 1562TIP3    H255155   5.866   4.425  12.549
 1563TIP3   OH255156   6.375   4.608  12.566
 1563TIP3    H155157   6.442   4.557  12.615
 1563TIP3    H255158   6.324   4.539  12.521
 1564TIP3   OH255159   6.090   4.122  12.982
 1564TIP3    H155160   6.062   4.140  12.889
 1564TIP3    H255161   6.006   4.103  13.030
 1565TIP3   OH255162   6.333   4.866  12.993
 1565TIP3    H155163   6.269   4.935  13.016
 1565TIP3    H255164   6.416   4.914  12.974
 1566TIP3   OH255165   6.044   4.289  12.779
 1566TIP3    H155166   6.111   4.360  12.794
 1566TIP3    H255167   6.091   4.245  12.703
 1567TIP3   OH255168   6.181   5.068  13.075
 1567TIP3    H155169   6.176   5.160  13.043
 1567TIP3    H255170   6.093   5.058  13.119
 1568TIP3   OH255171   7.186   4.056  12.989
 1568TIP3    H155172   7.105   4.074  12.940
 1568TIP3    H255173   7.253   4.056  12.916
 1569TIP3   OH255174   7.437   4.646  12.994
 1569TIP3    H155175   7.388   4.727  13.012
 1569TIP3    H255176   7.496   4.676  12.923
 1570TIP3   OH255177   6.219   4.806  12.452
 1570TIP3    H155178   6.186   4.767  12.369
 1570TIP3    H255179   6.277   4.734  12.486
 1571TIP3   OH255180   6.347   5.137  12.723
 1571TIP3    H155181   6.350   5.089  12.640
 1571TIP3    H255182   6.429   5.107  12.764
 1572TIP3   OH255183   6.252   4.674  12.820
 1572TIP3    H155184   6.311   4.687  12.742
 1572TIP3    H255185   6.295   4.741  12.879
 1573TIP3   OH255186   6.346   5.122  13.288
 1573TIP3    H155187   6.306   5.197  13.336
 1573TIP3    H255188   6.283   5.101  13.216
 1574TIP3   OH255189   6.039   4.733  13.208
 1574TIP3    H155190   6.041   4.805  13.275
 1574TIP3    H255191   5.945   4.746  13.182
 1575TIP3   OH255192   6.169   5.325  13.363
 1575TIP3    H155193   6.168   5.313  13.266
 1575TIP3    H255194   6.076   5.310  13.388
 1576TIP3   OH255195   6.119   4.703  12.209
 1576TIP3    H155196   6.093   4.785  12.166
 1576TIP3    H255197   6.046   4.645  12.196
 1577TIP3   OH255198   6.618   5.248  13.236
 1577TIP3    H155199   6.626   5.330  13.287
 1577TIP3    H255200   6.534   5.206  13.262
 1578TIP3   OH255201   6.653   5.622  12.215
 1578TIP3    H155202   6.656   5.609  12.119
 1578TIP3    H255203   6.662   5.718  12.231
 1579TIP3   OH255204   6.026   5.504  12.394
 1579TIP3    H155205   6.042   5.470  12.485
 1579TIP3    H255206   5.939   5.466  12.381
 1580TIP3   OH255207   7.217   4.431  13.395
 1580TIP3    H155208   7.206   4.492  13.323
 1580TIP3    H255209   7.259   4.348  13.366
 1581TIP3   OH255210   5.953   5.075  13.197
 1581TIP3    H155211   5.967   5.036  13.284
 1581TIP3    H255212   5.865   5.041  13.172
 1582TIP3   OH255213   6.950   4.302  13.235
 1582TIP3    H155214   6.936   4.276  13.329
 1582TIP3    H255215   6.976   4.395  13.229
 1583TIP3   OH255216   6.214   4.420  12.911
 1583TIP3    H155217   6.169   4.460  12.980
 1583TIP3    H255218   6.240   4.509  12.873
 1584TIP3   OH255219   6.225   4.440  12.399
 1584TIP3    H155220   6.133   4.411  12.394
 1584TIP3    H255221   6.269   4.403  12.319
 1585TIP3   OH255222   5.960   4.483  13.103
 1585TIP3    H155223   5.987   4.518  13.192
 1585TIP3    H255224   5.901   4.408  13.119
 1586TIP3   OH255225   5.678   4.183  12.473
 1586TIP3    H155226   5.716   4.151  12.558
 1586TIP3    H255227   5.695   4.110  12.412
 1587TIP3   OH255228   5.797   4.242  12.031
 1587TIP3    H155229   5.824   4.290  11.948
 1587TIP3    H255230   5.708   4.285  12.049
 1588TIP3   OH255231   5.967   4.346  12.357
 1588TIP3    H155232   5.870   4.356  12.377
 1588TIP3    H255233   5.987   4.250  12.375
 1589TIP3   OH255234   6.322   4.355  12.160
 1589TIP3    H155235   6.421   4.353  12.167
 1589TIP3    H255236   6.311   4.413  12.083
 1590TIP3   OH255237   6.189   4.481  11.911
 1590TIP3    H155238   6.150   4.424  11.842
 1590TIP3    H255239   6.279   4.478  11.873
 1591TIP3   OH255240   7.235   5.685  13.464
 1591TIP3    H155241   7.274   5.708  13.378
 1591TIP3    H255242   7.319   5.701  13.511
 1592TIP3   OH255243   6.010   4.925  13.420
 1592TIP3    H155244   6.083   4.949  13.481
 1592TIP3    H255245   5.933   4.929  13.477
 1593TIP3   OH255246   6.110   4.086  12.335
 1593TIP3    H155247   6.078   3.992  12.339
 1593TIP3    H255248   6.191   4.073  12.281
 1594TIP3   OH255249   6.049   4.862  12.683
 1594TIP3    H155250   6.117   4.850  12.615
 1594TIP3    H255251   6.048   4.775  12.727
 1595TIP3   OH255252   5.756   4.686  13.204
 1595TIP3    H155253   5.755   4.662  13.299
 1595TIP3    H255254   5.675   4.646  13.168
 1596TIP3   OH255255   6.279   5.203  12.425
 1596TIP3    H155256   6.331   5.282  12.402
 1596TIP3    H255257   6.192   5.229  12.393
 1597TIP3   OH255258   5.854   4.684  11.881
 1597TIP3    H155259   5.913   4.751  11.921
 1597TIP3    H255260   5.766   4.721  11.901
 1598TIP3   OH255261   6.468   5.392  13.013
 1598TIP3    H155262   6.512   5.475  12.988
 1598TIP3    H255263   6.530   5.355  13.080
 1599TIP3   OH255264   6.287   5.473  12.326
 1599TIP3    H155265   6.192   5.486  12.347
 1599TIP3    H255266   6.327   5.555  12.360
 1600TIP3   OH255267   7.074   5.460  13.229
 1600TIP3    H155268   7.040   5.390  13.173
 1600TIP3    H255269   7.130   5.512  13.167
 1601TIP3   OH255270   5.907   4.179  13.162
 1601TIP3    H155271   5.813   4.210  13.163
 1601TIP3    H255272   5.897   4.095  13.213
 1602TIP3   OH255273   5.876   5.357  13.008
 1602TIP3    H155274   5.888   5.260  13.002
 1602TIP3    H255275   5.895   5.376  13.099
 1603TIP3   OH255276   6.413   5.205  11.736
 1603TIP3    H155277   6.416   5.119  11.700
 1603TIP3    H255278   6.413   5.177  11.835
 1604TIP3   OH255279   6.346   5.160  11.979
 1604TIP3    H155280   6.368   5.107  12.060
 1604TIP3    H255281   6.354   5.251  12.020
 1605TIP3   OH255282   5.992   4.888  12.015
 1605TIP3    H155283   5.928   4.914  12.085
 1605TIP3    H255284   6.054   4.960  12.025
 1606TIP3   OH255285   6.339   5.429  12.041
 1606TIP3    H155286   6.383   5.511  12.009
 1606TIP3    H255287   6.346   5.452  12.138
 1607TIP3   OH255288   6.063   5.164  11.912
 1607TIP3    H155289   6.108   5.223  11.975
 1607TIP3    H255290   6.145   5.127  11.886
 1608TIP3   OH255291   5.881   4.407  11.843
 1608TIP3    H155292   5.891   4.506  11.844
 1608TIP3    H255293   5.796   4.397  11.800
 1609TIP3   OH255294   5.964   3.895  12.709
 1609TIP3    H155295   5.951   3.897  12.612
 1609TIP3    H255296   5.926   3.809  12.730
 1610TIP3   OH255297   5.869   5.287  12.319
 1610TIP3    H155298   5.777   5.319  12.314
 1610TIP3    H255299   5.915   5.332  12.249
 1611TIP3   OH255300   5.789   5.548  13.445
 1611TIP3    H155301   5.845   5.528  13.523
 1611TIP3    H255302   5.745   5.465  13.429
 1612TIP3   OH255303   6.253   5.436  13.611
 1612TIP3    H155304   6.330   5.387  13.641
 1612TIP3    H255305   6.249   5.414  13.515
 1613TIP3   OH255306   6.649   5.362  11.719
 1613TIP3    H155307   6.607   5.335  11.801
 1613TIP3    H255308   6.749   5.349  11.733
 1614TIP3   OH255309   6.263   4.951  11.754
 1614TIP3    H155310   6.253   4.868  11.810
 1614TIP3    H255311   6.302   4.913  11.674
 1615TIP3   OH255312   6.749   5.049  11.743
 1615TIP3    H155313   6.749   5.067  11.838
 1615TIP3    H255314   6.753   4.952  11.731
 1616TIP3   OH255315   5.873   4.645  13.484
 1616TIP3    H155316   5.909   4.558  13.479
 1616TIP3    H255317   5.844   4.649  13.576
 1617TIP3   OH255318   6.315   4.760  11.976
 1617TIP3    H155319   6.292   4.708  12.056
 1617TIP3    H255320   6.363   4.689  11.927
 1618TIP3   OH255321   6.234   4.538  13.205
 1618TIP3    H155322   6.203   4.618  13.250
 1618TIP3    H255323   6.301   4.579  13.147
 1619TIP3   OH255324   6.440   4.603  11.807
 1619TIP3    H155325   6.425   4.556  11.723
 1619TIP3    H255326   6.534   4.581  11.820
 1620TIP3   OH255327   6.144   4.405  13.511
 1620TIP3    H155328   6.068   4.344  13.504
 1620TIP3    H255329   6.218   4.364  13.462
 1621TIP3   OH255330   6.981   4.073  13.582
 1621TIP3    H155331   6.969   3.975  13.583
 1621TIP3    H255332   6.949   4.098  13.671
 1622TIP3   OH255333   5.949   4.194  13.489
 1622TIP3    H155334   5.981   4.121  13.437
 1622TIP3    H255335   5.950   4.159  13.582
 1623TIP3   OH255336   6.422   5.638  11.889
 1623TIP3    H155337   6.512   5.657  11.930
 1623TIP3    H255338   6.408   5.727  11.856
 1624TIP3   OH255339   5.789   5.119  11.854
 1624TIP3    H155340   5.874   5.121  11.897
 1624TIP3    H255341   5.775   5.045  11.794
 1625TIP3   OH255342   5.660   5.653  12.358
 1625TIP3    H155343   5.587   5.605  12.318
 1625TIP3    H255344   5.683   5.588  12.429
 1626TIP3   OH255345   5.738   5.461  12.547
 1626TIP3    H155346   5.701   5.375  12.572
 1626TIP3    H255347   5.760   5.496  12.635
 1627TIP3   OH255348   7.311   4.422  11.828
 1627TIP3    H155349   7.336   4.489  11.765
 1627TIP3    H255350   7.315   4.338  11.782
 1628TIP3   OH255351   7.327   4.753  13.368
 1628TIP3    H155352   7.396   4.685  13.375
 1628TIP3    H255353   7.372   4.840  13.353
 1629TIP3   OH255354   7.483   4.548  13.435
 1629TIP3    H155355   7.397   4.508  13.412
 1629TIP3    H255356   7.538   4.470  13.411
 1630TIP3   OH255357   7.278   4.370  12.790
 1630TIP3    H155358   7.369   4.400  12.776
 1630TIP3    H255359   7.258   4.398  12.879
 1631TIP3   OH255360   7.259   4.440  13.060
 1631TIP3    H155361   7.194   4.496  13.099
 1631TIP3    H255362   7.328   4.514  13.043
 1632TIP3   OH255363   5.709   4.294  13.406
 1632TIP3    H155364   5.799   4.279  13.440
 1632TIP3    H255365   5.658   4.219  13.445
 1633TIP3   OH255366   5.821   4.127  12.705
 1633TIP3    H155367   5.871   4.045  12.723
 1633TIP3    H255368   5.879   4.198  12.734
 1634TIP3   OH255369   5.666   4.421  12.812
 1634TIP3    H155370   5.707   4.409  12.724
 1634TIP3    H255371   5.693   4.513  12.826
 1635TIP3   OH255372   5.695   4.060  12.212
 1635TIP3    H155373   5.598   4.067  12.201
 1635TIP3    H255374   5.730   4.101  12.133
 1636TIP3   OH255375   5.693   3.927  13.048
 1636TIP3    H155376   5.617   3.907  13.106
 1636TIP3    H255377   5.643   3.981  12.981
 1637TIP3   OH255378   5.911   5.244  13.460
 1637TIP3    H155379   5.830   5.257  13.411
 1637TIP3    H255380   5.883   5.233  13.551
 1638TIP3   OH255381   6.203   5.340  13.086
 1638TIP3    H155382   6.164   5.424  13.057
 1638TIP3    H255383   6.294   5.353  13.054
 1639TIP3   OH255384   6.630   5.486  13.379
 1639TIP3    H155385   6.646   5.450  13.468
 1639TIP3    H255386   6.720   5.515  13.350
 1640TIP3   OH255387   6.859   5.613  13.305
 1640TIP3    H155388   6.932   5.551  13.280
 1640TIP3    H255389   6.899   5.651  13.386
 1641TIP3   OH255390   7.355   3.864  13.219
 1641TIP3    H155391   7.280   3.898  13.172
 1641TIP3    H255392   7.383   3.791  13.162
 1642TIP3   OH255393   5.938   5.658  13.087
 1642TIP3    H155394   5.873   5.717  13.043
 1642TIP3    H255395   5.905   5.647  13.176
 1643TIP3   OH255396   6.187   5.619  12.989
 1643TIP3    H155397   6.100   5.642  13.030
 1643TIP3    H255398   6.180   5.687  12.919
 1644TIP3   OH255399   6.659   5.613  12.912
 1644TIP3    H155400   6.615   5.669  12.845
 1644TIP3    H255401   6.672   5.678  12.984
 1645TIP3   OH255402   6.890   5.499  13.002
 1645TIP3    H155403   6.800   5.522  12.974
 1645TIP3    H255404   6.934   5.586  13.003
 1646TIP3   OH255405   7.135   5.655  13.029
 1646TIP3    H155406   7.142   5.751  13.018
 1646TIP3    H255407   7.173   5.620  12.949
 1647TIP3   OH255408   5.890   5.536  12.781
 1647TIP3    H155409   5.877   5.483  12.862
 1647TIP3    H255410   5.965   5.492  12.739
 1648TIP3   OH255411   6.096   5.396  12.640
 1648TIP3    H155412   6.074   5.305  12.670
 1648TIP3    H255413   6.178   5.415  12.690
 1649TIP3   OH255414   6.357   5.448  12.730
 1649TIP3    H155415   6.370   5.355  12.705
 1649TIP3    H255416   6.358   5.445  12.826
 1650TIP3   OH255417   7.209   3.825  12.664
 1650TIP3    H155418   7.272   3.872  12.604
 1650TIP3    H255419   7.128   3.860  12.623
 1651TIP3   OH255420   7.386   3.943  12.498
 1651TIP3    H155421   7.445   3.888  12.441
 1651TIP3    H255422   7.426   4.028  12.489
 1652TIP3   OH255423   5.938   3.880  12.424
 1652TIP3    H155424   5.856   3.852  12.380
 1652TIP3    H255425   5.988   3.798  12.425
 1653TIP3   OH255426   5.812   3.855  12.004
 1653TIP3    H155427   5.862   3.916  11.947
 1653TIP3    H255428   5.753   3.909  12.058
 1654TIP3   OH255429   6.688   5.582  11.926
 1654TIP3    H155430   6.783   5.603  11.923
 1654TIP3    H255431   6.679   5.524  11.851
 1655TIP3   OH255432   5.938   3.911  13.362
 1655TIP3    H155433   5.890   3.864  13.433
 1655TIP3    H255434   6.021   3.932  13.411
 1656TIP3   OH255435   6.003   5.556  11.808
 1656TIP3    H155436   5.958   5.525  11.886
 1656TIP3    H255437   6.064   5.481  11.812
 1657TIP3   OH255438   6.972   3.804  13.555
 1657TIP3    H155439   6.977   3.749  13.633
 1657TIP3    H255440   7.060   3.795  13.517
 1658TIP3   OH255441   7.864   4.672  12.920
 1658TIP3    H155442   7.851   4.615  12.998
 1658TIP3    H255443   7.916   4.748  12.936
 1659TIP3   OH255444   7.948   5.121  12.786
 1659TIP3    H155445   7.914   5.048  12.735
 1659TIP3    H255446   8.044   5.111  12.777
 1660TIP3   OH255447   8.067   5.052  13.074
 1660TIP3    H155448   8.076   5.147  13.046
 1660TIP3    H255449   7.983   5.067  13.125
 1661TIP3   OH255450   7.906   4.747  13.215
 1661TIP3    H155451   7.909   4.808  13.292
 1661TIP3    H255452   7.810   4.750  13.190
 1662TIP3   OH255453   8.046   5.319  13.362
 1662TIP3    H155454   8.049   5.314  13.266
 1662TIP3    H255455   7.953   5.311  13.386
 1663TIP3   OH255456   7.909   5.505  12.392
 1663TIP3    H155457   7.928   5.467  12.482
 1663TIP3    H255458   7.824   5.461  12.376
 1664TIP3   OH255459   7.838   5.051  13.190
 1664TIP3    H155460   7.850   5.053  13.286
 1664TIP3    H255461   7.741   5.053  13.179
 1665TIP3   OH255462   8.084   4.477  13.004
 1665TIP3    H155463   8.023   4.400  12.990
 1665TIP3    H255464   8.103   4.485  12.907
 1666TIP3   OH255465   7.901   4.911  13.427
 1666TIP3    H155466   7.973   4.955  13.477
 1666TIP3    H255467   7.822   4.954  13.465
 1667TIP3   OH255468   7.636   4.698  13.213
 1667TIP3    H155469   7.643   4.646  13.294
 1667TIP3    H255470   7.567   4.642  13.168
 1668TIP3   OH255471   7.741   4.698  11.868
 1668TIP3    H155472   7.803   4.750  11.922
 1668TIP3    H255473   7.657   4.718  11.911
 1669TIP3   OH255474   7.776   5.359  13.005
 1669TIP3    H155475   7.771   5.264  13.010
 1669TIP3    H255476   7.770   5.386  13.098
 1670TIP3   OH255477   7.881   4.883  12.027
 1670TIP3    H155478   7.812   4.913  12.087
 1670TIP3    H255479   7.931   4.962  12.006
 1671TIP3   OH255480   7.942   5.143  11.914
 1671TIP3    H155481   8.006   5.203  11.945
 1671TIP3    H255482   7.991   5.096  11.842
 1672TIP3   OH255483   7.755   5.291  12.320
 1672TIP3    H155484   7.665   5.323  12.312
 1672TIP3    H255485   7.804   5.330  12.248
 1673TIP3   OH255486   7.656   4.937  13.517
 1673TIP3    H155487   7.667   4.856  13.464
 1673TIP3    H255488   7.574   4.973  13.474
 1674TIP3   OH255489   8.101   4.958  11.753
 1674TIP3    H155490   8.104   4.877  11.807
 1674TIP3    H255491   8.164   4.940  11.681
 1675TIP3   OH255492   7.762   4.649  13.501
 1675TIP3    H155493   7.790   4.564  13.458
 1675TIP3    H255494   7.723   4.602  13.574
 1676TIP3   OH255495   8.018   4.412  13.523
 1676TIP3    H155496   7.949   4.347  13.501
 1676TIP3    H255497   8.094   4.375  13.471
 1677TIP3   OH255498   7.675   5.116  11.863
 1677TIP3    H155499   7.767   5.115  11.887
 1677TIP3    H255500   7.665   5.046  11.797
 1678TIP3   OH255501   7.790   5.231  13.459
 1678TIP3    H155502   7.713   5.267  13.410
 1678TIP3    H255503   7.762   5.250  13.549
 1679TIP3   OH255504   8.085   5.333  13.077
 1679TIP3    H155505   8.049   5.423  13.059
 1679TIP3    H255506   8.179   5.352  13.059
 1680TIP3   OH255507   8.043   5.597  12.967
 1680TIP3    H155508   7.989   5.634  13.038
 1680TIP3    H255509   8.075   5.678  12.921
 1681TIP3   OH255510   7.976   5.404  12.645
 1681TIP3    H155511   7.959   5.310  12.664
 1681TIP3    H255512   8.061   5.412  12.688
 1682TIP3   OH255513   1.186   6.678  12.421
 1682TIP3    H155514   1.190   6.775  12.409
 1682TIP3    H255515   1.121   6.654  12.353
 1683TIP3   OH255516   1.447   6.899  12.596
 1683TIP3    H155517   1.406   6.825  12.641
 1683TIP3    H255518   1.446   6.969  12.664
 1684TIP3   OH255519   1.159   7.417  12.620
 1684TIP3    H155520   1.216   7.340  12.590
 1684TIP3    H255521   1.133   7.378  12.705
 1685TIP3   OH255522   1.798   6.004  12.899
 1685TIP3    H155523   1.785   6.075  12.963
 1685TIP3    H255524   1.819   6.049  12.816
 1686TIP3   OH255525   1.240   6.288  12.837
 1686TIP3    H155526   1.241   6.192  12.848
 1686TIP3    H255527   1.215   6.301  12.745
 1687TIP3   OH255528   1.837   6.172  13.127
 1687TIP3    H155529   1.753   6.217  13.099
 1687TIP3    H255530   1.809   6.127  13.207
 1688TIP3   OH255531   1.164   6.935  12.326
 1688TIP3    H155532   1.133   6.907  12.239
 1688TIP3    H255533   1.130   7.027  12.331
 1689TIP3   OH255534   0.387   6.180  12.767
 1689TIP3    H155535   0.449   6.239  12.809
 1689TIP3    H255536   0.440   6.134  12.701
 1690TIP3   OH255537   1.497   7.080  12.824
 1690TIP3    H155538   1.402   7.091  12.849
 1690TIP3    H255539   1.524   7.172  12.820
 1691TIP3   OH255540   1.328   7.261  12.492
 1691TIP3    H155541   1.367   7.185  12.442
 1691TIP3    H255542   1.365   7.336  12.446
 1692TIP3   OH255543   1.437   7.051  12.344
 1692TIP3    H155544   1.417   6.980  12.282
 1692TIP3    H255545   1.449   6.999  12.426
 1693TIP3   OH255546   1.608   6.904  13.191
 1693TIP3    H155547   1.623   6.849  13.112
 1693TIP3    H255548   1.627   6.995  13.158
 1694TIP3   OH255549   1.795   6.539  13.000
 1694TIP3    H155550   1.732   6.614  12.997
 1694TIP3    H255551   1.842   6.563  12.916
 1695TIP3   OH255552   1.397   6.623  12.261
 1695TIP3    H155553   1.324   6.645  12.322
 1695TIP3    H255554   1.450   6.557  12.309
 1696TIP3   OH255555   1.405   6.454  13.170
 1696TIP3    H155556   1.363   6.521  13.225
 1696TIP3    H255557   1.327   6.454  13.108
 1697TIP3   OH255558   1.234   7.116  12.889
 1697TIP3    H155559   1.212   7.182  12.956
 1697TIP3    H255560   1.209   7.031  12.934
 1698TIP3   OH255561   1.298   6.528  12.026
 1698TIP3    H155562   1.340   6.566  12.106
 1698TIP3    H255563   1.320   6.594  11.956
 1699TIP3   OH255564   1.064   7.217  12.371
 1699TIP3    H155565   1.102   7.243  12.455
 1699TIP3    H255566   0.998   7.284  12.351
 1700TIP3   OH255567   0.508   7.193  13.358
 1700TIP3    H155568   0.514   7.181  13.258
 1700TIP3    H255569   0.417   7.161  13.377
 1701TIP3   OH255570   0.964   7.134  13.230
 1701TIP3    H155571   0.974   7.213  13.287
 1701TIP3    H255572   0.882   7.093  13.260
 1702TIP3   OH255573   1.009   7.508  12.219
 1702TIP3    H155574   1.001   7.495  12.122
 1702TIP3    H255575   1.010   7.603  12.224
 1703TIP3   OH255576   1.308   7.423  11.914
 1703TIP3    H155577   1.359   7.350  11.871
 1703TIP3    H255578   1.317   7.400  12.008
 1704TIP3   OH255579   1.277   7.424  12.206
 1704TIP3    H155580   1.180   7.418  12.208
 1704TIP3    H255581   1.307   7.339  12.241
 1705TIP3   OH255582   1.584   6.335  13.384
 1705TIP3    H155583   1.517   6.349  13.314
 1705TIP3    H255584   1.579   6.235  13.371
 1706TIP3   OH255585   1.367   6.172  13.232
 1706TIP3    H155586   1.291   6.141  13.289
 1706TIP3    H255587   1.325   6.248  13.188
 1707TIP3   OH255588   1.443   6.634  11.804
 1707TIP3    H155589   1.429   6.629  11.708
 1707TIP3    H255590   1.521   6.690  11.811
 1708TIP3   OH255591   1.005   6.023  11.865
 1708TIP3    H155592   0.954   6.032  11.949
 1708TIP3    H255593   0.958   5.945  11.832
 1709TIP3   OH255594   1.227   6.319  12.560
 1709TIP3    H155595   1.201   6.378  12.488
 1709TIP3    H255596   1.239   6.232  12.517
 1710TIP3   OH255597   0.674   6.068  11.768
 1710TIP3    H155598   0.637   6.032  11.849
 1710TIP3    H255599   0.602   6.114  11.727
 1711TIP3   OH255600   0.045   6.049  12.433
 1711TIP3    H155601   0.070   6.034  12.528
 1711TIP3    H255602   0.072   5.972  12.382
 1712TIP3   OH255603   0.139   6.128  12.033
 1712TIP3    H155604   0.177   6.182  11.961
 1712TIP3    H255605   0.054   6.174  12.048
 1713TIP3   OH255606   1.593   6.724  12.984
 1713TIP3    H155607   1.650   6.775  12.924
 1713TIP3    H255608   1.507   6.730  12.936
 1714TIP3   OH255609   1.241   6.096  11.936
 1714TIP3    H155610   1.144   6.107  11.916
 1714TIP3    H255611   1.265   6.186  11.974
 1715TIP3   OH255612   1.344   6.273  12.078
 1715TIP3    H155613   1.424   6.272  12.134
 1715TIP3    H255614   1.337   6.367  12.045
 1716TIP3   OH255615   1.248   7.068  13.223
 1716TIP3    H155616   1.159   7.095  13.199
 1716TIP3    H255617   1.255   7.104  13.313
 1717TIP3   OH255618   1.821   6.298  12.064
 1717TIP3    H155619   1.767   6.265  11.990
 1717TIP3    H255620   1.834   6.392  12.037
 1718TIP3   OH255621   1.370   6.660  12.809
 1718TIP3    H155622   1.278   6.634  12.805
 1718TIP3    H255623   1.414   6.581  12.772
 1719TIP3   OH255624   0.808   7.281  13.021
 1719TIP3    H155625   0.858   7.355  12.986
 1719TIP3    H255626   0.873   7.238  13.080
 1720TIP3   OH255627   1.169   6.881  12.980
 1720TIP3    H155628   1.129   6.855  13.065
 1720TIP3    H255629   1.225   6.806  12.961
 1721TIP3   OH255630   1.388   6.983  11.902
 1721TIP3    H155631   1.423   6.927  11.969
 1721TIP3    H255632   1.296   6.957  11.887
 1722TIP3   OH255633   0.209   7.247  13.012
 1722TIP3    H155634   0.237   7.152  12.994
 1722TIP3    H255635   0.244   7.262  13.098
 1723TIP3   OH255636   1.114   6.042  13.070
 1723TIP3    H155637   1.197   6.040  13.117
 1723TIP3    H255638   1.094   5.947  13.066
 1724TIP3   OH255639   1.604   6.077  13.255
 1724TIP3    H155640   1.505   6.085  13.244
 1724TIP3    H255641   1.622   6.051  13.163
 1725TIP3   OH255642   1.455   6.439  12.659
 1725TIP3    H155643   1.375   6.393  12.631
 1725TIP3    H255644   1.504   6.368  12.708
 1726TIP3   OH255645   0.404   7.051  11.896
 1726TIP3    H155646   0.458   7.088  11.966
 1726TIP3    H255647   0.445   6.973  11.855
 1727TIP3   OH255648   0.229   6.295  11.832
 1727TIP3    H155649   0.231   6.391  11.850
 1727TIP3    H255650   0.143   6.271  11.797
 1728TIP3   OH255651   0.123   7.425  13.459
 1728TIP3    H155652   0.190   7.407  13.526
 1728TIP3    H255653   0.089   7.343  13.422
 1729TIP3   OH255654   0.589   7.324  13.592
 1729TIP3    H155655   0.659   7.287  13.651
 1729TIP3    H255656   0.614   7.275  13.516
 1730TIP3   OH255657   0.997   7.274  11.748
 1730TIP3    H155658   0.951   7.196  11.779
 1730TIP3    H255659   1.079   7.226  11.722
 1731TIP3   OH255660   1.245   7.165  13.489
 1731TIP3    H155661   1.224   7.072  13.502
 1731TIP3    H255662   1.329   7.174  13.535
 1732TIP3   OH255663   1.370   6.796  13.230
 1732TIP3    H155664   1.436   6.866  13.211
 1732TIP3    H255665   1.289   6.852  13.229
 1733TIP3   OH255666   1.724   6.702  11.756
 1733TIP3    H155667   1.686   6.667  11.676
 1733TIP3    H255668   1.722   6.799  11.737
 1734TIP3   OH255669   0.639   6.166  13.331
 1734TIP3    H155670   0.654   6.093  13.268
 1734TIP3    H255671   0.646   6.243  13.274
 1735TIP3   OH255672   0.678   6.002  13.076
 1735TIP3    H155673   0.734   6.052  13.014
 1735TIP3    H255674   0.589   5.996  13.038
 1736TIP3   OH255675   1.282   6.328  13.591
 1736TIP3    H155676   1.293   6.234  13.598
 1736TIP3    H255677   1.365   6.369  13.612
 1737TIP3   OH255678   1.380   6.609  13.416
 1737TIP3    H155679   1.342   6.681  13.357
 1737TIP3    H255680   1.455   6.648  13.446
 1738TIP3   OH255681   0.484   6.288  13.523
 1738TIP3    H155682   0.408   6.232  13.502
 1738TIP3    H255683   0.550   6.254  13.460
 1739TIP3   OH255684   0.761   5.745  13.124
 1739TIP3    H155685   0.750   5.841  13.113
 1739TIP3    H255686   0.687   5.710  13.075
 1740TIP3   OH255687   0.889   6.167  13.479
 1740TIP3    H155688   0.861   6.163  13.571
 1740TIP3    H255689   0.807   6.173  13.428
 1741TIP3   OH255690   1.165   6.085  13.388
 1741TIP3    H155691   1.069   6.107  13.400
 1741TIP3    H255692   1.182   6.031  13.463
 1742TIP3   OH255693   0.306   6.079  13.490
 1742TIP3    H155694   0.321   6.003  13.429
 1742TIP3    H255695   0.292   6.033  13.576
 1743TIP3   OH255696   0.782   5.685  13.390
 1743TIP3    H155697   0.850   5.619  13.387
 1743TIP3    H255698   0.770   5.703  13.294
 1744TIP3   OH255699   0.823   5.846  13.599
 1744TIP3    H155700   0.803   5.795  13.517
 1744TIP3    H255701   0.762   5.921  13.587
 1745TIP3   OH255702   0.760   7.535  11.915
 1745TIP3    H155703   0.859   7.541  11.928
 1745TIP3    H255704   0.753   7.605  11.849
 1746TIP3   OH255705   0.133   7.009  11.861
 1746TIP3    H155706   0.223   7.002  11.895
 1746TIP3    H255707   0.127   6.934  11.801
 1747TIP3   OH255708   8.168   7.687  12.359
 1747TIP3    H155709   8.100   7.623  12.320
 1747TIP3    H255710   8.207   7.600  12.380
 1748TIP3   OH255711   0.128   7.293  12.563
 1748TIP3    H155712   0.055   7.233  12.585
 1748TIP3    H255713   0.128   7.363  12.635
 1749TIP3   OH255714   1.639   6.951  13.610
 1749TIP3    H155715   1.548   6.960  13.642
 1749TIP3    H255716   1.673   7.037  13.639
 1750TIP3   OH255717   1.807   6.592  12.336
 1750TIP3    H155718   1.729   6.551  12.378
 1750TIP3    H255719   1.864   6.616  12.411
 1751TIP3   OH255720   1.844   6.588  11.972
 1751TIP3    H155721   1.776   6.618  11.908
 1751TIP3    H255722   1.824   6.647  12.047
 1752TIP3   OH255723   1.662   6.304  11.829
 1752TIP3    H155724   1.679   6.374  11.765
 1752TIP3    H255725   1.662   6.224  11.775
 1753TIP3   OH255726   1.579   6.448  12.393
 1753TIP3    H155727   1.571   6.352  12.389
 1753TIP3    H255728   1.553   6.467  12.484
 1754TIP3   OH255729   1.756   6.676  13.326
 1754TIP3    H155730   1.786   6.600  13.380
 1754TIP3    H255731   1.751   6.760  13.378
 1755TIP3   OH255732   1.809   6.430  13.429
 1755TIP3    H155733   1.723   6.387  13.410
 1755TIP3    H255734   1.843   6.341  13.405
 1756TIP3   OH255735   1.595   6.055  11.756
 1756TIP3    H155736   1.675   6.013  11.795
 1756TIP3    H255737   1.551   5.979  11.716
 1757TIP3   OH255738   1.553   6.203  12.227
 1757TIP3    H155739   1.586   6.117  12.258
 1757TIP3    H255740   1.636   6.248  12.206
 1758TIP3   OH255741   1.614   6.264  12.784
 1758TIP3    H155742   1.710   6.283  12.781
 1758TIP3    H255743   1.597   6.264  12.878
 1759TIP3   OH255744   1.627   6.338  13.081
 1759TIP3    H155745   1.531   6.358  13.089
 1759TIP3    H255746   1.662   6.415  13.030
 1760TIP3   OH255747   0.058   6.174  13.399
 1760TIP3    H155748   0.150   6.158  13.428
 1760TIP3    H255749   0.012   6.099  13.439
 1761TIP3   OH255750   0.172   6.020  12.689
 1761TIP3    H155751   0.213   5.941  12.727
 1761TIP3    H255752   0.217   6.087  12.742
 1762TIP3   OH255753   0.013   6.350  12.731
 1762TIP3    H155754   0.069   6.274  12.712
 1762TIP3    H255755   0.052   6.384  12.812
 1763TIP3   OH255756   1.806   5.956  13.428
 1763TIP3    H155757   1.709   5.970  13.428
 1763TIP3    H255758   1.811   5.888  13.358
 1764TIP3   OH255759   0.030   5.928  12.204
 1764TIP3    H155760  -0.059   5.964  12.195
 1764TIP3    H255761   0.079   5.982  12.139
 1765TIP3   OH255762   8.169   5.824  13.045
 1765TIP3    H155763   8.116   5.791  13.117
 1765TIP3    H255764   8.116   5.884  12.994
 1766TIP3   OH255765   0.247   7.154  13.462
 1766TIP3    H155766   0.167   7.137  13.407
 1766TIP3    H255767   0.225   7.114  13.547
 1767TIP3   OH255768   0.549   7.247  13.109
 1767TIP3    H155769   0.500   7.303  13.046
 1767TIP3    H255770   0.626   7.226  13.052
 1768TIP3   OH255771   0.972   7.369  13.378
 1768TIP3    H155772   0.992   7.337  13.468
 1768TIP3    H255773   1.061   7.399  13.348
 1769TIP3   OH255774   1.204   7.490  13.309
 1769TIP3    H155775   1.281   7.439  13.280
 1769TIP3    H255776   1.246   7.538  13.384
 1770TIP3   OH255777   0.300   7.534  13.082
 1770TIP3    H155778   0.224   7.585  13.039
 1770TIP3    H255779   0.250   7.541  13.167
 1771TIP3   OH255780   0.538   7.514  12.993
 1771TIP3    H155781   0.443   7.518  13.023
 1771TIP3    H255782   0.529   7.567  12.912
 1772TIP3   OH255783   1.007   7.501  12.907
 1772TIP3    H155784   0.953   7.554  12.846
 1772TIP3    H255785   1.020   7.565  12.981
 1773TIP3   OH255786   1.237   7.381  13.001
 1773TIP3    H155787   1.146   7.406  12.981
 1773TIP3    H255788   1.280   7.466  13.007
 1774TIP3   OH255789   0.235   7.388  12.763
 1774TIP3    H155790   0.229   7.367  12.858
 1774TIP3    H255791   0.328   7.375  12.743
 1775TIP3   OH255792   0.705   7.336  12.731
 1775TIP3    H155793   0.708   7.243  12.702
 1775TIP3    H255794   0.698   7.324  12.827
 1776TIP3   OH255795   0.171   7.319  12.071
 1776TIP3    H155796   0.087   7.318  12.024
 1776TIP3    H255797   0.156   7.405  12.111
 1777TIP3   OH255798   0.354   5.947  11.842
 1777TIP3    H155799   0.388   5.864  11.806
 1777TIP3    H255800   0.409   5.955  11.921
 1778TIP3   OH255801   0.853   5.962  12.096
 1778TIP3    H155802   0.864   5.896  12.166
 1778TIP3    H255803   0.838   6.044  12.145
 1779TIP3   OH255804   1.028   7.471  11.934
 1779TIP3    H155805   1.125   7.489  11.923
 1779TIP3    H255806   1.018   7.409  11.859
 1780TIP3   OH255807   0.347   7.427  11.794
 1780TIP3    H155808   0.294   7.463  11.871
 1780TIP3    H255809   0.401   7.364  11.834
 1781TIP3   OH255810   3.074   6.675  12.418
 1781TIP3    H155811   3.071   6.771  12.417
 1781TIP3    H255812   3.003   6.651  12.354
 1782TIP3   OH255813   2.964   6.600  12.766
 1782TIP3    H155814   2.955   6.535  12.837
 1782TIP3    H255815   2.928   6.553  12.689
 1783TIP3   OH255816   2.200   6.556  12.919
 1783TIP3    H155817   2.205   6.511  13.003
 1783TIP3    H255818   2.261   6.633  12.937
 1784TIP3   OH255819   1.953   6.372  12.317
 1784TIP3    H155820   1.907   6.460  12.313
 1784TIP3    H255821   1.895   6.317  12.263
 1785TIP3   OH255822   2.016   6.588  12.532
 1785TIP3    H155823   2.049   6.512  12.581
 1785TIP3    H255824   2.092   6.608  12.478
 1786TIP3   OH255825   3.046   7.408  12.616
 1786TIP3    H155826   3.113   7.341  12.589
 1786TIP3    H255827   3.024   7.377  12.703
 1787TIP3   OH255828   2.800   6.842  12.811
 1787TIP3    H155829   2.833   6.778  12.747
 1787TIP3    H255830   2.879   6.855  12.865
 1788TIP3   OH255831   3.654   6.015  12.882
 1788TIP3    H155832   3.682   6.055  12.968
 1788TIP3    H255833   3.729   6.044  12.828
 1789TIP3   OH255834   2.093   6.338  12.641
 1789TIP3    H155835   2.161   6.281  12.678
 1789TIP3    H255836   2.093   6.310  12.548
 1790TIP3   OH255837   2.610   6.491  12.562
 1790TIP3    H155838   2.668   6.436  12.616
 1790TIP3    H255839   2.551   6.426  12.524
 1791TIP3   OH255840   3.701   6.152  13.111
 1791TIP3    H155841   3.638   6.225  13.109
 1791TIP3    H255842   3.713   6.134  13.205
 1792TIP3   OH255843   2.317   6.013  12.982
 1792TIP3    H155844   2.291   6.020  12.887
 1792TIP3    H255845   2.242   5.982  13.037
 1793TIP3   OH255846   3.398   6.049  12.604
 1793TIP3    H155847   3.354   5.970  12.646
 1793TIP3    H255848   3.457   6.074  12.672
 1794TIP3   OH255849   2.271   6.173  12.776
 1794TIP3    H155850   2.344   6.240  12.793
 1794TIP3    H255851   2.317   6.134  12.697
 1795TIP3   OH255852   3.414   5.909  12.967
 1795TIP3    H155853   3.341   5.972  12.967
 1795TIP3    H255854   3.488   5.951  12.920
 1796TIP3   OH255855   2.943   6.602  12.173
 1796TIP3    H155856   2.874   6.659  12.135
 1796TIP3    H255857   3.011   6.603  12.103
 1797TIP3   OH255858   2.949   6.457  11.862
 1797TIP3    H155859   3.011   6.451  11.940
 1797TIP3    H255860   2.980   6.378  11.815
 1798TIP3   OH255861   3.663   6.534  12.979
 1798TIP3    H155862   3.624   6.621  13.007
 1798TIP3    H255863   3.733   6.573  12.921
 1799TIP3   OH255864   3.284   6.616  12.260
 1799TIP3    H155865   3.208   6.646  12.317
 1799TIP3    H255866   3.329   6.549  12.309
 1800TIP3   OH255867   3.284   6.441  13.165
 1800TIP3    H155868   3.279   6.518  13.224
 1800TIP3    H255869   3.210   6.468  13.107
 1801TIP3   OH255870   2.487   6.554  12.822
 1801TIP3    H155871   2.534   6.578  12.740
 1801TIP3    H255872   2.511   6.633  12.874
 1802TIP3   OH255873   3.087   7.126  12.885
 1802TIP3    H155874   3.118   7.178  12.958
 1802TIP3    H255875   3.106   7.034  12.920
 1803TIP3   OH255876   3.173   6.538  12.029
 1803TIP3    H155877   3.228   6.558  12.108
 1803TIP3    H255878   3.217   6.587  11.959
 1804TIP3   OH255879   2.260   6.613  13.218
 1804TIP3    H155880   2.273   6.695  13.270
 1804TIP3    H255881   2.179   6.641  13.173
 1805TIP3   OH255882   2.942   7.214  12.375
 1805TIP3    H155883   2.988   7.245  12.454
 1805TIP3    H255884   2.887   7.287  12.350
 1806TIP3   OH255885   3.538   5.715  12.005
 1806TIP3    H155886   3.449   5.726  12.043
 1806TIP3    H255887   3.570   5.805  11.985
 1807TIP3   OH255888   1.933   6.826  13.106
 1807TIP3    H155889   1.921   6.826  13.010
 1807TIP3    H255890   1.967   6.738  13.119
 1808TIP3   OH255891   2.840   7.150  13.221
 1808TIP3    H155892   2.856   7.209  13.300
 1808TIP3    H255893   2.769   7.092  13.260
 1809TIP3   OH255894   3.474   6.322  13.397
 1809TIP3    H155895   3.421   6.367  13.328
 1809TIP3    H255896   3.469   6.230  13.365
 1810TIP3   OH255897   3.248   6.164  13.222
 1810TIP3    H155898   3.181   6.140  13.290
 1810TIP3    H255899   3.220   6.252  13.193
 1811TIP3   OH255900   3.313   6.649  11.794
 1811TIP3    H155901   3.326   6.618  11.704
 1811TIP3    H255902   3.402   6.683  11.816
 1812TIP3   OH255903   2.887   6.024  11.865
 1812TIP3    H155904   2.844   6.035  11.951
 1812TIP3    H255905   2.842   5.945  11.834
 1813TIP3   OH255906   2.431   6.308  12.907
 1813TIP3    H155907   2.414   6.326  12.997
 1813TIP3    H255908   2.466   6.397  12.877
 1814TIP3   OH255909   2.202   6.374  13.125
 1814TIP3    H155910   2.239   6.414  13.207
 1814TIP3    H255911   2.157   6.297  13.157
 1815TIP3   OH255912   1.891   6.055  12.477
 1815TIP3    H155913   1.952   6.038  12.550
 1815TIP3    H255914   1.931   6.005  12.406
 1816TIP3   OH255915   2.018   6.122  12.024
 1816TIP3    H155916   2.066   6.180  11.963
 1816TIP3    H255917   1.949   6.180  12.058
 1817TIP3   OH255918   3.033   6.478  13.024
 1817TIP3    H155919   3.055   6.407  12.963
 1817TIP3    H255920   2.984   6.424  13.089
 1818TIP3   OH255921   2.417   6.381  11.887
 1818TIP3    H155922   2.371   6.302  11.853
 1818TIP3    H255923   2.510   6.356  11.885
 1819TIP3   OH255924   2.240   6.799  13.419
 1819TIP3    H155925   2.313   6.837  13.469
 1819TIP3    H255926   2.162   6.827  13.468
 1820TIP3   OH255927   2.763   6.800  12.099
 1820TIP3    H155928   2.679   6.760  12.073
 1820TIP3    H255929   2.742   6.817  12.193
 1821TIP3   OH255930   3.152   6.090  11.910
 1821TIP3    H155931   3.053   6.099  11.911
 1821TIP3    H255932   3.177   6.170  11.963
 1822TIP3   OH255933   2.910   6.831  13.228
 1822TIP3    H155934   2.881   6.788  13.311
 1822TIP3    H255935   2.886   6.922  13.240
 1823TIP3   OH255936   3.223   6.275  12.082
 1823TIP3    H155937   3.308   6.264  12.126
 1823TIP3    H255938   3.226   6.362  12.039
 1824TIP3   OH255939   2.966   6.958  11.992
 1824TIP3    H155940   2.942   7.037  12.046
 1824TIP3    H255941   2.901   6.896  12.032
 1825TIP3   OH255942   1.984   6.569  13.203
 1825TIP3    H155943   1.990   6.556  13.295
 1825TIP3    H255944   1.906   6.528  13.160
 1826TIP3   OH255945   2.675   6.540  13.433
 1826TIP3    H155946   2.642   6.513  13.345
 1826TIP3    H255947   2.768   6.516  13.429
 1827TIP3   OH255948   3.137   7.079  13.219
 1827TIP3    H155949   3.045   7.087  13.201
 1827TIP3    H255950   3.146   7.098  13.314
 1828TIP3   OH255951   3.708   6.294  12.064
 1828TIP3    H155952   3.653   6.261  11.991
 1828TIP3    H255953   3.718   6.388  12.036
 1829TIP3   OH255954   3.252   6.650  12.815
 1829TIP3    H155955   3.157   6.638  12.801
 1829TIP3    H255956   3.295   6.581  12.766
 1830TIP3   OH255957   2.090   6.591  11.857
 1830TIP3    H155958   2.142   6.637  11.928
 1830TIP3    H255959   2.002   6.598  11.903
 1831TIP3   OH255960   2.653   6.856  12.370
 1831TIP3    H155961   2.627   6.949  12.378
 1831TIP3    H255962   2.583   6.811  12.419
 1832TIP3   OH255963   2.654   7.284  13.007
 1832TIP3    H155964   2.699   7.361  12.970
 1832TIP3    H255965   2.686   7.226  13.078
 1833TIP3   OH255966   3.046   6.882  12.982
 1833TIP3    H155967   3.019   6.851  13.070
 1833TIP3    H255968   3.115   6.815  12.959
 1834TIP3   OH255969   3.274   6.962  11.882
 1834TIP3    H155970   3.313   6.945  11.969
 1834TIP3    H255971   3.181   6.969  11.904
 1835TIP3   OH255972   2.132   6.069  13.164
 1835TIP3    H155973   2.036   6.084  13.165
 1835TIP3    H255974   2.130   5.978  13.206
 1836TIP3   OH255975   2.702   7.082  11.739
 1836TIP3    H155976   2.702   7.013  11.677
 1836TIP3    H255977   2.649   7.053  11.817
 1837TIP3   OH255978   2.217   6.774  12.012
 1837TIP3    H155979   2.162   6.801  12.088
 1837TIP3    H255980   2.283   6.845  12.010
 1838TIP3   OH255981   2.854   7.210  12.052
 1838TIP3    H155982   2.771   7.261  12.058
 1838TIP3    H255983   2.906   7.262  11.990
 1839TIP3   OH255984   3.483   6.058  13.256
 1839TIP3    H155985   3.390   6.088  13.242
 1839TIP3    H255986   3.516   6.051  13.165
 1840TIP3   OH255987   3.333   6.429  12.656
 1840TIP3    H155988   3.245   6.405  12.621
 1840TIP3    H255989   3.335   6.370  12.732
 1841TIP3   OH255990   2.121   6.301  11.822
 1841TIP3    H155991   2.114   6.391  11.855
 1841TIP3    H255992   2.030   6.273  11.805
 1842TIP3   OH255993   2.889   7.273  11.751
 1842TIP3    H155994   2.821   7.208  11.774
 1842TIP3    H255995   2.968   7.225  11.726
 1843TIP3   OH255996   3.132   7.161  13.480
 1843TIP3    H155997   3.102   7.073  13.511
 1843TIP3    H255998   3.209   7.174  13.537
 1844TIP3   OH255999   1.987   6.791  13.554
 1844TIP3    H156000   2.034   6.722  13.505
 1844TIP3    H256001   1.944   6.849  13.489
 1845TIP3   OH256002   2.430   6.802  11.734
 1845TIP3    H156003   2.463   6.778  11.824
 1845TIP3    H256004   2.507   6.850  11.694
 1846TIP3   OH256005   2.679   6.807  13.485
 1846TIP3    H156006   2.644   6.835  13.400
 1846TIP3    H256007   2.683   6.709  13.477
 1847TIP3   OH256008   2.973   6.935  11.713
 1847TIP3    H156009   2.964   6.976  11.806
 1847TIP3    H256010   2.957   6.847  11.746
 1848TIP3   OH256011   3.251   6.799  13.234
 1848TIP3    H156012   3.323   6.858  13.206
 1848TIP3    H256013   3.176   6.859  13.226
 1849TIP3   OH256014   2.110   6.558  13.497
 1849TIP3    H156015   2.187   6.497  13.488
 1849TIP3    H256016   2.096   6.565  13.595
 1850TIP3   OH256017   2.552   6.645  11.979
 1850TIP3    H156018   2.517   6.597  12.057
 1850TIP3    H256019   2.594   6.570  11.934
 1851TIP3   OH256020   2.471   6.421  13.215
 1851TIP3    H156021   2.432   6.504  13.246
 1851TIP3    H256022   2.530   6.461  13.147
 1852TIP3   OH256023   2.678   6.485  11.800
 1852TIP3    H156024   2.658   6.399  11.761
 1852TIP3    H256025   2.766   6.465  11.842
 1853TIP3   OH256026   2.991   6.683  13.555
 1853TIP3    H156027   3.087   6.683  13.545
 1853TIP3    H256028   2.978   6.607  13.612
 1854TIP3   OH256029   3.596   6.703  11.754
 1854TIP3    H156030   3.584   6.664  11.667
 1854TIP3    H256031   3.613   6.796  11.733
 1855TIP3   OH256032   2.727   6.550  13.109
 1855TIP3    H156033   2.797   6.531  13.045
 1855TIP3    H256034   2.688   6.632  13.075
 1856TIP3   OH256035   3.164   6.331  13.599
 1856TIP3    H156036   3.185   6.238  13.598
 1856TIP3    H256037   3.251   6.372  13.607
 1857TIP3   OH256038   3.296   6.608  13.416
 1857TIP3    H156039   3.273   6.681  13.354
 1857TIP3    H256040   3.393   6.605  13.400
 1858TIP3   OH256041   2.364   6.294  13.505
 1858TIP3    H156042   2.304   6.218  13.506
 1858TIP3    H256043   2.444   6.258  13.462
 1859TIP3   OH256044   3.052   6.097  13.396
 1859TIP3    H156045   2.955   6.099  13.387
 1859TIP3    H256046   3.071   6.024  13.454
 1860TIP3   OH256047   2.178   6.083  13.488
 1860TIP3    H156048   2.207   6.006  13.435
 1860TIP3    H256049   2.181   6.039  13.575
 1861TIP3   OH256050   2.660   7.536  11.915
 1861TIP3    H156051   2.754   7.551  11.930
 1861TIP3    H256052   2.631   7.598  11.852
 1862TIP3   OH256053   3.689   6.595  12.338
 1862TIP3    H156054   3.613   6.548  12.375
 1862TIP3    H256055   3.748   6.618  12.412
 1863TIP3   OH256056   3.720   6.582  11.975
 1863TIP3    H156057   3.665   6.621  11.904
 1863TIP3    H256058   3.715   6.651  12.044
 1864TIP3   OH256059   3.552   6.304  11.830
 1864TIP3    H156060   3.564   6.371  11.762
 1864TIP3    H256061   3.540   6.224  11.779
 1865TIP3   OH256062   3.486   6.435  12.417
 1865TIP3    H156063   3.451   6.352  12.376
 1865TIP3    H256064   3.418   6.478  12.469
 1866TIP3   OH256065   1.971   6.642  12.796
 1866TIP3    H156066   1.993   6.654  12.701
 1866TIP3    H256067   2.060   6.650  12.834
 1867TIP3   OH256068   3.555   6.643  13.364
 1867TIP3    H156069   3.618   6.570  13.376
 1867TIP3    H256070   3.613   6.720  13.350
 1868TIP3   OH256071   3.707   6.435  13.418
 1868TIP3    H156072   3.619   6.392  13.414
 1868TIP3    H256073   3.766   6.360  13.422
 1869TIP3   OH256074   3.473   6.018  11.733
 1869TIP3    H156075   3.543   6.018  11.805
 1869TIP3    H256076   3.390   6.024  11.782
 1870TIP3   OH256077   3.447   6.210  12.251
 1870TIP3    H156078   3.466   6.113  12.247
 1870TIP3    H256079   3.519   6.242  12.196
 1871TIP3   OH256080   3.506   6.218  12.831
 1871TIP3    H156081   3.605   6.239  12.831
 1871TIP3    H256082   3.481   6.265  12.914
 1872TIP3   OH256083   3.501   6.335  13.055
 1872TIP3    H156084   3.420   6.365  13.101
 1872TIP3    H256085   3.555   6.418  13.049
 1873TIP3   OH256086   1.940   6.189  13.426
 1873TIP3    H156087   2.028   6.143  13.430
 1873TIP3    H256088   1.886   6.103  13.437
 1874TIP3   OH256089   3.731   5.735  13.594
 1874TIP3    H156090   3.770   5.668  13.535
 1874TIP3    H256091   3.748   5.818  13.548
 1875TIP3   OH256092   3.508   5.927  12.242
 1875TIP3    H156093   3.519   5.887  12.329
 1875TIP3    H256094   3.439   5.873  12.205
 1876TIP3   OH256095   2.053   6.014  12.701
 1876TIP3    H156096   2.097   5.931  12.723
 1876TIP3    H256097   2.109   6.083  12.734
 1877TIP3   OH256098   1.892   6.309  12.814
 1877TIP3    H156099   1.933   6.293  12.726
 1877TIP3    H256100   1.921   6.401  12.829
 1878TIP3   OH256101   3.689   5.947  13.434
 1878TIP3    H156102   3.595   5.972  13.426
 1878TIP3    H256103   3.696   5.895  13.351
 1879TIP3   OH256104   3.681   5.937  11.889
 1879TIP3    H156105   3.737   5.866  11.854
 1879TIP3    H256106   3.752   6.000  11.911
 1880TIP3   OH256107   1.920   5.817  13.048
 1880TIP3    H156108   1.850   5.781  13.104
 1880TIP3    H256109   1.864   5.866  12.983
 1881TIP3   OH256110   2.864   7.364  13.369
 1881TIP3    H156111   2.874   7.336  13.465
 1881TIP3    H256112   2.953   7.405  13.355
 1882TIP3   OH256113   3.088   7.485  13.311
 1882TIP3    H156114   3.170   7.439  13.282
 1882TIP3    H256115   3.131   7.542  13.378
 1883TIP3   OH256116   3.587   5.756  13.223
 1883TIP3    H156117   3.510   5.788  13.173
 1883TIP3    H256118   3.612   5.681  13.164
 1884TIP3   OH256119   2.881   7.489  12.923
 1884TIP3    H156120   2.846   7.546  12.847
 1884TIP3    H256121   2.906   7.569  12.980
 1885TIP3   OH256122   3.102   7.385  13.019
 1885TIP3    H156123   3.037   7.425  12.961
 1885TIP3    H256124   3.168   7.458  13.007
 1886TIP3   OH256125   3.441   5.706  12.658
 1886TIP3    H156126   3.502   5.759  12.600
 1886TIP3    H256127   3.355   5.740  12.631
 1887TIP3   OH256128   3.612   5.825  12.484
 1887TIP3    H156129   3.680   5.771  12.440
 1887TIP3    H256130   3.656   5.912  12.491
 1888TIP3   OH256131   2.233   5.938  11.852
 1888TIP3    H156132   2.276   5.867  11.803
 1888TIP3    H256133   2.296   5.964  11.918
 1889TIP3   OH256134   2.158   5.827  13.376
 1889TIP3    H156135   2.120   5.744  13.412
 1889TIP3    H256136   2.249   5.809  13.410
 1890TIP3   OH256137   2.356   5.752  13.535
 1890TIP3    H156138   2.443   5.720  13.508
 1890TIP3    H256139   2.322   5.672  13.579
 1891TIP3   OH256140   4.861   6.591  12.752
 1891TIP3    H156141   4.844   6.549  12.838
 1891TIP3    H256142   4.798   6.554  12.693
 1892TIP3   OH256143   4.086   6.564  12.919
 1892TIP3    H156144   4.092   6.498  12.991
 1892TIP3    H256145   4.156   6.624  12.945
 1893TIP3   OH256146   4.182   7.013  12.775
 1893TIP3    H156147   4.143   6.931  12.739
 1893TIP3    H256148   4.274   6.989  12.780
 1894TIP3   OH256149   3.827   6.370  12.331
 1894TIP3    H156150   3.797   6.461  12.308
 1894TIP3    H256151   3.787   6.319  12.258
 1895TIP3   OH256152   3.906   6.588  12.530
 1895TIP3    H156153   3.939   6.517  12.585
 1895TIP3    H256154   3.981   6.603  12.470
 1896TIP3   OH256155   5.536   6.020  12.881
 1896TIP3    H156156   5.567   6.062  12.965
 1896TIP3    H256157   5.608   6.045  12.822
 1897TIP3   OH256158   5.015   6.287  12.846
 1897TIP3    H156159   5.013   6.189  12.850
 1897TIP3    H256160   4.982   6.310  12.758
 1898TIP3   OH256161   5.110   6.085  12.402
 1898TIP3    H156162   5.172   6.050  12.471
 1898TIP3    H256163   5.168   6.123  12.332
 1899TIP3   OH256164   4.496   6.492  12.564
 1899TIP3    H156165   4.554   6.438  12.618
 1899TIP3    H256166   4.436   6.426  12.527
 1900TIP3   OH256167   5.592   6.154  13.111
 1900TIP3    H156168   5.515   6.212  13.097
 1900TIP3    H256169   5.596   6.128  13.205
 1901TIP3   OH256170   4.455   6.754  12.997
 1901TIP3    H156171   4.387   6.820  13.016
 1901TIP3    H256172   4.532   6.811  12.967
 1902TIP3   OH256173   5.268   6.053  12.609
 1902TIP3    H156174   5.246   5.963  12.645
 1902TIP3    H256175   5.338   6.072  12.672
 1903TIP3   OH256176   4.296   6.951  13.075
 1903TIP3    H156177   4.292   7.042  13.041
 1903TIP3    H256178   4.208   6.944  13.119
 1904TIP3   OH256179   5.300   5.911  12.976
 1904TIP3    H156180   5.225   5.969  12.963
 1904TIP3    H256181   5.370   5.947  12.918
 1905TIP3   OH256182   5.385   6.909  13.193
 1905TIP3    H156183   5.388   6.846  13.118
 1905TIP3    H256184   5.392   6.995  13.150
 1906TIP3   OH256185   4.832   6.464  11.859
 1906TIP3    H156186   4.883   6.459  11.945
 1906TIP3    H256187   4.814   6.373  11.827
 1907TIP3   OH256188   5.556   6.533  12.990
 1907TIP3    H156189   5.502   6.614  13.008
 1907TIP3    H256190   5.613   6.567  12.919
 1908TIP3   OH256191   5.166   6.438  13.170
 1908TIP3    H156192   5.158   6.516  13.226
 1908TIP3    H256193   5.099   6.466  13.103
 1909TIP3   OH256194   4.330   6.687  12.452
 1909TIP3    H156195   4.298   6.650  12.368
 1909TIP3    H256196   4.395   6.621  12.484
 1910TIP3   OH256197   4.367   6.572  12.816
 1910TIP3    H156198   4.425   6.575  12.738
 1910TIP3    H256199   4.411   6.632  12.881
 1911TIP3   OH256200   4.454   6.998  13.294
 1911TIP3    H156201   4.424   7.082  13.332
 1911TIP3    H256202   4.398   6.986  13.215
 1912TIP3   OH256203   5.061   6.526  12.018
 1912TIP3    H156204   5.102   6.563  12.100
 1912TIP3    H256205   5.097   6.600  11.964
 1913TIP3   OH256206   4.152   6.623  13.206
 1913TIP3    H156207   4.155   6.688  13.278
 1913TIP3    H256208   4.058   6.631  13.180
 1914TIP3   OH256209   4.288   7.213  13.363
 1914TIP3    H156210   4.282   7.196  13.266
 1914TIP3    H256211   4.195   7.203  13.388
 1915TIP3   OH256212   5.430   5.715  12.004
 1915TIP3    H156213   5.340   5.721  12.044
 1915TIP3    H256214   5.447   5.806  11.979
 1916TIP3   OH256215   4.232   6.590  12.218
 1916TIP3    H156216   4.201   6.666  12.163
 1916TIP3    H256217   4.163   6.526  12.197
 1917TIP3   OH256218   5.641   7.171  13.359
 1917TIP3    H156219   5.630   7.078  13.341
 1917TIP3    H256220   5.551   7.203  13.385
 1918TIP3   OH256221   5.362   6.328  13.385
 1918TIP3    H156222   5.295   6.365  13.325
 1918TIP3    H256223   5.347   6.232  13.371
 1919TIP3   OH256224   4.061   6.966  13.198
 1919TIP3    H156225   4.084   6.924  13.283
 1919TIP3    H256226   3.976   6.925  13.172
 1920TIP3   OH256227   5.132   6.164  13.221
 1920TIP3    H156228   5.071   6.139  13.295
 1920TIP3    H256229   5.107   6.254  13.194
 1921TIP3   OH256230   5.200   6.622  11.792
 1921TIP3    H156231   5.214   6.639  11.700
 1921TIP3    H256232   5.279   6.681  11.819
 1922TIP3   OH256233   4.351   6.315  12.918
 1922TIP3    H156234   4.270   6.294  12.969
 1922TIP3    H256235   4.334   6.402  12.878
 1923TIP3   OH256236   4.902   6.379  12.275
 1923TIP3    H156237   4.846   6.454  12.249
 1923TIP3    H256238   4.953   6.365  12.193
 1924TIP3   OH256239   4.797   6.389  13.427
 1924TIP3    H156240   4.744   6.316  13.459
 1924TIP3    H256241   4.882   6.375  13.473
 1925TIP3   OH256242   5.004   6.340  12.599
 1925TIP3    H156243   4.952   6.400  12.538
 1925TIP3    H256244   4.994   6.242  12.596
 1926TIP3   OH256245   4.102   6.342  13.090
 1926TIP3    H156246   4.114   6.371  13.181
 1926TIP3    H256247   4.067   6.251  13.094
 1927TIP3   OH256248   3.768   6.044  12.481
 1927TIP3    H156249   3.837   6.043  12.549
 1927TIP3    H256250   3.817   6.008  12.404
 1928TIP3   OH256251   4.921   6.475  13.031
 1928TIP3    H156252   4.951   6.411  12.964
 1928TIP3    H256253   4.866   6.423  13.090
 1929TIP3   OH256254   5.036   6.011  12.819
 1929TIP3    H156255   4.977   6.006  12.898
 1929TIP3    H256256   4.982   5.966  12.753
 1930TIP3   OH256257   4.318   6.331  11.902
 1930TIP3    H156258   4.241   6.352  11.848
 1930TIP3    H256259   4.398   6.374  11.866
 1931TIP3   OH256260   4.124   6.816  13.418
 1931TIP3    H156261   4.197   6.834  13.481
 1931TIP3    H256262   4.048   6.819  13.478
 1932TIP3   OH256263   4.731   6.347  12.692
 1932TIP3    H156264   4.778   6.282  12.645
 1932TIP3    H256265   4.703   6.300  12.774
 1933TIP3   OH256266   4.594   6.191  12.933
 1933TIP3    H156267   4.504   6.230  12.943
 1933TIP3    H256268   4.639   6.217  13.015
 1934TIP3   OH256269   5.364   6.723  12.982
 1934TIP3    H156270   5.421   6.777  12.923
 1934TIP3    H256271   5.277   6.735  12.940
 1935TIP3   OH256272   5.034   6.108  11.905
 1935TIP3    H156273   4.938   6.085  11.905
 1935TIP3    H256274   5.062   6.167  11.975
 1936TIP3   OH256275   5.105   6.285  12.099
 1936TIP3    H156276   5.199   6.261  12.118
 1936TIP3    H256277   5.120   6.366  12.044
 1937TIP3   OH256278   4.157   6.737  12.676
 1937TIP3    H156279   4.233   6.736  12.616
 1937TIP3    H256280   4.167   6.657  12.731
 1938TIP3   OH256281   3.864   6.581  13.210
 1938TIP3    H156282   3.875   6.544  13.299
 1938TIP3    H256283   3.798   6.523  13.169
 1939TIP3   OH256284   4.557   6.536  13.433
 1939TIP3    H156285   4.527   6.516  13.343
 1939TIP3    H256286   4.651   6.512  13.426
 1940TIP3   OH256287   5.584   6.874  13.354
 1940TIP3    H156288   5.507   6.904  13.297
 1940TIP3    H256289   5.653   6.873  13.279
 1941TIP3   OH256290   3.978   6.571  11.881
 1941TIP3    H156291   4.028   6.644  11.920
 1941TIP3    H256292   3.888   6.603  11.905
 1942TIP3   OH256293   4.401   7.359  12.330
 1942TIP3    H156294   4.308   7.369  12.350
 1942TIP3    H256295   4.441   7.441  12.366
 1943TIP3   OH256296   5.618   7.425  11.901
 1943TIP3    H156297   5.688   7.489  11.898
 1943TIP3    H256298   5.542   7.472  11.940
 1944TIP3   OH256299   4.568   7.084  11.732
 1944TIP3    H156300   4.603   7.015  11.675
 1944TIP3    H256301   4.542   7.047  11.817
 1945TIP3   OH256302   4.472   7.037  11.980
 1945TIP3    H156303   4.480   6.995  12.067
 1945TIP3    H256304   4.468   7.131  12.007
 1946TIP3   OH256305   4.119   6.768  12.036
 1946TIP3    H156306   4.039   6.805  12.077
 1946TIP3    H256307   4.157   6.851  12.001
 1947TIP3   OH256308   4.900   6.033  13.058
 1947TIP3    H156309   4.964   6.039  13.130
 1947TIP3    H256310   4.855   5.949  13.080
 1948TIP3   OH256311   4.752   6.275  13.166
 1948TIP3    H156312   4.757   6.330  13.246
 1948TIP3    H256313   4.814   6.202  13.181
 1949TIP3   OH256314   4.793   5.876  12.357
 1949TIP3    H156315   4.742   5.939  12.406
 1949TIP3    H256316   4.843   5.926  12.292
 1950TIP3   OH256317   5.371   6.066  13.255
 1950TIP3    H156318   5.274   6.085  13.245
 1950TIP3    H256319   5.394   6.052  13.162
 1951TIP3   OH256320   5.222   6.433  12.659
 1951TIP3    H156321   5.127   6.408  12.655
 1951TIP3    H256322   5.251   6.381  12.738
 1952TIP3   OH256323   4.181   7.018  11.925
 1952TIP3    H156324   4.229   7.098  11.944
 1952TIP3    H256325   4.218   6.988  11.841
 1953TIP3   OH256326   4.018   6.296  11.821
 1953TIP3    H156327   4.001   6.389  11.851
 1953TIP3    H256328   3.923   6.273  11.806
 1954TIP3   OH256329   3.914   7.433  13.445
 1954TIP3    H156330   3.962   7.411  13.526
 1954TIP3    H256331   3.860   7.353  13.433
 1955TIP3   OH256332   4.373   7.331  13.602
 1955TIP3    H156333   4.437   7.272  13.646
 1955TIP3    H256334   4.360   7.288  13.514
 1956TIP3   OH256335   4.352   6.843  11.769
 1956TIP3    H156336   4.318   6.761  11.801
 1956TIP3    H256337   4.385   6.834  11.677
 1957TIP3   OH256338   4.561   6.806  13.487
 1957TIP3    H156339   4.534   6.841  13.400
 1957TIP3    H256340   4.573   6.712  13.470
 1958TIP3   OH256341   4.858   6.946  11.730
 1958TIP3    H156342   4.847   6.965  11.823
 1958TIP3    H256343   4.850   6.854  11.715
 1959TIP3   OH256344   3.984   6.533  13.484
 1959TIP3    H156345   4.023   6.447  13.476
 1959TIP3    H256346   3.961   6.534  13.580
 1960TIP3   OH256347   4.392   6.622  12.018
 1960TIP3    H156348   4.375   6.578  12.105
 1960TIP3    H256349   4.413   6.543  11.971
 1961TIP3   OH256350   4.378   6.433  13.227
 1961TIP3    H156351   4.311   6.500  13.244
 1961TIP3    H256352   4.412   6.462  13.140
 1962TIP3   OH256353   4.556   6.460  11.802
 1962TIP3    H156354   4.542   6.441  11.707
 1962TIP3    H256355   4.654   6.456  11.812
 1963TIP3   OH256356   5.454   6.703  11.751
 1963TIP3    H156357   5.488   6.660  11.672
 1963TIP3    H256358   5.505   6.785  11.740
 1964TIP3   OH256359   4.610   6.548  13.106
 1964TIP3    H156360   4.684   6.539  13.045
 1964TIP3    H256361   4.575   6.634  13.075
 1965TIP3   OH256362   5.049   6.326  13.608
 1965TIP3    H156363   5.074   6.235  13.590
 1965TIP3    H256364   5.134   6.371  13.602
 1966TIP3   OH256365   5.182   6.611  13.418
 1966TIP3    H156366   5.152   6.680  13.357
 1966TIP3    H256367   5.276   6.601  13.396
 1967TIP3   OH256368   4.929   6.099  13.396
 1967TIP3    H156369   4.833   6.090  13.401
 1967TIP3    H256370   4.959   6.024  13.452
 1968TIP3   OH256371   5.090   5.959  13.584
 1968TIP3    H156372   5.083   5.860  13.581
 1968TIP3    H256373   5.059   5.979  13.673
 1969TIP3   OH256374   5.572   7.380  13.137
 1969TIP3    H156375   5.513   7.312  13.106
 1969TIP3    H256376   5.615   7.342  13.213
 1970TIP3   OH256377   5.394   6.972  13.609
 1970TIP3    H156378   5.305   6.970  13.647
 1970TIP3    H256379   5.432   7.055  13.652
 1971TIP3   OH256380   5.585   6.588  12.337
 1971TIP3    H156381   5.502   6.558  12.371
 1971TIP3    H256382   5.636   6.619  12.411
 1972TIP3   OH256383   5.555   6.871  12.837
 1972TIP3    H156384   5.638   6.835  12.801
 1972TIP3    H256385   5.564   6.966  12.820
 1973TIP3   OH256386   5.406   6.310  11.817
 1973TIP3    H156387   5.466   6.374  11.771
 1973TIP3    H256388   5.435   6.223  11.785
 1974TIP3   OH256389   5.345   6.460  12.373
 1974TIP3    H156390   5.334   6.364  12.352
 1974TIP3    H256391   5.304   6.506  12.449
 1975TIP3   OH256392   3.856   6.635  12.797
 1975TIP3    H156393   3.878   6.655  12.704
 1975TIP3    H256394   3.945   6.645  12.837
 1976TIP3   OH256395   5.444   6.651  13.385
 1976TIP3    H156396   5.501   6.570  13.373
 1976TIP3    H256397   5.501   6.718  13.341
 1977TIP3   OH256398   5.595   6.437  13.429
 1977TIP3    H156399   5.506   6.393  13.430
 1977TIP3    H256400   5.657   6.360  13.433
 1978TIP3   OH256401   5.372   6.046  11.734
 1978TIP3    H156402   5.423   6.016  11.813
 1978TIP3    H256403   5.286   6.006  11.761
 1979TIP3   OH256404   5.326   6.208  12.253
 1979TIP3    H156405   5.355   6.112  12.245
 1979TIP3    H256406   5.401   6.242  12.198
 1980TIP3   OH256407   5.390   6.272  12.773
 1980TIP3    H156408   5.488   6.275  12.788
 1980TIP3    H256409   5.367   6.268  12.870
 1981TIP3   OH256410   5.397   6.334  13.067
 1981TIP3    H156411   5.304   6.359  13.092
 1981TIP3    H256412   5.432   6.421  13.035
 1982TIP3   OH256413   5.621   5.734  13.596
 1982TIP3    H156414   5.657   5.668  13.534
 1982TIP3    H256415   5.634   5.817  13.546
 1983TIP3   OH256416   5.377   5.940  12.257
 1983TIP3    H156417   5.413   5.881  12.328
 1983TIP3    H256418   5.333   5.872  12.201
 1984TIP3   OH256419   3.753   6.329  12.778
 1984TIP3    H156420   3.830   6.281  12.738
 1984TIP3    H256421   3.810   6.387  12.836
 1985TIP3   OH256422   5.573   5.948  13.433
 1985TIP3    H156423   5.479   5.971  13.428
 1985TIP3    H256424   5.579   5.892  13.354
 1986TIP3   OH256425   5.574   5.943  11.870
 1986TIP3    H156426   5.620   5.860  11.865
 1986TIP3    H256427   5.638   6.006  11.910
 1987TIP3   OH256428   4.318   7.232  13.091
 1987TIP3    H156429   4.274   7.310  13.054
 1987TIP3    H256430   4.406   7.232  13.050
 1988TIP3   OH256431   5.477   5.757  13.211
 1988TIP3    H156432   5.390   5.785  13.177
 1988TIP3    H256433   5.491   5.673  13.162
 1989TIP3   OH256434   4.063   7.557  13.094
 1989TIP3    H156435   3.986   7.590  13.045
 1989TIP3    H256436   4.016   7.521  13.171
 1990TIP3   OH256437   4.309   7.514  13.000
 1990TIP3    H156438   4.213   7.518  13.028
 1990TIP3    H256439   4.295   7.560  12.915
 1991TIP3   OH256440   4.208   7.291  12.665
 1991TIP3    H156441   4.190   7.195  12.663
 1991TIP3    H256442   4.301   7.299  12.691
 1992TIP3   OH256443   4.464   7.330  12.733
 1992TIP3    H156444   4.495   7.244  12.698
 1992TIP3    H256445   4.475   7.321  12.827
 1993TIP3   OH256446   4.819   5.907  12.641
 1993TIP3    H156447   4.753   5.842  12.669
 1993TIP3    H256448   4.874   5.848  12.587
 1994TIP3   OH256449   5.495   5.830  12.479
 1994TIP3    H156450   5.563   5.772  12.439
 1994TIP3    H256451   5.547   5.909  12.494
 1995TIP3   OH256452   5.050   5.764  12.568
 1995TIP3    H156453   5.076   5.761  12.476
 1995TIP3    H256454   5.042   5.669  12.584
 1996TIP3   OH256455   5.197   5.766  12.146
 1996TIP3    H156456   5.123   5.819  12.116
 1996TIP3    H256457   5.156   5.679  12.154
 1997TIP3   OH256458   4.154   5.961  11.832
 1997TIP3    H156459   4.156   5.864  11.806
 1997TIP3    H256460   4.165   5.945  11.928
 1998TIP3   OH256461   4.108   7.434  11.799
 1998TIP3    H156462   4.069   7.458  11.885
 1998TIP3    H256463   4.179   7.374  11.818
 1999TIP3   OH256464   5.090   5.697  13.561
 1999TIP3    H156465   5.087   5.632  13.632
 1999TIP3    H256466   5.172   5.676  13.512
 2000TIP3   OH256467   5.402   7.285  13.422
 2000TIP3    H156468   5.322   7.281  13.368
 2000TIP3    H256469   5.390   7.382  13.438
 2001TIP3   OH256470   6.883   6.285  12.842
 2001TIP3    H156471   6.908   6.191  12.841
 2001TIP3    H256472   6.883   6.307  12.747
 2002TIP3   OH256473   6.482   5.720  12.717
 2002TIP3    H156474   6.468   5.624  12.709
 2002TIP3    H256475   6.397   5.755  12.749
 2003TIP3   OH256476   6.149   7.213  13.371
 2003TIP3    H156477   6.137   7.142  13.306
 2003TIP3    H256478   6.063   7.188  13.414
 2004TIP3   OH256479   5.705   6.831  13.101
 2004TIP3    H156480   5.681   6.822  13.008
 2004TIP3    H256481   5.744   6.744  13.124
 2005TIP3   OH256482   6.033   7.379  12.392
 2005TIP3    H156483   6.041   7.355  12.487
 2005TIP3    H256484   5.942   7.353  12.373
 2006TIP3   OH256485   6.684   5.780  13.128
 2006TIP3    H156486   6.724   5.737  13.205
 2006TIP3    H256487   6.588   5.762  13.142
 2007TIP3   OH256488   7.088   6.646  11.796
 2007TIP3    H156489   7.094   6.620  11.705
 2007TIP3    H256490   7.176   6.681  11.816
 2008TIP3   OH256491   6.655   6.026  11.864
 2008TIP3    H156492   6.614   6.039  11.951
 2008TIP3    H256493   6.618   5.944  11.833
 2009TIP3   OH256494   6.676   6.397  13.437
 2009TIP3    H156495   6.632   6.314  13.462
 2009TIP3    H256496   6.767   6.374  13.470
 2010TIP3   OH256497   6.802   6.478  13.029
 2010TIP3    H156498   6.837   6.417  12.960
 2010TIP3    H256499   6.759   6.416  13.088
 2011TIP3   OH256500   6.926   5.991  12.827
 2011TIP3    H156501   6.856   6.004  12.895
 2011TIP3    H256502   6.869   5.980  12.749
 2012TIP3   OH256503   5.720   6.586  13.222
 2012TIP3    H156504   5.776   6.546  13.292
 2012TIP3    H256505   5.693   6.519  13.161
 2013TIP3   OH256506   6.435   6.518  13.430
 2013TIP3    H156507   6.394   6.502  13.341
 2013TIP3    H256508   6.520   6.466  13.432
 2014TIP3   OH256509   7.481   6.868  13.342
 2014TIP3    H156510   7.397   6.906  13.313
 2014TIP3    H256511   7.534   6.882  13.262
 2015TIP3   OH256512   7.027   6.662  12.798
 2015TIP3    H156513   6.935   6.633  12.807
 2015TIP3    H256514   7.076   6.580  12.783
 2016TIP3   OH256515   5.877   7.240  13.009
 2016TIP3    H156516   5.889   7.144  13.010
 2016TIP3    H256517   5.885   7.267  13.100
 2017TIP3   OH256518   6.451   7.095  11.736
 2017TIP3    H156519   6.481   7.021  11.677
 2017TIP3    H256520   6.434   7.039  11.816
 2018TIP3   OH256521   6.346   7.052  11.979
 2018TIP3    H156522   6.370   6.984  12.047
 2018TIP3    H256523   6.356   7.132  12.030
 2019TIP3   OH256524   6.784   6.032  13.057
 2019TIP3    H156525   6.849   6.043  13.126
 2019TIP3    H256526   6.740   5.948  13.078
 2020TIP3   OH256527   6.636   6.278  13.170
 2020TIP3    H156528   6.649   6.325  13.252
 2020TIP3    H256529   6.696   6.202  13.175
 2021TIP3   OH256530   6.662   5.868  12.350
 2021TIP3    H156531   6.632   5.935  12.414
 2021TIP3    H256532   6.728   5.922  12.304
 2022TIP3   OH256533   6.350   7.322  12.048
 2022TIP3    H156534   6.384   7.412  12.024
 2022TIP3    H256535   6.339   7.341  12.144
 2023TIP3   OH256536   6.058   7.050  11.895
 2023TIP3    H156537   6.122   7.083  11.959
 2023TIP3    H256538   6.100   6.970  11.858
 2024TIP3   OH256539   5.867   7.169  12.319
 2024TIP3    H156540   5.781   7.212  12.313
 2024TIP3    H256541   5.914   7.216  12.248
 2025TIP3   OH256542   5.800   7.427  13.441
 2025TIP3    H156543   5.845   7.411  13.525
 2025TIP3    H256544   5.740   7.352  13.432
 2026TIP3   OH256545   6.249   7.318  13.609
 2026TIP3    H156546   6.328   7.280  13.647
 2026TIP3    H256547   6.249   7.294  13.517
 2027TIP3   OH256548   6.656   7.274  11.754
 2027TIP3    H156549   6.602   7.196  11.770
 2027TIP3    H256550   6.735   7.227  11.721
 2028TIP3   OH256551   6.435   6.828  13.482
 2028TIP3    H156552   6.387   6.853  13.400
 2028TIP3    H256553   6.393   6.741  13.503
 2029TIP3   OH256554   6.754   6.671  13.541
 2029TIP3    H156555   6.851   6.690  13.547
 2029TIP3    H256556   6.752   6.608  13.616
 2030TIP3   OH256557   7.374   6.699  11.752
 2030TIP3    H156558   7.353   6.658  11.669
 2030TIP3    H256559   7.382   6.794  11.737
 2031TIP3   OH256560   6.934   6.334  13.591
 2031TIP3    H156561   6.952   6.238  13.597
 2031TIP3    H256562   7.020   6.371  13.613
 2032TIP3   OH256563   6.419   5.750  13.124
 2032TIP3    H156564   6.399   5.845  13.107
 2032TIP3    H256565   6.343   5.715  13.074
 2033TIP3   OH256566   6.811   6.094  13.387
 2033TIP3    H156567   6.718   6.096  13.405
 2033TIP3    H256568   6.849   6.033  13.455
 2034TIP3   OH256569   6.971   5.960  13.586
 2034TIP3    H156570   6.971   5.862  13.585
 2034TIP3    H256571   6.948   5.982  13.677
 2035TIP3   OH256572   6.444   5.684  13.394
 2035TIP3    H156573   6.508   5.611  13.388
 2035TIP3    H256574   6.427   5.702  13.300
 2036TIP3   OH256575   6.423   7.522  11.896
 2036TIP3    H156576   6.516   7.546  11.927
 2036TIP3    H256577   6.400   7.608  11.856
 2037TIP3   OH256578   5.786   7.008  11.843
 2037TIP3    H156579   5.871   7.000  11.891
 2037TIP3    H256580   5.785   6.918  11.806
 2038TIP3   OH256581   7.302   6.952  13.605
 2038TIP3    H156582   7.213   6.948  13.640
 2038TIP3    H256583   7.336   7.037  13.638
 2039TIP3   OH256584   5.745   6.642  12.792
 2039TIP3    H156585   5.769   6.650  12.699
 2039TIP3    H256586   5.830   6.646  12.838
 2040TIP3   OH256587   5.699   6.187  13.411
 2040TIP3    H156588   5.794   6.168  13.429
 2040TIP3    H256589   5.660   6.103  13.444
 2041TIP3   OH256590   5.647   6.322  12.787
 2041TIP3    H156591   5.718   6.285  12.730
 2041TIP3    H256592   5.699   6.390  12.832
 2042TIP3   OH256593   5.685   5.808  13.041
 2042TIP3    H156594   5.619   5.787  13.109
 2042TIP3    H256595   5.641   5.873  12.985
 2043TIP3   OH256596   5.909   7.137  13.456
 2043TIP3    H156597   5.823   7.141  13.411
 2043TIP3    H256598   5.884   7.120  13.548
 2044TIP3   OH256599   6.183   7.216  13.003
 2044TIP3    H156600   6.143   7.307  13.006
 2044TIP3    H256601   6.282   7.220  12.993
 2045TIP3   OH256602   5.940   7.539  13.092
 2045TIP3    H156603   5.879   7.602  13.043
 2045TIP3    H256604   5.897   7.539  13.178
 2046TIP3   OH256605   6.185   7.507  13.000
 2046TIP3    H156606   6.092   7.530  13.028
 2046TIP3    H256607   6.184   7.560  12.917
 2047TIP3   OH256608   7.136   7.547  13.032
 2047TIP3    H156609   7.140   7.641  13.011
 2047TIP3    H256610   7.170   7.503  12.954
 2048TIP3   OH256611   6.095   7.286  12.645
 2048TIP3    H156612   6.077   7.194  12.662
 2048TIP3    H256613   6.177   7.302  12.692
 2049TIP3   OH256614   6.709   5.895  12.650
 2049TIP3    H156615   6.633   5.837  12.673
 2049TIP3    H256616   6.756   5.847  12.582
 2050TIP3   OH256617   5.742   5.795  12.019
 2050TIP3    H156618   5.808   5.855  11.984
 2050TIP3    H256619   5.721   5.839  12.105
 2051TIP3   OH256620   6.390   5.748  12.413
 2051TIP3    H156621   6.476   5.790  12.403
 2051TIP3    H256622   6.380   5.737  12.507
 2052TIP3   OH256623   5.822   7.340  12.091
 2052TIP3    H156624   5.740   7.330  12.038
 2052TIP3    H256625   5.809   7.429  12.126
 2053TIP3   OH256626   5.999   5.895  11.871
 2053TIP3    H156627   6.057   5.886  11.792
 2053TIP3    H256628   6.057   5.967  11.911
 2054TIP3   OH256629   6.683   7.469  11.929
 2054TIP3    H156630   6.778   7.489  11.924
 2054TIP3    H256631   6.678   7.406  11.854
 2055TIP3   OH256632   5.928   5.820  13.388
 2055TIP3    H156633   5.895   5.736  13.424
 2055TIP3    H256634   6.023   5.817  13.403
 2056TIP3   OH256635   5.988   7.426  11.794
 2056TIP3    H156636   5.957   7.461  11.881
 2056TIP3    H256637   6.060   7.374  11.825
 2057TIP3   OH256638   6.967   5.685  13.553
 2057TIP3    H156639   6.977   5.638  13.637
 2057TIP3    H256640   7.059   5.680  13.516
 2058TIP3   OH256641   7.859   6.568  12.919
 2058TIP3    H156642   7.859   6.500  12.989
 2058TIP3    H256643   7.927   6.629  12.948
 2059TIP3   OH256644   7.935   6.994  12.799
 2059TIP3    H156645   7.912   6.921  12.741
 2059TIP3    H256646   8.032   6.991  12.786
 2060TIP3   OH256647   8.025   6.125  12.599
 2060TIP3    H156648   8.083   6.186  12.548
 2060TIP3    H256649   8.038   6.052  12.537
 2061TIP3   OH256650   7.964   5.983  12.971
 2061TIP3    H156651   7.945   6.045  12.900
 2061TIP3    H256652   7.903   6.012  13.042
 2062TIP3   OH256653   8.068   6.952  13.078
 2062TIP3    H156654   8.069   7.043  13.045
 2062TIP3    H256655   7.981   6.948  13.122
 2063TIP3   OH256656   8.093   6.687  12.457
 2063TIP3    H156657   8.068   6.650  12.370
 2063TIP3    H256658   8.160   6.623  12.488
 2064TIP3   OH256659   7.918   6.620  13.211
 2064TIP3    H156660   7.929   6.691  13.277
 2064TIP3    H256661   7.828   6.634  13.179
 2065TIP3   OH256662   8.050   7.215  13.368
 2065TIP3    H156663   8.055   7.194  13.270
 2065TIP3    H256664   7.958   7.186  13.380
 2066TIP3   OH256665   8.004   6.597  12.209
 2066TIP3    H156666   7.972   6.670  12.155
 2066TIP3    H256667   7.937   6.528  12.196
 2067TIP3   OH256668   7.612   6.831  13.096
 2067TIP3    H156669   7.562   6.824  13.015
 2067TIP3    H256670   7.613   6.737  13.123
 2068TIP3   OH256671   7.830   7.289  12.328
 2068TIP3    H156672   7.895   7.285  12.400
 2068TIP3    H256673   7.774   7.361  12.352
 2069TIP3   OH256674   7.837   6.961  13.199
 2069TIP3    H156675   7.854   6.923  13.286
 2069TIP3    H256676   7.749   6.928  13.175
 2070TIP3   OH256677   8.102   5.810  12.787
 2070TIP3    H156678   8.012   5.802  12.752
 2070TIP3    H256679   8.098   5.895  12.834
 2071TIP3   OH256680   8.113   6.318  12.980
 2071TIP3    H156681   8.019   6.300  12.992
 2071TIP3    H256682   8.101   6.374  12.902
 2072TIP3   OH256683   8.078   6.332  12.381
 2072TIP3    H156684   7.999   6.280  12.385
 2072TIP3    H256685   8.143   6.284  12.328
 2073TIP3   OH256686   7.877   6.336  13.092
 2073TIP3    H156687   7.881   6.377  13.180
 2073TIP3    H256688   7.835   6.251  13.106
 2074TIP3   OH256689   8.081   6.346  11.911
 2074TIP3    H156690   8.024   6.311  11.841
 2074TIP3    H256691   8.161   6.374  11.867
 2075TIP3   OH256692   7.899   6.808  13.419
 2075TIP3    H156693   7.969   6.835  13.480
 2075TIP3    H256694   7.819   6.825  13.474
 2076TIP3   OH256695   7.923   6.740  12.675
 2076TIP3    H156696   8.002   6.735  12.617
 2076TIP3    H256697   7.930   6.658  12.727
 2077TIP3   OH256698   7.628   6.586  13.209
 2077TIP3    H156699   7.647   6.542  13.294
 2077TIP3    H256700   7.565   6.524  13.166
 2078TIP3   OH256701   7.739   6.576  11.880
 2078TIP3    H156702   7.801   6.639  11.920
 2078TIP3    H256703   7.654   6.611  11.909
 2079TIP3   OH256704   7.796   6.057  13.165
 2079TIP3    H156705   7.705   6.090  13.164
 2079TIP3    H256706   7.782   5.969  13.208
 2080TIP3   OH256707   7.879   6.768  12.029
 2080TIP3    H156708   7.809   6.807  12.083
 2080TIP3    H256709   7.933   6.845  12.005
 2081TIP3   OH256710   7.945   7.023  11.918
 2081TIP3    H156711   8.002   7.095  11.947
 2081TIP3    H256712   7.998   6.983  11.847
 2082TIP3   OH256713   7.775   6.305  11.840
 2082TIP3    H156714   7.765   6.401  11.848
 2082TIP3    H256715   7.693   6.273  11.798
 2083TIP3   OH256716   7.855   5.775  12.702
 2083TIP3    H156717   7.836   5.779  12.605
 2083TIP3    H256718   7.816   5.691  12.729
 2084TIP3   OH256719   7.666   6.807  13.547
 2084TIP3    H156720   7.678   6.717  13.514
 2084TIP3    H256721   7.589   6.838  13.494
 2085TIP3   OH256722   8.093   6.838  11.751
 2085TIP3    H156723   8.110   6.764  11.810
 2085TIP3    H256724   8.164   6.830  11.686
 2086TIP3   OH256725   7.743   6.531  13.483
 2086TIP3    H156726   7.796   6.451  13.473
 2086TIP3    H256727   7.729   6.535  13.578
 2087TIP3   OH256728   8.020   6.293  13.529
 2087TIP3    H156729   7.949   6.235  13.500
 2087TIP3    H256730   8.092   6.262  13.468
 2088TIP3   OH256731   7.672   6.998  11.856
 2088TIP3    H156732   7.763   7.008  11.888
 2088TIP3    H256733   7.673   6.928  11.792
 2089TIP3   OH256734   7.442   7.474  12.423
 2089TIP3    H156735   7.445   7.477  12.324
 2089TIP3    H256736   7.538   7.480  12.442
 2090TIP3   OH256737   7.795   7.146  13.467
 2090TIP3    H156738   7.714   7.140  13.410
 2090TIP3    H256739   7.754   7.114  13.548
 2091TIP3   OH256740   8.090   7.221  13.096
 2091TIP3    H156741   8.048   7.304  13.060
 2091TIP3    H256742   8.177   7.231  13.051
 2092TIP3   OH256743   7.812   7.533  13.082
 2092TIP3    H156744   7.753   7.601  13.049
 2092TIP3    H256745   7.779   7.521  13.170
 2093TIP3   OH256746   8.029   7.438  12.996
 2093TIP3    H156747   7.971   7.499  13.050
 2093TIP3    H256748   8.061   7.525  12.960
 2094TIP3   OH256749   7.722   7.360  12.857
 2094TIP3    H156750   7.765   7.337  12.935
 2094TIP3    H256751   7.791   7.392  12.796
 2095TIP3   OH256752   8.071   7.144  12.659
 2095TIP3    H156753   7.972   7.154  12.665
 2095TIP3    H256754   8.084   7.230  12.698
 2096TIP3   OH256755   7.811   5.759  12.438
 2096TIP3    H156756   7.748   5.743  12.367
 2096TIP3    H256757   7.873   5.684  12.426
 2097TIP3   OH256758   8.015   5.756  13.542
 2097TIP3    H156759   8.099   5.725  13.502
 2097TIP3    H256760   7.971   5.675  13.569
 2098TIP3   OH256761   7.878   7.423  11.796
 2098TIP3    H156762   7.845   7.465  11.879
 2098TIP3    H256763   7.955   7.374  11.822
 2099TIP3   OH256764   1.792   7.889  12.888
 2099TIP3    H156765   1.784   7.954  12.959
 2099TIP3    H256766   1.819   7.940  12.813
 2100TIP3   OH256767   0.540   7.984  12.571
 2100TIP3    H156768   0.553   8.065  12.522
 2100TIP3    H256769   0.499   7.926  12.505
 2101TIP3   OH256770   1.447   7.936  12.405
 2101TIP3    H156771   1.407   7.968  12.486
 2101TIP3    H256772   1.414   8.018  12.352
 2102TIP3   OH256773   1.818   8.041  13.105
 2102TIP3    H156774   1.752   8.107  13.076
 2102TIP3    H256775   1.829   8.074  13.188
 2103TIP3   OH256776   0.435   7.870  12.966
 2103TIP3    H156777   0.405   7.931  12.896
 2103TIP3    H256778   0.370   7.896  13.036
 2104TIP3   OH256779   1.549   7.883  12.623
 2104TIP3    H156780   1.482   7.855  12.687
 2104TIP3    H256781   1.563   7.971  12.663
 2105TIP3   OH256782   0.402   8.056  12.790
 2105TIP3    H156783   0.457   8.131  12.808
 2105TIP3    H256784   0.442   8.018  12.706
 2106TIP3   OH256785   1.540   7.771  12.979
 2106TIP3    H156786   1.466   7.834  12.968
 2106TIP3    H256787   1.600   7.824  12.925
 2107TIP3   OH256788   0.827   7.604  12.717
 2107TIP3    H156789   0.807   7.509  12.712
 2107TIP3    H256790   0.739   7.638  12.749
 2108TIP3   OH256791   0.575   7.704  12.800
 2108TIP3    H156792   0.488   7.680  12.759
 2108TIP3    H256793   0.551   7.783  12.849
 2109TIP3   OH256794   1.024   7.662  13.129
 2109TIP3    H156795   1.069   7.623  13.206
 2109TIP3    H256796   0.928   7.647  13.146
 2110TIP3   OH256797   1.308   8.013  13.189
 2110TIP3    H156798   1.299   8.016  13.286
 2110TIP3    H256799   1.328   8.109  13.174
 2111TIP3   OH256800   0.977   7.923  11.864
 2111TIP3    H156801   0.969   7.909  11.959
 2111TIP3    H256802   0.973   7.832  11.829
 2112TIP3   OH256803   0.665   7.986  11.795
 2112TIP3    H156804   0.627   7.903  11.830
 2112TIP3    H256805   0.610   7.991  11.712
 2113TIP3   OH256806   0.108   7.924  12.439
 2113TIP3    H156807   0.080   7.923  12.532
 2113TIP3    H256808   0.042   7.872  12.394
 2114TIP3   OH256809   0.214   7.955  12.031
 2114TIP3    H156810   0.209   8.013  11.946
 2114TIP3    H256811   0.120   7.991  12.041
 2115TIP3   OH256812   0.830   7.945  12.503
 2115TIP3    H156813   0.738   7.964  12.531
 2115TIP3    H256814   0.878   7.953  12.587
 2116TIP3   OH256815   0.318   8.073  12.370
 2116TIP3    H156816   0.224   8.092  12.349
 2116TIP3    H256817   0.332   7.986  12.330
 2117TIP3   OH256818   0.667  -0.033  12.166
 2117TIP3    H156819   0.762  -0.026  12.201
 2117TIP3    H256820   0.656   0.063  12.164
 2118TIP3   OH256821   1.163   7.835  12.821
 2118TIP3    H156822   1.185   7.890  12.903
 2118TIP3    H256823   1.242   7.881  12.785
 2119TIP3   OH256824   0.452   7.846  12.316
 2119TIP3    H156825   0.421   7.760  12.351
 2119TIP3    H256826   0.546   7.848  12.299
 2120TIP3   OH256827   0.818   8.061  12.929
 2120TIP3    H156828   0.744   8.120  12.941
 2120TIP3    H256829   0.876   8.096  13.000
 2121TIP3   OH256830   1.262   7.979  11.923
 2121TIP3    H156831   1.170   7.989  11.900
 2121TIP3    H256832   1.298   8.065  11.949
 2122TIP3   OH256833   0.287   7.997  13.139
 2122TIP3    H156834   0.191   8.006  13.158
 2122TIP3    H256835   0.279   7.910  13.190
 2123TIP3   OH256836   1.106   7.919  13.067
 2123TIP3    H156837   1.192   7.934  13.116
 2123TIP3    H256838   1.087   7.827  13.085
 2124TIP3   OH256839   1.198   7.856  12.135
 2124TIP3    H156840   1.224   7.922  12.065
 2124TIP3    H256841   1.252   7.900  12.202
 2125TIP3   OH256842   0.893   8.064  12.240
 2125TIP3    H156843   0.984   8.105  12.246
 2125TIP3    H256844   0.888   8.051  12.338
 2126TIP3   OH256845   0.958  -0.049  13.210
 2126TIP3    H156846   0.970   0.042  13.243
 2126TIP3    H256847   1.044  -0.072  13.170
 2127TIP3   OH256848   1.010   7.756  12.357
 2127TIP3    H156849   0.963   7.826  12.408
 2127TIP3    H256850   1.063   7.808  12.289
 2128TIP3   OH256851   0.581   7.865  12.029
 2128TIP3    H156852   0.562   7.955  12.057
 2128TIP3    H256853   0.679   7.855  12.033
 2129TIP3   OH256854   1.648   7.877  13.197
 2129TIP3    H156855   1.551   7.898  13.220
 2129TIP3    H256856   1.630   7.928  13.113
 2130TIP3   OH256857   0.379   7.602  12.685
 2130TIP3    H156858   0.327   7.653  12.615
 2130TIP3    H256859   0.298   7.574  12.732
 2131TIP3   OH256860   0.604   8.036  13.322
 2131TIP3    H156861   0.647   7.971  13.263
 2131TIP3    H256862   0.631   8.120  13.284
 2132TIP3   OH256863   0.680   7.890  13.081
 2132TIP3    H156864   0.737   7.932  13.013
 2132TIP3    H256865   0.592   7.880  13.037
 2133TIP3   OH256866   0.756   7.635  13.131
 2133TIP3    H156867   0.747   7.730  13.109
 2133TIP3    H256868   0.688   7.599  13.070
 2134TIP3   OH256869   0.906   8.024  13.495
 2134TIP3    H156870   0.871   8.037  13.586
 2134TIP3    H256871   0.821   8.033  13.449
 2135TIP3   OH256872   1.161   7.984  13.397
 2135TIP3    H156873   1.063   7.983  13.403
 2135TIP3    H256874   1.189   7.915  13.457
 2136TIP3   OH256875   1.333   7.802  13.552
 2136TIP3    H156876   1.303   7.712  13.575
 2136TIP3    H256877   1.306   7.854  13.633
 2137TIP3   OH256878   0.339   7.997  13.494
 2137TIP3    H156879   0.324   7.923  13.425
 2137TIP3    H256880   0.313   7.939  13.565
 2138TIP3   OH256881   0.771   7.553  13.386
 2138TIP3    H156882   0.856   7.504  13.386
 2138TIP3    H256883   0.775   7.595  13.296
 2139TIP3   OH256884   0.798   7.716  13.598
 2139TIP3    H156885   0.803   7.686  13.507
 2139TIP3    H256886   0.764   7.809  13.593
 2140TIP3   OH256887   1.595   7.933  11.739
 2140TIP3    H156888   1.654   7.900  11.809
 2140TIP3    H256889   1.511   7.895  11.764
 2141TIP3   OH256890   1.449   8.058  12.205
 2141TIP3    H156891   1.526   8.003  12.238
 2141TIP3    H256892   1.522   8.123  12.183
 2142TIP3   OH256893   1.651   0.026  12.790
 2142TIP3    H156894   1.743   0.029  12.804
 2142TIP3    H256895   1.600  -0.000  12.873
 2143TIP3   OH256896   0.106   8.047  13.348
 2143TIP3    H156897   0.168   8.047  13.421
 2143TIP3    H256898   0.034   7.990  13.387
 2144TIP3   OH256899   1.865   7.621  13.605
 2144TIP3    H156900   1.872   7.550  13.537
 2144TIP3    H256901   1.857   7.698  13.548
 2145TIP3   OH256902   0.222   7.943  12.676
 2145TIP3    H156903   0.230   7.852  12.709
 2145TIP3    H256904   0.235   7.985  12.760
 2146TIP3   OH256905   1.799   7.811  13.440
 2146TIP3    H156906   1.702   7.828  13.452
 2146TIP3    H256907   1.800   7.738  13.373
 2147TIP3   OH256908   1.802   7.824  11.881
 2147TIP3    H156909   1.852   7.745  11.858
 2147TIP3    H256910   1.872   7.886  11.910
 2148TIP3   OH256911   0.051   7.829  12.190
 2148TIP3    H156912  -0.045   7.848  12.171
 2148TIP3    H256913   0.091   7.890  12.133
 2149TIP3   OH256914   8.149   7.621  13.086
 2149TIP3    H156915   8.093   7.661  13.149
 2149TIP3    H256916   8.143   7.701  13.028
 2150TIP3   OH256917   1.016   7.753  12.634
 2150TIP3    H156918   0.947   7.703  12.686
 2150TIP3    H256919   1.039   7.693  12.569
 2151TIP3   OH256920   0.288   7.645  12.468
 2151TIP3    H156921   0.223   7.648  12.397
 2151TIP3    H256922   0.339   7.568  12.439
 2152TIP3   OH256923   0.227   7.619  11.977
 2152TIP3    H156924   0.217   7.698  11.921
 2152TIP3    H256925   0.144   7.640  12.028
 2153TIP3   OH256926   0.727   7.650  12.407
 2153TIP3    H156927   0.821   7.674  12.406
 2153TIP3    H256928   0.719   7.615  12.497
 2154TIP3   OH256929   1.344   7.586  12.559
 2154TIP3    H156930   1.334   7.601  12.463
 2154TIP3    H256931   1.275   7.519  12.586
 2155TIP3   OH256932   1.415   7.651  12.166
 2155TIP3    H156933   1.359   7.706  12.110
 2155TIP3    H256934   1.385   7.559  12.149
 2156TIP3   OH256935   0.395   7.772  11.886
 2156TIP3    H156936   0.384   7.767  11.789
 2156TIP3    H256937   0.393   7.868  11.895
 2157TIP3   OH256938   0.826   7.846  12.101
 2157TIP3    H156939   0.872   7.784  12.160
 2157TIP3    H256940   0.853   7.931  12.145
 2158TIP3   OH256941   0.331   7.595  13.430
 2158TIP3    H156942   0.232   7.616  13.415
 2158TIP3    H256943   0.350   7.692  13.409
 2159TIP3   OH256944   0.518   7.625  13.584
 2159TIP3    H156945   0.577   7.600  13.514
 2159TIP3    H256946   0.436   7.571  13.584
 2160TIP3   OH256947   1.310   7.553  13.551
 2160TIP3    H156948   1.325   7.521  13.641
 2160TIP3    H256949   1.402   7.560  13.515
 2161TIP3   OH256950   2.430   7.975  12.564
 2161TIP3    H156951   2.434   8.067  12.531
 2161TIP3    H256952   2.381   7.925  12.499
 2162TIP3   OH256953   3.205   7.989  12.389
 2162TIP3    H156954   3.260   7.967  12.469
 2162TIP3    H256955   3.264   8.054  12.350
 2163TIP3   OH256956   2.315   7.874  12.970
 2163TIP3    H156957   2.288   7.930  12.897
 2163TIP3    H256958   2.249   7.898  13.038
 2164TIP3   OH256959   3.377   7.924  12.591
 2164TIP3    H156960   3.352   7.855  12.654
 2164TIP3    H256961   3.433   7.980  12.650
 2165TIP3   OH256962   2.719   7.596  12.734
 2165TIP3    H156963   2.693   7.510  12.700
 2165TIP3    H256964   2.632   7.642  12.737
 2166TIP3   OH256965   2.444   7.693  12.793
 2166TIP3    H156966   2.358   7.691  12.752
 2166TIP3    H256967   2.442   7.779  12.839
 2167TIP3   OH256968   2.914   7.647  13.128
 2167TIP3    H156969   2.956   7.628  13.214
 2167TIP3    H256970   2.818   7.658  13.147
 2168TIP3   OH256971   3.238   8.049  13.216
 2168TIP3    H156972   3.190   8.026  13.298
 2168TIP3    H256973   3.219   8.139  13.194
 2169TIP3   OH256974   2.862   7.927  11.863
 2169TIP3    H156975   2.849   7.909  11.961
 2169TIP3    H256976   2.864   7.831  11.839
 2170TIP3   OH256977   2.561   7.968  11.769
 2170TIP3    H156978   2.518   7.915  11.843
 2170TIP3    H256979   2.478   7.993  11.722
 2171TIP3   OH256980   2.007   7.992  12.010
 2171TIP3    H156981   2.060   8.062  11.969
 2171TIP3    H256982   1.945   8.051  12.054
 2172TIP3   OH256983   2.713   7.925  12.516
 2172TIP3    H156984   2.623   7.958  12.538
 2172TIP3    H256985   2.764   7.949  12.596
 2173TIP3   OH256986   2.216   8.120  12.379
 2173TIP3    H156987   2.119   8.134  12.365
 2173TIP3    H256988   2.221   8.029  12.352
 2174TIP3   OH256989   2.587  -0.027  12.089
 2174TIP3    H156990   2.637  -0.019  12.175
 2174TIP3    H256991   2.524   0.045  12.108
 2175TIP3   OH256992   3.149   7.872  12.828
 2175TIP3    H156993   3.083   7.898  12.897
 2175TIP3    H256994   3.094   7.865  12.749
 2176TIP3   OH256995   2.671   8.050  12.961
 2176TIP3    H156996   2.624   8.132  12.939
 2176TIP3    H256997   2.752   8.097  12.994
 2177TIP3   OH256998   3.146   7.955  11.941
 2177TIP3    H156999   3.049   7.955  11.930
 2177TIP3    H257000   3.186   8.024  11.998
 2178TIP3   OH257001   2.131   7.944  13.178
 2178TIP3    H157002   2.049   7.981  13.148
 2178TIP3    H257003   2.123   7.852  13.209
 2179TIP3   OH257004   3.008   7.921  13.061
 2179TIP3    H157005   3.084   7.931  13.120
 2179TIP3    H257006   2.974   7.834  13.081
 2180TIP3   OH257007   3.072   7.892  12.179
 2180TIP3    H157008   3.115   7.915  12.096
 2180TIP3    H257009   3.142   7.917  12.243
 2181TIP3   OH257010   2.839   8.041  12.230
 2181TIP3    H157011   2.900   8.113  12.253
 2181TIP3    H257012   2.797   8.031  12.319
 2182TIP3   OH257013   2.831  -0.023  13.165
 2182TIP3    H157014   2.854   0.062  13.210
 2182TIP3    H257015   2.922  -0.059  13.163
 2183TIP3   OH257016   2.893   7.763  12.346
 2183TIP3    H157017   2.860   7.827  12.411
 2183TIP3    H257018   2.960   7.815  12.296
 2184TIP3   OH257019   2.492   8.034  13.321
 2184TIP3    H157020   2.535   7.974  13.258
 2184TIP3    H257021   2.513   8.119  13.280
 2185TIP3   OH257022   2.560   7.870  13.085
 2185TIP3    H157023   2.617   7.929  13.026
 2185TIP3    H257024   2.474   7.883  13.039
 2186TIP3   OH257025   2.649   7.629  13.122
 2186TIP3    H157026   2.631   7.727  13.115
 2186TIP3    H257027   2.571   7.601  13.073
 2187TIP3   OH257028   2.790   8.022  13.494
 2187TIP3    H157029   2.753   8.042  13.584
 2187TIP3    H257030   2.708   8.032  13.445
 2188TIP3   OH257031   3.047   7.980  13.393
 2188TIP3    H157032   2.949   7.980  13.404
 2188TIP3    H257033   3.078   7.912  13.454
 2189TIP3   OH257034   2.179   7.967  13.497
 2189TIP3    H157035   2.214   7.899  13.434
 2189TIP3    H257036   2.184   7.919  13.583
 2190TIP3   OH257037   2.662   7.563  13.387
 2190TIP3    H157038   2.739   7.504  13.390
 2190TIP3    H257039   2.657   7.593  13.294
 2191TIP3   OH257040   2.706   7.731  13.599
 2191TIP3    H157041   2.687   7.684  13.516
 2191TIP3    H257042   2.647   7.809  13.594
 2192TIP3   OH257043   3.469   7.945  11.757
 2192TIP3    H157044   3.541   7.894  11.801
 2192TIP3    H257045   3.401   7.875  11.757
 2193TIP3   OH257046   3.437   8.077  12.239
 2193TIP3    H157047   3.477   7.991  12.255
 2193TIP3    H257048   3.513   8.130  12.207
 2194TIP3   OH257049   3.531  -0.034  12.828
 2194TIP3    H157050   3.595   0.028  12.791
 2194TIP3    H257051   3.480   0.025  12.885
 2195TIP3   OH257052   1.944   8.070  13.427
 2195TIP3    H157053   2.042   8.060  13.442
 2195TIP3    H257054   1.911   8.002  13.489
 2196TIP3   OH257055   2.930   7.787  12.648
 2196TIP3    H157056   2.860   7.724  12.668
 2196TIP3    H257057   2.984   7.736  12.586
 2197TIP3   OH257058   3.182   7.642  12.572
 2197TIP3    H157059   3.182   7.654  12.476
 2197TIP3    H257060   3.143   7.554  12.583
 2198TIP3   OH257061   2.729   7.850  12.085
 2198TIP3    H157062   2.754   7.785  12.155
 2198TIP3    H257063   2.732   7.925  12.146
 2199TIP3   OH257064   2.152   7.707  13.382
 2199TIP3    H157065   2.117   7.622  13.414
 2199TIP3    H257066   2.246   7.695  13.409
 2200TIP3   OH257067   2.358   7.640  13.539
 2200TIP3    H157068   2.447   7.608  13.517
 2200TIP3    H257069   2.318   7.560  13.576
 2201TIP3   OH257070   4.307   7.923  12.581
 2201TIP3    H157071   4.329   8.013  12.543
 2201TIP3    H257072   4.265   7.897  12.496
 2202TIP3   OH257073   5.086   7.999  12.405
 2202TIP3    H157074   5.153   7.963  12.469
 2202TIP3    H257075   5.145   8.047  12.347
 2203TIP3   OH257076   4.202   7.872  12.981
 2203TIP3    H157077   4.177   7.923  12.899
 2203TIP3    H257078   4.129   7.898  13.036
 2204TIP3   OH257079   5.273   7.913  12.597
 2204TIP3    H157080   5.245   7.850  12.664
 2204TIP3    H257081   5.326   7.975  12.651
 2205TIP3   OH257082   4.150   8.033  12.785
 2205TIP3    H157083   4.202   8.115  12.804
 2205TIP3    H257084   4.190   8.002  12.702
 2206TIP3   OH257085   4.600   7.607  12.728
 2206TIP3    H157086   4.588   7.511  12.711
 2206TIP3    H257087   4.509   7.637  12.738
 2207TIP3   OH257088   4.782   7.682  13.153
 2207TIP3    H157089   4.851   7.624  13.197
 2207TIP3    H257090   4.709   7.629  13.124
 2208TIP3   OH257091   5.137   8.064  13.233
 2208TIP3    H157092   5.071   8.017  13.291
 2208TIP3    H257093   5.093   8.125  13.178
 2209TIP3   OH257094   4.453   7.963  11.725
 2209TIP3    H157095   4.432   7.926  11.815
 2209TIP3    H257096   4.372   8.010  11.716
 2210TIP3   OH257097   3.889   7.969  12.001
 2210TIP3    H157098   3.945   8.041  11.965
 2210TIP3    H257099   3.837   8.034  12.051
 2211TIP3   OH257100   4.573   7.811  12.514
 2211TIP3    H157101   4.506   7.883  12.518
 2211TIP3    H257102   4.640   7.875  12.548
 2212TIP3   OH257103   4.401  -0.032  12.117
 2212TIP3    H157104   4.495  -0.044  12.139
 2212TIP3    H257105   4.406   0.050  12.065
 2213TIP3   OH257106   5.038   7.877  12.822
 2213TIP3    H157107   4.974   7.892  12.895
 2213TIP3    H257108   4.980   7.862  12.748
 2214TIP3   OH257109   4.579   8.045  12.957
 2214TIP3    H157110   4.511   8.115  12.950
 2214TIP3    H257111   4.645   8.098  13.007
 2215TIP3   OH257112   5.038   7.992  11.912
 2215TIP3    H157113   4.941   7.978  11.910
 2215TIP3    H257114   5.059   8.069  11.961
 2216TIP3   OH257115   4.021   7.950  13.200
 2216TIP3    H157116   3.938   7.977  13.152
 2216TIP3    H257117   4.004   7.853  13.197
 2217TIP3   OH257118   4.890   7.920  13.059
 2217TIP3    H157119   4.967   7.919  13.118
 2217TIP3    H257120   4.862   7.827  13.074
 2218TIP3   OH257121   4.972   7.887  12.171
 2218TIP3    H157122   5.000   7.918  12.084
 2218TIP3    H257123   5.035   7.919  12.234
 2219TIP3   OH257124   4.735   7.980  12.195
 2219TIP3    H157125   4.783   8.061  12.211
 2219TIP3    H257126   4.676   8.002  12.271
 2220TIP3   OH257127   4.748   0.003  13.171
 2220TIP3    H157128   4.745   0.076  13.237
 2220TIP3    H257129   4.818  -0.060  13.186
 2221TIP3   OH257130   4.801   7.754  12.356
 2221TIP3    H157131   4.742   7.819  12.399
 2221TIP3    H257132   4.842   7.810  12.286
 2222TIP3   OH257133   4.390   7.908  11.953
 2222TIP3    H157134   4.352   7.970  12.021
 2222TIP3    H257135   4.428   7.845  12.018
 2223TIP3   OH257136   5.375   7.967  13.252
 2223TIP3    H157137   5.278   7.959  13.242
 2223TIP3    H257138   5.402   7.929  13.168
 2224TIP3   OH257139   4.391   8.046  13.324
 2224TIP3    H157140   4.429   7.990  13.255
 2224TIP3    H257141   4.415   8.134  13.285
 2225TIP3   OH257142   4.449   7.873  13.088
 2225TIP3    H157143   4.502   7.933  13.025
 2225TIP3    H257144   4.365   7.879  13.035
 2226TIP3   OH257145   4.524   7.628  13.101
 2226TIP3    H157146   4.515   7.725  13.076
 2226TIP3    H257147   4.448   7.592  13.049
 2227TIP3   OH257148   4.663   8.046  13.476
 2227TIP3    H157149   4.637   8.049  13.570
 2227TIP3    H257150   4.580   8.061  13.429
 2228TIP3   OH257151   4.933   7.989  13.392
 2228TIP3    H157152   4.836   7.983  13.404
 2228TIP3    H257153   4.963   7.912  13.445
 2229TIP3   OH257154   4.123   7.848  13.556
 2229TIP3    H157155   4.091   7.817  13.465
 2229TIP3    H257156   4.050   7.885  13.614
 2230TIP3   OH257157   4.561   7.516  13.405
 2230TIP3    H157158   4.648   7.471  13.411
 2230TIP3    H257159   4.539   7.501  13.312
 2231TIP3   OH257160   4.598   7.733  13.592
 2231TIP3    H157161   4.570   7.671  13.527
 2231TIP3    H257162   4.535   7.810  13.597
 2232TIP3   OH257163   5.349   7.947  11.744
 2232TIP3    H157164   5.422   7.902  11.798
 2232TIP3    H257165   5.281   7.881  11.769
 2233TIP3   OH257166   5.411  -0.032  12.826
 2233TIP3    H157167   5.484   0.019  12.786
 2233TIP3    H257168   5.365   0.025  12.885
 2234TIP3   OH257169   3.822   8.035  13.476
 2234TIP3    H157170   3.881   8.048  13.405
 2234TIP3    H257171   3.756   7.969  13.444
 2235TIP3   OH257172   5.572   7.832  11.882
 2235TIP3    H157173   5.618   7.751  11.854
 2235TIP3    H257174   5.648   7.887  11.909
 2236TIP3   OH257175   4.818   7.785  12.651
 2236TIP3    H157176   4.746   7.721  12.670
 2236TIP3    H257177   4.865   7.736  12.582
 2237TIP3   OH257178   4.500   7.608  12.403
 2237TIP3    H157179   4.575   7.672  12.397
 2237TIP3    H257180   4.491   7.618  12.498
 2238TIP3   OH257181   4.117   7.817  11.852
 2238TIP3    H157182   4.168   7.756  11.800
 2238TIP3    H257183   4.180   7.851  11.916
 2239TIP3   OH257184   4.043   7.700  13.369
 2239TIP3    H157185   3.995   7.623  13.410
 2239TIP3    H257186   4.129   7.684  13.412
 2240TIP3   OH257187   4.250   7.629  13.525
 2240TIP3    H157188   4.337   7.591  13.523
 2240TIP3    H257189   4.204   7.560  13.580
 2241TIP3   OH257190   7.436   7.887  12.882
 2241TIP3    H157191   7.445   7.950  12.960
 2241TIP3    H257192   7.486   7.939  12.819
 2242TIP3   OH257193   6.986   8.018  12.428
 2242TIP3    H157194   7.044   7.948  12.463
 2242TIP3    H257195   7.023   8.035  12.339
 2243TIP3   OH257196   7.443   8.022  13.099
 2243TIP3    H157197   7.422   8.116  13.097
 2243TIP3    H257198   7.473   8.013  13.190
 2244TIP3   OH257199   7.134   7.942  12.624
 2244TIP3    H157200   7.133   7.847  12.650
 2244TIP3    H257201   7.226   7.962  12.652
 2245TIP3   OH257202   7.182   7.797  12.968
 2245TIP3    H157203   7.112   7.861  12.962
 2245TIP3    H257204   7.260   7.838  12.924
 2246TIP3   OH257205   6.683   7.680  13.141
 2246TIP3    H157206   6.723   7.618  13.203
 2246TIP3    H257207   6.591   7.648  13.139
 2247TIP3   OH257208   7.008   8.043  13.216
 2247TIP3    H157209   6.956   8.030  13.298
 2247TIP3    H257210   6.996   8.137  13.199
 2248TIP3   OH257211   5.776   7.999  12.017
 2248TIP3    H157212   5.824   8.059  11.959
 2248TIP3    H257213   5.712   8.058  12.057
 2249TIP3   OH257214   6.921   7.893  12.823
 2249TIP3    H157215   6.858   7.888  12.899
 2249TIP3    H257216   6.872   7.853  12.750
 2250TIP3   OH257217   6.903   8.021  11.897
 2250TIP3    H157218   6.824   7.972  11.936
 2250TIP3    H257219   6.946   8.046  11.984
 2251TIP3   OH257220   6.785   7.921  13.050
 2251TIP3    H157221   6.850   7.926  13.122
 2251TIP3    H257222   6.742   7.835  13.075
 2252TIP3   OH257223   6.634  -0.059  13.235
 2252TIP3    H157224   6.630   0.038  13.242
 2252TIP3    H257225   6.707  -0.074  13.172
 2253TIP3   OH257226   7.252   7.947  13.260
 2253TIP3    H157227   7.160   7.972  13.244
 2253TIP3    H257228   7.284   7.943  13.167
 2254TIP3   OH257229   6.409   7.634  13.125
 2254TIP3    H157230   6.406   7.730  13.109
 2254TIP3    H257231   6.342   7.600  13.064
 2255TIP3   OH257232   6.567   8.029  13.506
 2255TIP3    H157233   6.526   8.038  13.591
 2255TIP3    H257234   6.490   8.028  13.448
 2256TIP3   OH257235   6.821   7.983  13.393
 2256TIP3    H157236   6.723   7.980  13.401
 2256TIP3    H257237   6.848   7.916  13.456
 2257TIP3   OH257238   6.975   7.843  13.586
 2257TIP3    H157239   6.971   7.748  13.587
 2257TIP3    H257240   6.950   7.870  13.676
 2258TIP3   OH257241   6.432   7.554  13.384
 2258TIP3    H157242   6.515   7.505  13.390
 2258TIP3    H257243   6.436   7.595  13.294
 2259TIP3   OH257244   6.482   7.740  13.592
 2259TIP3    H157245   6.458   7.680  13.518
 2259TIP3    H257246   6.411   7.803  13.591
 2260TIP3   OH257247   7.222   7.948  11.760
 2260TIP3    H157248   7.311   7.906  11.785
 2260TIP3    H257249   7.186   7.858  11.755
 2261TIP3   OH257250   7.221   8.083  12.257
 2261TIP3    H157251   7.240   7.989  12.252
 2261TIP3    H257252   7.283   8.133  12.201
 2262TIP3   OH257253   7.287  -0.027  12.831
 2262TIP3    H157254   7.367   0.019  12.799
 2262TIP3    H257255   7.258   0.031  12.900
 2263TIP3   OH257256   7.460   7.824  13.428
 2263TIP3    H157257   7.366   7.857  13.429
 2263TIP3    H257258   7.461   7.769  13.349
 2264TIP3   OH257259   7.375   7.680  12.559
 2264TIP3    H157260   7.405   7.638  12.476
 2264TIP3    H257261   7.389   7.772  12.535
 2265TIP3   OH257262   8.014   7.887  12.558
 2265TIP3    H157263   8.047   7.978  12.544
 2265TIP3    H257264   8.034   7.886  12.461
 2266TIP3   OH257265   7.933   7.732  13.036
 2266TIP3    H157266   7.985   7.803  12.982
 2266TIP3    H257267   7.905   7.810  13.080
 2267TIP3   OH257268   7.918   8.162  12.906
 2267TIP3    H157269   7.986   8.169  12.841
 2267TIP3    H257270   7.882   8.095  12.831
 2268TIP3   OH257271   8.058   7.639  12.872
 2268TIP3    H157272   8.001   7.685  12.805
 2268TIP3    H257273   8.106   7.724  12.860
 2269TIP3   OH257274   7.367   7.943  12.496
 2269TIP3    H157275   7.445   7.943  12.560
 2269TIP3    H257276   7.445   7.928  12.435
 2270TIP3   OH257277   7.688   7.960  11.964
 2270TIP3    H157278   7.746   8.031  11.930
 2270TIP3    H257279   7.632   8.026  11.990
 2271TIP3   OH257280   7.833   8.147  12.383
 2271TIP3    H157281   7.744   8.143  12.355
 2271TIP3    H257282   7.874   8.059  12.360
 2272TIP3   OH257283   7.985   7.831  12.339
 2272TIP3    H157284   7.973   7.738  12.322
 2272TIP3    H257285   8.075   7.842  12.299
 2273TIP3   OH257286   7.726   7.902  13.235
 2273TIP3    H157287   7.706   7.968  13.159
 2273TIP3    H257288   7.785   7.834  13.201
 2274TIP3   OH257289   0.055   7.848  11.907
 2274TIP3    H157290  -0.009   7.919  11.944
 2274TIP3    H257291   0.070   7.825  12.002
 2275TIP3   OH257292   7.871   7.723  12.738
 2275TIP3    H157293   7.842   7.743  12.646
 2275TIP3    H257294   7.815   7.647  12.776
 2276TIP3   OH257295   7.807   7.832  13.504
 2276TIP3    H157296   7.853   7.881  13.430
 2276TIP3    H257297   7.812   7.911  13.565
 2277TIP3   OH257298   7.523   8.062  13.487
 2277TIP3    H157299   7.617   8.068  13.459
 2277TIP3    H257300   7.510   7.972  13.452
 2278TIP3   OH257301   7.704   7.877  12.703
 2278TIP3    H157302   7.759   7.818  12.755
 2278TIP3    H257303   7.746   7.961  12.734
 2279TIP3   OH257304   7.474   7.822  12.092
 2279TIP3    H157305   7.458   7.811  12.188
 2279TIP3    H257306   7.574   7.808  12.098
 2280TIP3   OH257307   7.558   7.680  13.035
 2280TIP3    H157308   7.494   7.665  13.106
 2280TIP3    H257309   7.522   7.756  12.987
 2281TIP3   OH257310   7.846   7.655  12.445
 2281TIP3    H157311   7.763   7.648  12.390
 2281TIP3    H257312   7.881   7.586  12.386
 2282TIP3   OH257313   7.677   7.646  11.907
 2282TIP3    H157314   7.766   7.689  11.921
 2282TIP3    H257315   7.635   7.664  11.989
 2283TIP3   OH257316   7.845   7.798  11.817
 2283TIP3    H157317   7.916   7.743  11.784
 2283TIP3    H257318   7.909   7.840  11.879
 2284TIP3   OH257319   7.829   7.661  13.330
 2284TIP3    H157320   7.745   7.667  13.382
 2284TIP3    H257321   7.895   7.717  13.380
 2285TIP3   OH257322   8.024   7.635  13.545
 2285TIP3    H157323   8.114   7.627  13.501
 2285TIP3    H257324   8.018   7.563  13.606
 2286TIP3   OH257325   1.436   0.983  13.689
 2286TIP3    H157326   1.427   0.965  13.592
 2286TIP3    H257327   1.519   1.027  13.695
 2287TIP3   OH257328   0.984   0.370  13.748
 2287TIP3    H157329   0.957   0.372  13.840
 2287TIP3    H257330   0.958   0.283  13.714
 2288TIP3   OH257331   0.673   0.411  13.649
 2288TIP3    H157332   0.632   0.379  13.731
 2288TIP3    H257333   0.604   0.463  13.605
 2289TIP3   OH257334   0.147   0.480  13.908
 2289TIP3    H157335   0.188   0.541  13.848
 2289TIP3    H257336   0.069   0.526  13.942
 2290TIP3   OH257337   1.838   0.637  13.940
 2290TIP3    H157338   1.770   0.602  13.880
 2290TIP3    H257339   1.830   0.731  13.921
 2291TIP3   OH257340   0.795   1.432  13.618
 2291TIP3    H157341   0.826   1.358  13.561
 2291TIP3    H257342   0.773   1.387  13.701
 2292TIP3   OH257343   0.689   1.384  13.866
 2292TIP3    H157344   0.713   1.335  13.945
 2292TIP3    H257345   0.700   1.477  13.895
 2293TIP3   OH257346   0.696   1.658  13.939
 2293TIP3    H157347   0.718   1.738  13.884
 2293TIP3    H257348   0.685   1.694  14.026
 2294TIP3   OH257349   0.571   0.328  13.891
 2294TIP3    H157350   0.564   0.414  13.935
 2294TIP3    H257351   0.659   0.303  13.922
 2295TIP3   OH257352   0.405   1.383  13.807
 2295TIP3    H157353   0.472   1.446  13.831
 2295TIP3    H257354   0.448   1.332  13.736
 2296TIP3   OH257355   0.223   0.631  13.701
 2296TIP3    H157356   0.242   0.724  13.731
 2296TIP3    H257357   0.128   0.632  13.698
 2297TIP3   OH257358   1.009   1.620  13.642
 2297TIP3    H157359   0.941   1.551  13.657
 2297TIP3    H257360   1.077   1.563  13.601
 2298TIP3   OH257361   0.786   0.810  13.698
 2298TIP3    H157362   0.761   0.794  13.606
 2298TIP3    H257363   0.881   0.818  13.698
 2299TIP3   OH257364   1.735   1.047  13.631
 2299TIP3    H157365   1.682   1.006  13.560
 2299TIP3    H257366   1.720   1.142  13.622
 2300TIP3   OH257367   0.769   1.874  13.797
 2300TIP3    H157368   0.864   1.891  13.814
 2300TIP3    H257369   0.749   1.944  13.735
 2301TIP3   OH257370   1.836   0.928  13.857
 2301TIP3    H157371   1.773   0.963  13.792
 2301TIP3    H257372   1.828   0.990  13.931
 2302TIP3   OH257373   1.686   0.649  13.708
 2302TIP3    H157374   1.666   0.718  13.646
 2302TIP3    H257375   1.643   0.571  13.669
 2303TIP3   OH257376   0.190   0.203  13.933
 2303TIP3    H157377   0.206   0.156  13.849
 2303TIP3    H257378   0.105   0.155  13.945
 2304TIP3   OH257379   0.349   0.291  13.715
 2304TIP3    H157380   0.397   0.210  13.684
 2304TIP3    H257381   0.399   0.305  13.800
 2305TIP3   OH257382   1.034   1.810  13.824
 2305TIP3    H157383   1.123   1.836  13.804
 2305TIP3    H257384   1.013   1.752  13.746
 2306TIP3   OH257385   0.325   1.772  13.683
 2306TIP3    H157386   0.309   1.796  13.775
 2306TIP3    H257387   0.407   1.719  13.695
 2307TIP3   OH257388   3.659   1.488  13.744
 2307TIP3    H157389   3.668   1.586  13.748
 2307TIP3    H257390   3.752   1.464  13.731
 2308TIP3   OH257391   3.207   1.770  13.799
 2308TIP3    H157392   3.241   1.694  13.751
 2308TIP3    H257393   3.203   1.745  13.891
 2309TIP3   OH257394   3.334   0.972  13.688
 2309TIP3    H157395   3.302   0.966  13.595
 2309TIP3    H257396   3.403   1.037  13.687
 2310TIP3   OH257397   2.082   0.927  13.752
 2310TIP3    H157398   2.145   0.977  13.810
 2310TIP3    H257399   1.998   0.946  13.800
 2311TIP3   OH257400   3.728   1.762  13.799
 2311TIP3    H157401   3.799   1.825  13.780
 2311TIP3    H257402   3.657   1.824  13.819
 2312TIP3   OH257403   2.222   1.108  13.906
 2312TIP3    H157404   2.158   1.140  13.970
 2312TIP3    H257405   2.274   1.186  13.884
 2313TIP3   OH257406   2.457   0.332  13.892
 2313TIP3    H157407   2.450   0.417  13.934
 2313TIP3    H257408   2.543   0.303  13.923
 2314TIP3   OH257409   2.287   1.370  13.807
 2314TIP3    H157410   2.345   1.444  13.828
 2314TIP3    H257411   2.332   1.328  13.730
 2315TIP3   OH257412   2.121   0.648  13.704
 2315TIP3    H157413   2.116   0.734  13.746
 2315TIP3    H257414   2.032   0.614  13.702
 2316TIP3   OH257415   2.432   1.186  13.641
 2316TIP3    H157416   2.458   1.107  13.691
 2316TIP3    H257417   2.509   1.178  13.577
 2317TIP3   OH257418   3.600   1.046  13.677
 2317TIP3    H157419   3.593   1.011  13.584
 2317TIP3    H257420   3.612   1.139  13.636
 2318TIP3   OH257421   2.011   1.335  13.753
 2318TIP3    H157422   2.105   1.354  13.773
 2318TIP3    H257423   2.017   1.273  13.679
 2319TIP3   OH257424   3.654   1.014  13.927
 2319TIP3    H157425   3.647   1.023  13.828
 2319TIP3    H257426   3.748   1.036  13.953
 2320TIP3   OH257427   3.571   0.671  13.711
 2320TIP3    H157428   3.550   0.709  13.627
 2320TIP3    H257429   3.541   0.578  13.685
 2321TIP3   OH257430   3.477   0.400  13.629
 2321TIP3    H157431   3.540   0.360  13.689
 2321TIP3    H257432   3.394   0.354  13.648
 2322TIP3   OH257433   2.231   0.277  13.736
 2322TIP3    H157434   2.281   0.214  13.683
 2322TIP3    H257435   2.295   0.305  13.804
 2323TIP3   OH257436   2.225   1.781  13.684
 2323TIP3    H157437   2.188   1.795  13.773
 2323TIP3    H257438   2.291   1.714  13.702
 2324TIP3   OH257439   5.423   0.059  13.906
 2324TIP3    H157440   5.332   0.073  13.927
 2324TIP3    H257441   5.452   0.140  13.862
 2325TIP3   OH257442   5.544   1.497  13.725
 2325TIP3    H157443   5.553   1.588  13.758
 2325TIP3    H257444   5.630   1.458  13.738
 2326TIP3   OH257445   5.088   1.770  13.806
 2326TIP3    H157446   5.124   1.693  13.756
 2326TIP3    H257447   5.090   1.736  13.896
 2327TIP3   OH257448   3.958   0.918  13.774
 2327TIP3    H157449   4.035   0.974  13.805
 2327TIP3    H257450   3.896   0.984  13.792
 2328TIP3   OH257451   5.614   1.762  13.788
 2328TIP3    H157452   5.679   1.832  13.789
 2328TIP3    H257453   5.540   1.816  13.825
 2329TIP3   OH257454   4.591   1.424  13.624
 2329TIP3    H157455   4.589   1.353  13.558
 2329TIP3    H257456   4.536   1.394  13.698
 2330TIP3   OH257457   4.459   1.380  13.867
 2330TIP3    H157458   4.485   1.338  13.950
 2330TIP3    H257459   4.468   1.474  13.893
 2331TIP3   OH257460   4.113   1.110  13.902
 2331TIP3    H157461   4.053   1.141  13.973
 2331TIP3    H257462   4.161   1.194  13.889
 2332TIP3   OH257463   4.172   1.364  13.806
 2332TIP3    H157464   4.226   1.442  13.832
 2332TIP3    H257465   4.221   1.338  13.727
 2333TIP3   OH257466   4.010   0.646  13.711
 2333TIP3    H157467   4.004   0.737  13.739
 2333TIP3    H257468   3.920   0.614  13.694
 2334TIP3   OH257469   4.786   1.618  13.642
 2334TIP3    H157470   4.708   1.559  13.654
 2334TIP3    H257471   4.855   1.560  13.609
 2335TIP3   OH257472   5.235   1.599  13.651
 2335TIP3    H157473   5.264   1.521  13.700
 2335TIP3    H257474   5.312   1.616  13.596
 2336TIP3   OH257475   4.327   1.200  13.629
 2336TIP3    H157476   4.315   1.139  13.694
 2336TIP3    H257477   4.403   1.187  13.565
 2337TIP3   OH257478   4.474   0.970  13.914
 2337TIP3    H157479   4.406   0.927  13.969
 2337TIP3    H257480   4.511   0.899  13.857
 2338TIP3   OH257481   4.546   0.835  13.693
 2338TIP3    H157482   4.540   0.788  13.605
 2338TIP3    H257483   4.642   0.812  13.705
 2339TIP3   OH257484   3.896   1.326  13.761
 2339TIP3    H157485   3.990   1.355  13.770
 2339TIP3    H257486   3.900   1.282  13.675
 2340TIP3   OH257487   5.365   0.384  13.620
 2340TIP3    H157488   5.426   0.359  13.692
 2340TIP3    H257489   5.281   0.351  13.652
 2341TIP3   OH257490   5.572   0.288  13.771
 2341TIP3    H157491   5.612   0.202  13.742
 2341TIP3    H257492   5.644   0.343  13.800
 2342TIP3   OH257493   6.947   0.880  13.914
 2342TIP3    H157494   7.002   0.903  13.987
 2342TIP3    H257495   6.982   0.932  13.840
 2343TIP3   OH257496   7.435   1.483  13.740
 2343TIP3    H157497   7.434   1.582  13.752
 2343TIP3    H257498   7.529   1.480  13.724
 2344TIP3   OH257499   6.960   1.769  13.798
 2344TIP3    H157500   7.011   1.695  13.759
 2344TIP3    H257501   6.980   1.751  13.892
 2345TIP3   OH257502   6.668   0.343  13.768
 2345TIP3    H157503   6.604   0.384  13.830
 2345TIP3    H257504   6.604   0.299  13.708
 2346TIP3   OH257505   6.387   0.395  13.616
 2346TIP3    H157506   6.339   0.381  13.699
 2346TIP3    H257507   6.320   0.463  13.589
 2347TIP3   OH257508   6.915   0.419  13.815
 2347TIP3    H157509   6.826   0.456  13.793
 2347TIP3    H257510   6.952   0.508  13.844
 2348TIP3   OH257511   6.992   0.623  13.974
 2348TIP3    H157512   7.085   0.607  13.995
 2348TIP3    H257513   6.995   0.703  13.916
 2349TIP3   OH257514   7.467   0.641  13.959
 2349TIP3    H157515   7.428   0.604  13.877
 2349TIP3    H257516   7.493   0.725  13.916
 2350TIP3   OH257517   7.496   1.761  13.789
 2350TIP3    H157518   7.567   1.825  13.782
 2350TIP3    H257519   7.428   1.820  13.824
 2351TIP3   OH257520   5.995   1.111  13.915
 2351TIP3    H157521   5.927   1.146  13.971
 2351TIP3    H257522   6.050   1.186  13.890
 2352TIP3   OH257523   6.339   0.394  13.954
 2352TIP3    H157524   6.241   0.411  13.949
 2352TIP3    H257525   6.329   0.298  13.939
 2353TIP3   OH257526   6.054   1.380  13.797
 2353TIP3    H157527   6.124   1.437  13.833
 2353TIP3    H257528   6.107   1.324  13.736
 2354TIP3   OH257529   6.215   1.195  13.638
 2354TIP3    H157530   6.222   1.113  13.689
 2354TIP3    H257531   6.280   1.173  13.569
 2355TIP3   OH257532   7.388   1.061  13.644
 2355TIP3    H157533   7.356   1.003  13.569
 2355TIP3    H257534   7.364   1.144  13.603
 2356TIP3   OH257535   5.788   1.353  13.738
 2356TIP3    H157536   5.878   1.344  13.775
 2356TIP3    H257537   5.783   1.271  13.683
 2357TIP3   OH257538   7.499   0.939  13.857
 2357TIP3    H157539   7.430   0.954  13.789
 2357TIP3    H257540   7.479   0.994  13.933
 2358TIP3   OH257541   7.330   0.652  13.713
 2358TIP3    H157542   7.329   0.713  13.640
 2358TIP3    H257543   7.305   0.569  13.667
 2359TIP3   OH257544   7.247   0.402  13.636
 2359TIP3    H157545   7.311   0.354  13.689
 2359TIP3    H257546   7.167   0.348  13.643
 2360TIP3   OH257547   5.781   0.114  13.859
 2360TIP3    H157548   5.860   0.161  13.838
 2360TIP3    H257549   5.751   0.146  13.946
 2361TIP3   OH257550   5.908   0.324  13.746
 2361TIP3    H157551   5.970   0.298  13.678
 2361TIP3    H257552   5.986   0.338  13.810
 2362TIP3   OH257553   6.690   1.815  13.820
 2362TIP3    H157554   6.789   1.824  13.831
 2362TIP3    H257555   6.668   1.727  13.784
 2363TIP3   OH257556   6.027   1.805  13.717
 2363TIP3    H157557   5.979   1.814  13.802
 2363TIP3    H257558   6.096   1.734  13.725
 2364TIP3   OH257559   8.087   0.686  13.799
 2364TIP3    H157560   8.021   0.665  13.729
 2364TIP3    H257561   8.158   0.724  13.750
 2365TIP3   OH257562   7.736   0.887  13.748
 2365TIP3    H157563   7.798   0.952  13.789
 2365TIP3    H257564   7.656   0.931  13.786
 2366TIP3   OH257565   7.759   1.114  13.817
 2366TIP3    H157566   7.769   1.103  13.919
 2366TIP3    H257567   7.851   1.148  13.829
 2367TIP3   OH257568  -0.038   0.316  13.889
 2367TIP3    H157569  -0.053   0.400  13.933
 2367TIP3    H257570   0.054   0.303  13.921
 2368TIP3   OH257571   7.997   1.358  13.736
 2368TIP3    H157572   8.032   1.412  13.808
 2368TIP3    H257573   8.059   1.301  13.692
 2369TIP3   OH257574   7.775   0.633  13.713
 2369TIP3    H157575   7.775   0.729  13.735
 2369TIP3    H257576   7.682   0.619  13.695
 2370TIP3   OH257577   8.028   1.118  13.607
 2370TIP3    H157578   8.067   1.114  13.695
 2370TIP3    H257579   8.116   1.150  13.576
 2371TIP3   OH257580   7.681   1.363  13.709
 2371TIP3    H157581   7.767   1.369  13.757
 2371TIP3    H257582   7.697   1.285  13.649
 2372TIP3   OH257583   7.894   1.845  13.696
 2372TIP3    H157584   7.830   1.820  13.768
 2372TIP3    H257585   7.938   1.757  13.697
 2373TIP3   OH257586   1.067   2.686  13.748
 2373TIP3    H157587   1.130   2.679  13.823
 2373TIP3    H257588   1.094   2.610  13.694
 2374TIP3   OH257589   1.286   2.770  13.913
 2374TIP3    H157590   1.343   2.790  13.987
 2374TIP3    H257591   1.331   2.816  13.841
 2375TIP3   OH257592   1.786   3.394  13.710
 2375TIP3    H157593   1.781   3.473  13.767
 2375TIP3    H257594   1.862   3.345  13.748
 2376TIP3   OH257595   1.428   2.886  13.683
 2376TIP3    H157596   1.436   2.839  13.597
 2376TIP3    H257597   1.520   2.904  13.705
 2377TIP3   OH257598   1.335   2.510  13.974
 2377TIP3    H157599   1.425   2.492  14.002
 2377TIP3    H257600   1.341   2.588  13.917
 2378TIP3   OH257601   1.394   3.189  13.762
 2378TIP3    H157602   1.429   3.172  13.851
 2378TIP3    H257603   1.300   3.202  13.786
 2379TIP3   OH257604   1.828   3.641  13.809
 2379TIP3    H157605   1.901   3.683  13.855
 2379TIP3    H257606   1.753   3.699  13.837
 2380TIP3   OH257607   0.822   3.309  13.621
 2380TIP3    H157608   0.805   3.237  13.559
 2380TIP3    H257609   0.770   3.281  13.701
 2381TIP3   OH257610   0.698   3.270  13.859
 2381TIP3    H157611   0.709   3.221  13.943
 2381TIP3    H257612   0.698   3.359  13.894
 2382TIP3   OH257613   0.393   3.262  13.794
 2382TIP3    H157614   0.457   3.322  13.833
 2382TIP3    H257615   0.454   3.209  13.741
 2383TIP3   OH257616   1.460   3.463  13.637
 2383TIP3    H157617   1.492   3.410  13.711
 2383TIP3    H257618   1.538   3.507  13.600
 2384TIP3   OH257619   1.115   3.192  13.697
 2384TIP3    H157620   1.046   3.221  13.758
 2384TIP3    H257621   1.088   3.100  13.693
 2385TIP3   OH257622   0.143   3.258  13.730
 2385TIP3    H157623   0.230   3.256  13.780
 2385TIP3    H257624   0.152   3.174  13.697
 2386TIP3   OH257625   1.594   2.285  13.630
 2386TIP3    H157626   1.655   2.240  13.689
 2386TIP3    H257627   1.511   2.235  13.641
 2387TIP3   OH257628   0.385   3.630  13.676
 2387TIP3    H157629   0.343   3.664  13.757
 2387TIP3    H257630   0.445   3.563  13.715
 2388TIP3   OH257631   3.218   2.509  13.970
 2388TIP3    H157632   3.306   2.492  14.006
 2388TIP3    H257633   3.228   2.586  13.915
 2389TIP3   OH257634   2.891   3.502  13.627
 2389TIP3    H157635   2.828   3.439  13.664
 2389TIP3    H257636   2.965   3.444  13.608
 2390TIP3   OH257637   2.675   2.682  13.695
 2390TIP3    H157638   2.654   2.691  13.601
 2390TIP3    H257639   2.767   2.710  13.697
 2391TIP3   OH257640   3.608   2.934  13.643
 2391TIP3    H157641   3.578   2.892  13.560
 2391TIP3    H257642   3.608   3.025  13.616
 2392TIP3   OH257643   2.660   3.759  13.797
 2392TIP3    H157644   2.752   3.778  13.813
 2392TIP3    H257645   2.632   3.829  13.738
 2393TIP3   OH257646   2.005   3.224  13.768
 2393TIP3    H157647   2.100   3.230  13.785
 2393TIP3    H257648   2.011   3.161  13.692
 2394TIP3   OH257649   3.717   2.811  13.863
 2394TIP3    H157650   3.669   2.851  13.787
 2394TIP3    H257651   3.721   2.881  13.928
 2395TIP3   OH257652   3.557   2.539  13.716
 2395TIP3    H157653   3.563   2.604  13.645
 2395TIP3    H257654   3.539   2.455  13.669
 2396TIP3   OH257655   3.478   2.280  13.627
 2396TIP3    H157656   3.538   2.239  13.690
 2396TIP3    H257657   3.395   2.235  13.649
 2397TIP3   OH257658   2.229   2.156  13.732
 2397TIP3    H157659   2.283   2.098  13.678
 2397TIP3    H257660   2.291   2.188  13.799
 2398TIP3   OH257661   2.200   3.646  13.687
 2398TIP3    H157662   2.203   3.688  13.776
 2398TIP3    H257663   2.293   3.608  13.697
 2399TIP3   OH257664   4.832   2.681  13.748
 2399TIP3    H157665   4.900   2.684  13.819
 2399TIP3    H257666   4.867   2.610  13.694
 2400TIP3   OH257667   5.060   2.763  13.914
 2400TIP3    H157668   5.113   2.790  13.989
 2400TIP3    H257669   5.094   2.818  13.842
 2401TIP3   OH257670   5.429   1.943  13.905
 2401TIP3    H157671   5.336   1.953  13.925
 2401TIP3    H257672   5.450   2.027  13.861
 2402TIP3   OH257673   5.208   2.865  13.688
 2402TIP3    H157674   5.204   2.853  13.591
 2402TIP3    H257675   5.288   2.918  13.695
 2403TIP3   OH257676   4.758   2.263  13.743
 2403TIP3    H157677   4.734   2.264  13.837
 2403TIP3    H257678   4.738   2.172  13.718
 2404TIP3   OH257679   5.029   2.315  13.804
 2404TIP3    H157680   4.934   2.330  13.795
 2404TIP3    H257681   5.062   2.398  13.846
 2405TIP3   OH257682   5.106   2.509  13.972
 2405TIP3    H157683   5.196   2.495  14.003
 2405TIP3    H257684   5.111   2.590  13.918
 2406TIP3   OH257685   4.839   3.183  13.880
 2406TIP3    H157686   4.829   3.262  13.934
 2406TIP3    H257687   4.788   3.114  13.922
 2407TIP3   OH257688   5.610   3.649  13.793
 2407TIP3    H157689   5.686   3.708  13.789
 2407TIP3    H257690   5.545   3.711  13.823
 2408TIP3   OH257691   4.551   3.306  13.618
 2408TIP3    H157692   4.605   3.247  13.560
 2408TIP3    H257693   4.584   3.273  13.703
 2409TIP3   OH257694   4.471   3.274  13.883
 2409TIP3    H157695   4.489   3.218  13.962
 2409TIP3    H257696   4.481   3.364  13.919
 2410TIP3   OH257697   4.112   2.998  13.911
 2410TIP3    H157698   4.042   3.024  13.972
 2410TIP3    H257699   4.161   3.075  13.890
 2411TIP3   OH257700   4.165   3.260  13.809
 2411TIP3    H157701   4.218   3.333  13.845
 2411TIP3    H257702   4.192   3.202  13.737
 2412TIP3   OH257703   4.332   3.071  13.638
 2412TIP3    H157704   4.341   2.986  13.690
 2412TIP3    H257705   4.401   3.047  13.568
 2413TIP3   OH257706   4.852   3.185  13.610
 2413TIP3    H157707   4.849   3.190  13.707
 2413TIP3    H257708   4.852   3.088  13.599
 2414TIP3   OH257709   4.437   2.877  13.863
 2414TIP3    H157710   4.405   2.823  13.938
 2414TIP3    H257711   4.475   2.802  13.811
 2415TIP3   OH257712   4.554   2.696  13.696
 2415TIP3    H157713   4.537   2.685  13.600
 2415TIP3    H257714   4.651   2.703  13.704
 2416TIP3   OH257715   3.896   3.223  13.748
 2416TIP3    H157716   3.988   3.234  13.772
 2416TIP3    H257717   3.897   3.156  13.677
 2417TIP3   OH257718   5.435   2.538  13.717
 2417TIP3    H157719   5.451   2.598  13.644
 2417TIP3    H257720   5.426   2.454  13.669
 2418TIP3   OH257721   5.366   2.279  13.629
 2418TIP3    H157722   5.425   2.239  13.694
 2418TIP3    H257723   5.281   2.238  13.649
 2419TIP3   OH257724   5.573   2.164  13.791
 2419TIP3    H157725   5.611   2.096  13.732
 2419TIP3    H257726   5.642   2.232  13.787
 2420TIP3   OH257727   4.099   3.662  13.683
 2420TIP3    H157728   4.074   3.689  13.774
 2420TIP3    H257729   4.177   3.608  13.698
 2421TIP3   OH257730   6.720   2.685  13.753
 2421TIP3    H157731   6.785   2.678  13.823
 2421TIP3    H257732   6.748   2.615  13.693
 2422TIP3   OH257733   7.427   3.384  13.740
 2422TIP3    H157734   7.441   3.479  13.751
 2422TIP3    H257735   7.513   3.342  13.730
 2423TIP3   OH257736   6.649   2.258  13.742
 2423TIP3    H157737   6.620   2.267  13.835
 2423TIP3    H257738   6.614   2.173  13.720
 2424TIP3   OH257739   6.920   2.319  13.807
 2424TIP3    H157740   6.825   2.331  13.793
 2424TIP3    H257741   6.948   2.403  13.841
 2425TIP3   OH257742   7.502   3.648  13.796
 2425TIP3    H157743   7.569   3.715  13.776
 2425TIP3    H257744   7.427   3.705  13.821
 2426TIP3   OH257745   6.054   3.262  13.799
 2426TIP3    H157746   6.121   3.321  13.834
 2426TIP3    H257747   6.106   3.209  13.735
 2427TIP3   OH257748   7.121   3.485  13.650
 2427TIP3    H157749   7.149   3.409  13.703
 2427TIP3    H257750   7.197   3.500  13.594
 2428TIP3   OH257751   6.218   3.077  13.648
 2428TIP3    H157752   6.224   2.994  13.695
 2428TIP3    H257753   6.280   3.065  13.575
 2429TIP3   OH257754   5.782   3.229  13.747
 2429TIP3    H157755   5.876   3.235  13.774
 2429TIP3    H257756   5.787   3.156  13.684
 2430TIP3   OH257757   5.990   3.663  13.680
 2430TIP3    H157758   5.961   3.686  13.771
 2430TIP3    H257759   6.060   3.599  13.702
 2431TIP3   OH257760  -0.026   2.197  13.862
 2431TIP3    H157761  -0.042   2.284  13.907
 2431TIP3    H257762   0.055   2.188  13.917
 2432TIP3   OH257763   7.936   3.280  13.800
 2432TIP3    H157764   8.015   3.327  13.835
 2432TIP3    H257765   7.988   3.219  13.747
 2433TIP3   OH257766   8.121   3.069  13.757
 2433TIP3    H157767   8.113   2.971  13.757
 2433TIP3    H257768   8.200   3.090  13.703
 2434TIP3   OH257769   7.682   3.244  13.743
 2434TIP3    H157770   7.771   3.219  13.767
 2434TIP3    H257771   7.657   3.163  13.689
 2435TIP3   OH257772   1.058   4.560  13.756
 2435TIP3    H157773   1.133   4.569  13.818
 2435TIP3    H257774   1.095   4.497  13.693
 2436TIP3   OH257775   1.288   4.650  13.913
 2436TIP3    H157776   1.346   4.670  13.987
 2436TIP3    H257777   1.328   4.699  13.838
 2437TIP3   OH257778   1.432   4.755  13.689
 2437TIP3    H157779   1.430   4.740  13.592
 2437TIP3    H257780   1.519   4.796  13.696
 2438TIP3   OH257781   0.185   4.367  13.862
 2438TIP3    H157782   0.190   4.293  13.801
 2438TIP3    H257783   0.122   4.317  13.922
 2439TIP3   OH257784   0.538   4.474  13.800
 2439TIP3    H157785   0.487   4.432  13.729
 2439TIP3    H257786   0.622   4.487  13.755
 2440TIP3   OH257787   1.814   4.413  13.950
 2440TIP3    H157788   1.770   4.373  13.873
 2440TIP3    H257789   1.831   4.505  13.919
 2441TIP3   OH257790   0.228   4.443  13.645
 2441TIP3    H157791   0.237   4.495  13.729
 2441TIP3    H257792   0.154   4.394  13.686
 2442TIP3   OH257793   0.998   5.380  13.611
 2442TIP3    H157794   0.942   5.329  13.673
 2442TIP3    H257795   1.082   5.334  13.619
 2443TIP3   OH257796   1.088   5.070  13.605
 2443TIP3    H157797   1.072   5.080  13.701
 2443TIP3    H257798   1.079   4.972  13.605
 2444TIP3   OH257799   0.779   4.577  13.697
 2444TIP3    H157800   0.767   4.573  13.601
 2444TIP3    H257801   0.876   4.590  13.704
 2445TIP3   OH257802   1.715   4.814  13.645
 2445TIP3    H157803   1.696   4.775  13.558
 2445TIP3    H257804   1.728   4.909  13.620
 2446TIP3   OH257805   1.828   4.693  13.864
 2446TIP3    H157806   1.785   4.734  13.786
 2446TIP3    H257807   1.834   4.768  13.925
 2447TIP3   OH257808   0.018   3.932  13.825
 2447TIP3    H157809   0.112   3.918  13.801
 2447TIP3    H257810   0.052   3.921  13.920
 2448TIP3   OH257811   0.383   4.059  13.695
 2448TIP3    H157812   0.414   3.970  13.703
 2448TIP3    H257813   0.405   4.084  13.789
 2449TIP3   OH257814   3.696   5.279  13.680
 2449TIP3    H157815   3.663   5.343  13.748
 2449TIP3    H257816   3.756   5.231  13.739
 2450TIP3   OH257817   3.197   5.541  13.808
 2450TIP3    H157818   3.240   5.471  13.754
 2450TIP3    H257819   3.206   5.505  13.897
 2451TIP3   OH257820   3.319   4.752  13.683
 2451TIP3    H157821   3.321   4.735  13.588
 2451TIP3    H257822   3.401   4.801  13.699
 2452TIP3   OH257823   2.013   4.230  13.898
 2452TIP3    H157824   2.065   4.295  13.848
 2452TIP3    H257825   1.947   4.289  13.940
 2453TIP3   OH257826   3.279   5.087  13.767
 2453TIP3    H157827   3.315   5.057  13.852
 2453TIP3    H257828   3.184   5.079  13.779
 2454TIP3   OH257829   3.725   5.535  13.793
 2454TIP3    H157830   3.799   5.594  13.783
 2454TIP3    H257831   3.655   5.592  13.826
 2455TIP3   OH257832   2.118   4.410  13.715
 2455TIP3    H157833   2.113   4.504  13.734
 2455TIP3    H257834   2.029   4.385  13.685
 2456TIP3   OH257835   3.346   5.358  13.646
 2456TIP3    H157836   3.384   5.291  13.707
 2456TIP3    H257837   3.426   5.388  13.598
 2457TIP3   OH257838   2.997   5.062  13.620
 2457TIP3    H157839   2.949   5.083  13.700
 2457TIP3    H257840   2.962   4.972  13.599
 2458TIP3   OH257841   3.609   4.815  13.641
 2458TIP3    H157842   3.581   4.778  13.557
 2458TIP3    H257843   3.610   4.911  13.619
 2459TIP3   OH257844   3.723   4.702  13.862
 2459TIP3    H157845   3.668   4.736  13.788
 2459TIP3    H257846   3.712   4.770  13.929
 2460TIP3   OH257847   3.479   4.164  13.622
 2460TIP3    H157848   3.539   4.132  13.690
 2460TIP3    H257849   3.396   4.119  13.648
 2461TIP3   OH257850   2.228   4.040  13.739
 2461TIP3    H157851   2.288   3.989  13.683
 2461TIP3    H257852   2.289   4.082  13.802
 2462TIP3   OH257853   4.770   4.142  13.751
 2462TIP3    H157854   4.728   4.144  13.837
 2462TIP3    H257855   4.730   4.061  13.712
 2463TIP3   OH257856   4.452   4.192  13.655
 2463TIP3    H157857   4.409   4.140  13.725
 2463TIP3    H257858   4.379   4.224  13.599
 2464TIP3   OH257859   5.030   4.204  13.814
 2464TIP3    H157860   4.936   4.216  13.791
 2464TIP3    H257861   5.062   4.292  13.838
 2465TIP3   OH257862   4.855   5.078  13.872
 2465TIP3    H157863   4.830   5.152  13.928
 2465TIP3    H257864   4.797   5.011  13.912
 2466TIP3   OH257865   5.591   4.413  13.950
 2466TIP3    H157866   5.538   4.378  13.874
 2466TIP3    H257867   5.600   4.505  13.916
 2467TIP3   OH257868   5.611   5.539  13.797
 2467TIP3    H157869   5.684   5.597  13.776
 2467TIP3    H257870   5.540   5.599  13.824
 2468TIP3   OH257871   4.578   5.201  13.629
 2468TIP3    H157872   4.593   5.133  13.561
 2468TIP3    H257873   4.535   5.153  13.699
 2469TIP3   OH257874   4.787   5.384  13.646
 2469TIP3    H157875   4.712   5.323  13.653
 2469TIP3    H257876   4.853   5.333  13.599
 2470TIP3   OH257877   4.860   5.070  13.613
 2470TIP3    H157878   4.847   5.075  13.710
 2470TIP3    H257879   4.854   4.974  13.596
 2471TIP3   OH257880   4.561   4.577  13.699
 2471TIP3    H157881   4.540   4.573  13.603
 2471TIP3    H257882   4.655   4.594  13.698
 2472TIP3   OH257883   3.896   5.106  13.751
 2472TIP3    H157884   3.989   5.122  13.770
 2472TIP3    H257885   3.900   5.046  13.676
 2473TIP3   OH257886   5.598   4.683  13.857
 2473TIP3    H157887   5.551   4.731  13.787
 2473TIP3    H257888   5.604   4.750  13.927
 2474TIP3   OH257889   5.446   4.420  13.717
 2474TIP3    H157890   5.447   4.486  13.646
 2474TIP3    H257891   5.423   4.338  13.668
 2475TIP3   OH257892   5.367   4.166  13.631
 2475TIP3    H157893   5.428   4.122  13.693
 2475TIP3    H257894   5.282   4.121  13.646
 2476TIP3   OH257895   5.576   4.056  13.786
 2476TIP3    H157896   5.615   3.980  13.739
 2476TIP3    H257897   5.648   4.120  13.791
 2477TIP3   OH257898   3.929   3.848  13.888
 2477TIP3    H157899   3.974   3.908  13.827
 2477TIP3    H257900   3.866   3.903  13.935
 2478TIP3   OH257901   6.970   5.537  13.805
 2478TIP3    H157902   7.012   5.465  13.755
 2478TIP3    H257903   6.976   5.508  13.896
 2479TIP3   OH257904   5.783   4.232  13.905
 2479TIP3    H157905   5.833   4.292  13.847
 2479TIP3    H257906   5.714   4.293  13.935
 2480TIP3   OH257907   6.196   4.463  13.800
 2480TIP3    H157908   6.141   4.432  13.726
 2480TIP3    H257909   6.277   4.482  13.750
 2481TIP3   OH257910   6.915   4.200  13.818
 2481TIP3    H157911   6.824   4.217  13.794
 2481TIP3    H257912   6.951   4.287  13.841
 2482TIP3   OH257913   5.859   4.692  13.762
 2482TIP3    H157914   5.915   4.754  13.809
 2482TIP3    H257915   5.771   4.720  13.793
 2483TIP3   OH257916   6.468   5.202  13.619
 2483TIP3    H157917   6.478   5.125  13.563
 2483TIP3    H257918   6.425   5.163  13.700
 2484TIP3   OH257919   6.346   5.155  13.863
 2484TIP3    H157920   6.368   5.105  13.944
 2484TIP3    H257921   6.356   5.246  13.898
 2485TIP3   OH257922   6.627   5.330  13.949
 2485TIP3    H157923   6.538   5.370  13.941
 2485TIP3    H257924   6.675   5.374  13.878
 2486TIP3   OH257925   6.366   5.430  13.938
 2486TIP3    H157926   6.370   5.510  13.882
 2486TIP3    H257927   6.337   5.465  14.023
 2487TIP3   OH257928   6.056   5.147  13.800
 2487TIP3    H157929   6.124   5.207  13.833
 2487TIP3    H257930   6.107   5.095  13.736
 2488TIP3   OH257931   5.891   4.413  13.711
 2488TIP3    H157932   5.886   4.508  13.737
 2488TIP3    H257933   5.800   4.390  13.692
 2489TIP3   OH257934   6.668   5.390  13.638
 2489TIP3    H157935   6.596   5.325  13.658
 2489TIP3    H257936   6.737   5.329  13.607
 2490TIP3   OH257937   6.214   4.959  13.635
 2490TIP3    H157938   6.223   4.882  13.692
 2490TIP3    H257939   6.284   4.945  13.570
 2491TIP3   OH257940   6.425   5.654  13.805
 2491TIP3    H157941   6.523   5.659  13.811
 2491TIP3    H257942   6.405   5.713  13.730
 2492TIP3   OH257943   7.506   4.722  13.843
 2492TIP3    H157944   7.421   4.727  13.796
 2492TIP3    H257945   7.480   4.762  13.929
 2493TIP3   OH257946   5.817   3.860  13.896
 2493TIP3    H157947   5.860   3.921  13.834
 2493TIP3    H257948   5.748   3.913  13.934
 2494TIP3   OH257949   6.005   4.052  13.732
 2494TIP3    H157950   6.058   3.987  13.686
 2494TIP3    H257951   6.061   4.081  13.806
 2495TIP3   OH257952   6.692   5.577  13.823
 2495TIP3    H157953   6.781   5.607  13.801
 2495TIP3    H257954   6.671   5.525  13.742
 2496TIP3   OH257955   5.978   5.538  13.686
 2496TIP3    H157956   5.962   5.572  13.775
 2496TIP3    H257957   6.064   5.492  13.696
 2497TIP3   OH257958   7.754   4.662  13.804
 2497TIP3    H157959   7.813   4.731  13.845
 2497TIP3    H257960   7.662   4.684  13.836
 2498TIP3   OH257961   7.865   4.883  13.899
 2498TIP3    H157962   7.818   4.915  13.978
 2498TIP3    H257963   7.932   4.954  13.892
 2499TIP3   OH257964   7.945   5.138  13.803
 2499TIP3    H157965   7.999   5.212  13.831
 2499TIP3    H257966   7.996   5.103  13.728
 2500TIP3   OH257967   8.092   4.953  13.634
 2500TIP3    H157968   8.117   4.881  13.694
 2500TIP3    H257969   8.170   4.952  13.576
 2501TIP3   OH257970   7.674   5.088  13.758
 2501TIP3    H157971   7.763   5.128  13.773
 2501TIP3    H257972   7.671   5.062  13.666
 2502TIP3   OH257973   1.309   7.426  13.802
 2502TIP3    H157974   1.359   7.355  13.759
 2502TIP3    H257975   1.318   7.402  13.897
 2503TIP3   OH257976   1.444   6.633  13.690
 2503TIP3    H157977   1.416   6.623  13.598
 2503TIP3    H257978   1.521   6.690  13.697
 2504TIP3   OH257979   0.991   6.029  13.749
 2504TIP3    H157980   0.964   6.033  13.841
 2504TIP3    H257981   0.959   5.945  13.715
 2505TIP3   OH257982   0.673   6.070  13.655
 2505TIP3    H157983   0.630   6.032  13.731
 2505TIP3    H257984   0.602   6.118  13.608
 2506TIP3   OH257985   1.336   6.276  13.970
 2506TIP3    H157986   1.423   6.265  14.007
 2506TIP3    H257987   1.335   6.357  13.918
 2507TIP3   OH257988   1.734   6.381  13.971
 2507TIP3    H157989   1.690   6.327  13.900
 2507TIP3    H257990   1.799   6.443  13.928
 2508TIP3   OH257991   1.395   6.971  13.767
 2508TIP3    H157992   1.424   6.942  13.855
 2508TIP3    H257993   1.299   6.964  13.779
 2509TIP3   OH257994   0.715   7.043  13.859
 2509TIP3    H157995   0.711   6.995  13.942
 2509TIP3    H257996   0.700   7.133  13.894
 2510TIP3   OH257997   0.968   7.214  13.942
 2510TIP3    H157998   0.883   7.262  13.942
 2510TIP3    H257999   1.020   7.265  13.879
 2511TIP3   OH258000   0.695   7.314  13.936
 2511TIP3    H158001   0.719   7.395  13.883
 2511TIP3    H258002   0.686   7.352  14.024
 2512TIP3   OH258003   0.231   6.298  13.714
 2512TIP3    H158004   0.228   6.391  13.733
 2512TIP3    H258005   0.144   6.270  13.687
 2513TIP3   OH258006   1.006   7.274  13.630
 2513TIP3    H158007   0.944   7.209  13.667
 2513TIP3    H258008   1.082   7.219  13.607
 2514TIP3   OH258009   1.720   6.694  13.643
 2514TIP3    H158010   1.699   6.669  13.557
 2514TIP3    H258011   1.728   6.794  13.632
 2515TIP3   OH258012   0.766   7.533  13.803
 2515TIP3    H158013   0.863   7.548  13.812
 2515TIP3    H258014   0.749   7.604  13.737
 2516TIP3   OH258015   1.837   6.585  13.853
 2516TIP3    H158016   1.779   6.630  13.787
 2516TIP3    H258017   1.832   6.651  13.926
 2517TIP3   OH258018   1.703   6.301  13.710
 2517TIP3    H158019   1.666   6.371  13.654
 2517TIP3    H258020   1.647   6.225  13.673
 2518TIP3   OH258021   1.596   6.062  13.630
 2518TIP3    H158022   1.652   6.009  13.689
 2518TIP3    H258023   1.513   6.014  13.645
 2519TIP3   OH258024   1.808   5.948  13.780
 2519TIP3    H158025   1.841   5.868  13.737
 2519TIP3    H258026   1.889   5.995  13.788
 2520TIP3   OH258027   0.352   5.942  13.731
 2520TIP3    H158028   0.389   5.865  13.686
 2520TIP3    H258029   0.408   5.958  13.807
 2521TIP3   OH258030   1.034   7.459  13.825
 2521TIP3    H158031   1.124   7.492  13.806
 2521TIP3    H258032   1.014   7.413  13.741
 2522TIP3   OH258033   0.333   7.421  13.680
 2522TIP3    H158034   0.308   7.458  13.766
 2522TIP3    H258035   0.411   7.370  13.707
 2523TIP3   OH258036   3.168   6.540  13.916
 2523TIP3    H158037   3.229   6.554  13.988
 2523TIP3    H258038   3.213   6.584  13.840
 2524TIP3   OH258039   3.545   5.729  13.918
 2524TIP3    H158040   3.449   5.716  13.919
 2524TIP3    H258041   3.560   5.793  13.849
 2525TIP3   OH258042   3.320   6.631  13.688
 2525TIP3    H158043   3.316   6.621  13.590
 2525TIP3    H258044   3.396   6.689  13.698
 2526TIP3   OH258045   2.020   6.111  13.881
 2526TIP3    H158046   2.094   6.168  13.848
 2526TIP3    H258047   2.012   6.128  13.977
 2527TIP3   OH258048   2.421   6.358  13.793
 2527TIP3    H158049   2.375   6.311  13.724
 2527TIP3    H258050   2.507   6.367  13.752
 2528TIP3   OH258051   2.965   6.954  13.884
 2528TIP3    H158052   2.941   7.036  13.931
 2528TIP3    H258053   2.901   6.892  13.916
 2529TIP3   OH258054   3.703   6.295  13.954
 2529TIP3    H158055   3.654   6.264  13.875
 2529TIP3    H258056   3.723   6.385  13.919
 2530TIP3   OH258057   2.084   6.571  13.760
 2530TIP3    H158058   2.147   6.636  13.801
 2530TIP3    H258059   2.002   6.611  13.795
 2531TIP3   OH258060   2.853   7.214  13.945
 2531TIP3    H158061   2.770   7.264  13.937
 2531TIP3    H258062   2.905   7.261  13.877
 2532TIP3   OH258063   2.111   6.300  13.701
 2532TIP3    H158064   2.121   6.391  13.743
 2532TIP3    H258065   2.021   6.273  13.696
 2533TIP3   OH258066   2.891   7.274  13.624
 2533TIP3    H158067   2.828   7.211  13.662
 2533TIP3    H258068   2.969   7.216  13.612
 2534TIP3   OH258069   2.976   6.955  13.610
 2534TIP3    H158070   2.963   6.961  13.706
 2534TIP3    H258071   2.963   6.858  13.600
 2535TIP3   OH258072   2.573   6.640  13.878
 2535TIP3    H158073   2.510   6.594  13.937
 2535TIP3    H258074   2.580   6.579  13.805
 2536TIP3   OH258075   3.722   6.581  13.856
 2536TIP3    H158076   3.663   6.617  13.790
 2536TIP3    H258077   3.718   6.643  13.931
 2537TIP3   OH258078   3.564   6.307  13.713
 2537TIP3    H158079   3.560   6.373  13.644
 2537TIP3    H258080   3.532   6.226  13.669
 2538TIP3   OH258081   3.477   6.052  13.626
 2538TIP3    H158082   3.537   6.011  13.687
 2538TIP3    H258083   3.394   6.009  13.650
 2539TIP3   OH258084   2.926   7.450  13.831
 2539TIP3    H158085   3.007   7.495  13.807
 2539TIP3    H258086   2.897   7.415  13.744
 2540TIP3   OH258087   4.826   6.437  13.762
 2540TIP3    H158088   4.904   6.456  13.816
 2540TIP3    H258089   4.865   6.388  13.689
 2541TIP3   OH258090   5.068   6.532  13.915
 2541TIP3    H158091   5.118   6.568  13.989
 2541TIP3    H258092   5.096   6.588  13.840
 2542TIP3   OH258093   5.435   5.728  13.916
 2542TIP3    H158094   5.338   5.717  13.920
 2542TIP3    H258095   5.451   5.799  13.852
 2543TIP3   OH258096   5.548   7.146  13.729
 2543TIP3    H158097   5.547   7.242  13.751
 2543TIP3    H258098   5.642   7.128  13.736
 2544TIP3   OH258099   5.198   6.647  13.689
 2544TIP3    H158100   5.197   6.621  13.594
 2544TIP3    H258101   5.288   6.675  13.703
 2545TIP3   OH258102   4.320   6.354  13.799
 2545TIP3    H158103   4.256   6.315  13.736
 2545TIP3    H258104   4.398   6.374  13.746
 2546TIP3   OH258105   5.028   6.084  13.816
 2546TIP3    H158106   4.936   6.101  13.794
 2546TIP3    H258107   5.059   6.174  13.834
 2547TIP3   OH258108   5.101   6.292  13.958
 2547TIP3    H158109   5.196   6.302  13.954
 2547TIP3    H258110   5.088   6.375  13.905
 2548TIP3   OH258111   5.577   6.295  13.957
 2548TIP3    H158112   5.543   6.261  13.872
 2548TIP3    H258113   5.608   6.381  13.922
 2549TIP3   OH258114   3.968   6.584  13.752
 2549TIP3    H158115   4.031   6.633  13.809
 2549TIP3    H258116   3.884   6.604  13.796
 2550TIP3   OH258117   5.612   7.420  13.791
 2550TIP3    H158118   5.687   7.480  13.778
 2550TIP3    H258119   5.541   7.477  13.822
 2551TIP3   OH258120   4.103   6.772  13.905
 2551TIP3    H158121   4.049   6.804  13.977
 2551TIP3    H258122   4.164   6.846  13.888
 2552TIP3   OH258123   4.476   7.313  13.943
 2552TIP3    H158124   4.484   7.392  13.886
 2552TIP3    H258125   4.454   7.350  14.029
 2553TIP3   OH258126   4.175   7.026  13.801
 2553TIP3    H158127   4.234   7.094  13.836
 2553TIP3    H258128   4.225   6.982  13.730
 2554TIP3   OH258129   4.322   6.839  13.632
 2554TIP3    H158130   4.342   6.768  13.696
 2554TIP3    H258131   4.402   6.834  13.575
 2555TIP3   OH258132   4.448   6.644  13.869
 2555TIP3    H158133   4.400   6.598  13.939
 2555TIP3    H258134   4.470   6.572  13.807
 2556TIP3   OH258135   4.553   6.459  13.695
 2556TIP3    H158136   4.539   6.457  13.598
 2556TIP3    H258137   4.650   6.474  13.703
 2557TIP3   OH258138   5.465   6.650  13.660
 2557TIP3    H158139   5.449   6.630  13.564
 2557TIP3    H258140   5.432   6.735  13.693
 2558TIP3   OH258141   4.544   7.537  13.798
 2558TIP3    H158142   4.638   7.550  13.809
 2558TIP3    H258143   4.517   7.606  13.736
 2559TIP3   OH258144   5.607   6.576  13.866
 2559TIP3    H158145   5.549   6.607  13.795
 2559TIP3    H258146   5.606   6.647  13.932
 2560TIP3   OH258147   5.433   6.309  13.716
 2560TIP3    H158148   5.451   6.372  13.646
 2560TIP3    H258149   5.425   6.225  13.666
 2561TIP3   OH258150   5.362   6.060  13.636
 2561TIP3    H158151   5.426   6.009  13.688
 2561TIP3    H258152   5.282   6.005  13.642
 2562TIP3   OH258153   5.575   5.941  13.794
 2562TIP3    H158154   5.609   5.867  13.738
 2562TIP3    H258155   5.647   6.005  13.779
 2563TIP3   OH258156   4.104   7.430  13.681
 2563TIP3    H158157   4.073   7.451  13.770
 2563TIP3    H258158   4.181   7.373  13.699
 2564TIP3   OH258159   6.648   6.026  13.736
 2564TIP3    H158160   6.628   6.035  13.831
 2564TIP3    H258161   6.619   5.938  13.715
 2565TIP3   OH258162   6.233   6.852  13.655
 2565TIP3    H158163   6.208   6.766  13.689
 2565TIP3    H258164   6.271   6.832  13.570
 2566TIP3   OH258165   5.983   7.421  13.683
 2566TIP3    H158166   5.967   7.458  13.769
 2566TIP3    H258167   6.068   7.376  13.697
 2567TIP3   OH258168   8.081   6.355  13.797
 2567TIP3    H158169   8.027   6.314  13.727
 2567TIP3    H258170   8.164   6.372  13.754
 2568TIP3   OH258171   7.887   6.766  13.918
 2568TIP3    H158172   7.810   6.796  13.969
 2568TIP3    H258173   7.926   6.845  13.885
 2569TIP3   OH258174  -0.029   5.986  13.900
 2569TIP3    H158175  -0.034   6.075  13.933
 2569TIP3    H258176   0.062   5.962  13.918
 2570TIP3   OH258177   7.945   7.040  13.794
 2570TIP3    H158178   8.015   7.085  13.837
 2570TIP3    H258179   7.988   6.979  13.730
 2571TIP3   OH258180   7.775   6.297  13.710
 2571TIP3    H158181   7.773   6.389  13.739
 2571TIP3    H258182   7.685   6.274  13.693
 2572TIP3   OH258183   8.076   6.843  13.630
 2572TIP3    H158184   8.097   6.770  13.691
 2572TIP3    H258185   8.157   6.833  13.577
 2573TIP3   OH258186   7.673   7.001  13.748
 2573TIP3    H158187   7.766   7.001  13.771
 2573TIP3    H258188   7.667   6.932  13.678
 2574TIP3   OH258189   7.880   7.438  13.670
 2574TIP3    H158190   7.821   7.460  13.753
 2574TIP3    H258191   7.931   7.357  13.663
 2575TIP3   OH258192   0.902   7.890  13.744
 2575TIP3    H158193   0.960   7.922  13.816
 2575TIP3    H258194   0.956   7.821  13.708
 2576TIP3   OH258195   0.675   7.974  13.659
 2576TIP3    H158196   0.632   7.914  13.724
 2576TIP3    H258197   0.602   7.992  13.600
 2577TIP3   OH258198   0.124   8.157  13.825
 2577TIP3    H158199   0.191   8.086  13.836
 2577TIP3    H258200   0.068   8.110  13.894
 2578TIP3   OH258201   1.088   8.014  13.814
 2578TIP3    H158202   1.131   7.995  13.728
 2578TIP3    H258203   1.180   8.021  13.843
 2579TIP3   OH258204   0.573   7.871  13.929
 2579TIP3    H158205   0.578   7.967  13.934
 2579TIP3    H258206   0.668   7.849  13.917
 2580TIP3   OH258207   1.629   7.938  13.593
 2580TIP3    H158208   1.662   7.899  13.679
 2580TIP3    H258209   1.535   7.914  13.613
 2581TIP3   OH258210   1.808   7.829  13.772
 2581TIP3    H158211   1.848   7.746  13.739
 2581TIP3    H258212   1.884   7.883  13.799
 2582TIP3   OH258213   0.171   7.594  13.915
 2582TIP3    H158214   0.201   7.649  13.839
 2582TIP3    H258215   0.096   7.656  13.934
 2583TIP3   OH258216   0.462   7.840  13.699
 2583TIP3    H158217   0.408   7.762  13.673
 2583TIP3    H258218   0.434   7.850  13.790
 2584TIP3   OH258219   2.885   7.903  13.749
 2584TIP3    H158220   2.840   7.908  13.833
 2584TIP3    H258221   2.844   7.823  13.711
 2585TIP3   OH258222   2.561   7.956  13.653
 2585TIP3    H158223   2.521   7.919  13.733
 2585TIP3    H258224   2.489   7.998  13.606
 2586TIP3   OH258225   2.015   7.998  13.893
 2586TIP3    H158226   2.063   8.066  13.845
 2586TIP3    H258227   1.952   8.055  13.943
 2587TIP3   OH258228   3.143   7.978  13.839
 2587TIP3    H158229   3.059   7.982  13.786
 2587TIP3    H258230   3.185   8.063  13.825
 2588TIP3   OH258231   3.680   7.805  13.766
 2588TIP3    H158232   3.733   7.739  13.728
 2588TIP3    H258233   3.740   7.876  13.796
 2589TIP3   OH258234   2.234   7.824  13.733
 2589TIP3    H158235   2.279   7.753  13.684
 2589TIP3    H258236   2.294   7.847  13.805
 2590TIP3   OH258237   4.757   7.918  13.746
 2590TIP3    H158238   4.736   7.922  13.839
 2590TIP3    H258239   4.735   7.830  13.718
 2591TIP3   OH258240   4.446   7.945  13.631
 2591TIP3    H158241   4.415   7.926  13.724
 2591TIP3    H258242   4.381   8.009  13.605
 2592TIP3   OH258243   3.784   8.002  13.863
 2592TIP3    H158244   3.867   8.033  13.827
 2592TIP3    H258245   3.807   8.037  13.951
 2593TIP3   OH258246   4.362   7.880  13.853
 2593TIP3    H158247   4.333   7.953  13.915
 2593TIP3    H258248   4.440   7.849  13.901
 2594TIP3   OH258249   5.354   7.939  13.629
 2594TIP3    H158250   5.423   7.904  13.686
 2594TIP3    H258251   5.279   7.883  13.650
 2595TIP3   OH258252   4.119   7.790  13.793
 2595TIP3    H158253   4.152   7.759  13.705
 2595TIP3    H258254   4.192   7.849  13.817
 2596TIP3   OH258255   6.655   7.916  13.754
 2596TIP3    H158256   6.611   7.913  13.838
 2596TIP3    H258257   6.618   7.834  13.714
 2597TIP3   OH258258   6.921   7.977  13.808
 2597TIP3    H158259   6.824   7.982  13.793
 2597TIP3    H258260   6.953   8.056  13.846
 2598TIP3   OH258261   7.240   7.947  13.636
 2598TIP3    H158262   7.310   7.896  13.683
 2598TIP3    H258263   7.165   7.889  13.646
 2599TIP3   OH258264   7.449   7.807  13.717
 2599TIP3    H158265   7.504   7.731  13.725
 2599TIP3    H258266   7.497   7.875  13.766
 2600TIP3   OH258267   7.763   8.100  13.879
 2600TIP3    H158268   7.724   8.070  13.797
 2600TIP3    H258269   7.679   8.087  13.932
 2601TIP3   OH258270  -0.028   7.725  13.876
 2601TIP3    H158271  -0.053   7.823  13.889
 2601TIP3    H258272   0.055   7.775  13.850
 2602TIP3   OH258273   7.702   7.559  13.808
 2602TIP3    H158274   7.747   7.649  13.816
 2602TIP3    H258275   7.647   7.601  13.886
 2603TIP3   OH258276   7.893   7.693  13.749
 2603TIP3    H158277   7.935   7.739  13.674
 2603TIP3    H258278   7.909   7.772  13.805
 2604TIP3   OH258279   1.077   0.946  15.016
 2604TIP3    H158280   1.073   0.883  15.089
 2604TIP3    H258281   1.040   0.895  14.942
 2605TIP3   OH258282   1.459   1.226  14.854
 2605TIP3    H158283   1.401   1.163  14.897
 2605TIP3    H258284   1.448   1.306  14.905
 2606TIP3   OH258285   0.403   1.357  15.023
 2606TIP3    H158286   0.371   1.273  14.990
 2606TIP3    H258287   0.499   1.342  15.027
 2607TIP3   OH258288   0.913   1.186  15.060
 2607TIP3    H158289   0.948   1.122  14.997
 2607TIP3    H258290   0.991   1.202  15.115
 2608TIP3   OH258291   0.543   0.439  14.817
 2608TIP3    H158292   0.549   0.523  14.769
 2608TIP3    H258293   0.503   0.382  14.748
 2609TIP3   OH258294   0.213   0.669  14.889
 2609TIP3    H158295   0.280   0.614  14.932
 2609TIP3    H258296   0.217   0.646  14.795
 2610TIP3   OH258297   0.433   0.334  15.221
 2610TIP3    H158298   0.401   0.387  15.146
 2610TIP3    H258299   0.363   0.353  15.289
 2611TIP3   OH258300   0.683   1.096  15.244
 2611TIP3    H158301   0.613   1.160  15.270
 2611TIP3    H258302   0.755   1.156  15.219
 2612TIP3   OH258303   0.388   0.514  15.024
 2612TIP3    H158304   0.451   0.583  15.055
 2612TIP3    H258305   0.439   0.475  14.950
 2613TIP3   OH258306   0.526   1.293  15.326
 2613TIP3    H158307   0.523   1.385  15.294
 2613TIP3    H258308   0.438   1.287  15.370
 2614TIP3   OH258309   0.825   0.068  14.946
 2614TIP3    H158310   0.823  -0.027  14.964
 2614TIP3    H258311   0.747   0.097  14.996
 2615TIP3   OH258312   1.605   1.254  15.441
 2615TIP3    H158313   1.620   1.188  15.369
 2615TIP3    H258314   1.629   1.338  15.401
 2616TIP3   OH258315   1.052   0.941  14.417
 2616TIP3    H158316   0.987   1.001  14.380
 2616TIP3    H258317   1.126   0.949  14.354
 2617TIP3   OH258318   1.064   0.796  14.120
 2617TIP3    H158319   1.133   0.796  14.190
 2617TIP3    H258320   1.095   0.727  14.061
 2618TIP3   OH258321   1.804   0.889  15.251
 2618TIP3    H158322   1.726   0.948  15.252
 2618TIP3    H258323   1.843   0.909  15.164
 2619TIP3   OH258324   1.403   0.966  14.513
 2619TIP3    H158325   1.325   0.989  14.566
 2619TIP3    H258326   1.440   0.892  14.561
 2620TIP3   OH258327   0.690   1.365  14.973
 2620TIP3    H158328   0.693   1.315  14.890
 2620TIP3    H258329   0.772   1.335  15.016
 2621TIP3   OH258330   0.606   0.900  15.076
 2621TIP3    H158331   0.654   0.918  14.994
 2621TIP3    H258332   0.633   0.974  15.134
 2622TIP3   OH258333   0.687   1.347  15.540
 2622TIP3    H158334   0.650   1.425  15.587
 2622TIP3    H258335   0.623   1.331  15.468
 2623TIP3   OH258336   1.286   0.878  14.279
 2623TIP3    H158337   1.340   0.900  14.357
 2623TIP3    H258338   1.326   0.931  14.209
 2624TIP3   OH258339   0.511   1.548  15.609
 2624TIP3    H158340   0.507   1.543  15.512
 2624TIP3    H258341   0.418   1.545  15.637
 2625TIP3   OH258342   0.373   1.729  14.645
 2625TIP3    H158343   0.384   1.694  14.736
 2625TIP3    H258344   0.285   1.695  14.624
 2626TIP3   OH258345   0.291   1.306  15.447
 2626TIP3    H158346   0.313   1.269  15.533
 2626TIP3    H258347   0.204   1.270  15.428
 2627TIP3   OH258348   0.562   0.152  15.041
 2627TIP3    H158349   0.472   0.151  15.003
 2627TIP3    H258350   0.552   0.235  15.091
 2628TIP3   OH258351   1.035   0.172  15.391
 2628TIP3    H158352   1.079   0.102  15.440
 2628TIP3    H258353   0.947   0.130  15.375
 2629TIP3   OH258354   0.572   0.650  15.167
 2629TIP3    H158355   0.500   0.650  15.232
 2629TIP3    H258356   0.571   0.742  15.131
 2630TIP3   OH258357   1.026   0.736  15.676
 2630TIP3    H158358   0.975   0.656  15.704
 2630TIP3    H258359   1.112   0.721  15.717
 2631TIP3   OH258360   0.083   0.400  14.683
 2631TIP3    H158361   0.071   0.381  14.780
 2631TIP3    H258362   0.074   0.315  14.639
 2632TIP3   OH258363   1.141   0.819  15.268
 2632TIP3    H158364   1.186   0.752  15.216
 2632TIP3    H258365   1.103   0.767  15.341
 2633TIP3   OH258366   0.827   0.419  14.757
 2633TIP3    H158367   0.733   0.420  14.786
 2633TIP3    H258368   0.874   0.400  14.839
 2634TIP3   OH258369   0.307   0.575  14.637
 2634TIP3    H158370   0.218   0.587  14.601
 2634TIP3    H258371   0.336   0.491  14.599
 2635TIP3   OH258372   0.673   0.573  14.402
 2635TIP3    H158373   0.766   0.591  14.426
 2635TIP3    H258374   0.648   0.644  14.340
 2636TIP3   OH258375   0.540   0.694  14.162
 2636TIP3    H158376   0.486   0.660  14.089
 2636TIP3    H258377   0.623   0.719  14.117
 2637TIP3   OH258378   0.959   0.697  14.948
 2637TIP3    H158379   1.009   0.638  14.892
 2637TIP3    H258380   0.937   0.640  15.023
 2638TIP3   OH258381   0.454   0.310  14.587
 2638TIP3    H158382   0.426   0.218  14.584
 2638TIP3    H258383   0.533   0.303  14.531
 2639TIP3   OH258384   0.820   0.526  15.185
 2639TIP3    H158385   0.737   0.576  15.195
 2639TIP3    H258386   0.872   0.560  15.260
 2640TIP3   OH258387   0.874   1.150  14.355
 2640TIP3    H158388   0.796   1.102  14.322
 2640TIP3    H258389   0.857   1.159  14.450
 2641TIP3   OH258390   1.592   1.072  15.236
 2641TIP3    H158391   1.652   1.113  15.172
 2641TIP3    H258392   1.508   1.073  15.188
 2642TIP3   OH258393   1.024   1.173  15.479
 2642TIP3    H158394   0.991   1.131  15.560
 2642TIP3    H258395   1.001   1.266  15.491
 2643TIP3   OH258396   1.087   1.277  14.254
 2643TIP3    H158397   1.059   1.362  14.289
 2643TIP3    H258398   1.010   1.224  14.279
 2644TIP3   OH258399   0.787   0.881  15.681
 2644TIP3    H158400   0.757   0.857  15.592
 2644TIP3    H258401   0.881   0.853  15.679
 2645TIP3   OH258402   1.825   1.218  15.593
 2645TIP3    H158403   1.737   1.246  15.558
 2645TIP3    H258404   1.878   1.219  15.512
 2646TIP3   OH258405   1.372   1.003  15.055
 2646TIP3    H158406   1.278   0.979  15.056
 2646TIP3    H258407   1.415   0.922  15.025
 2647TIP3   OH258408   0.624   1.433  14.672
 2647TIP3    H158409   0.674   1.514  14.652
 2647TIP3    H258410   0.536   1.458  14.641
 2648TIP3   OH258411   0.763   1.199  14.625
 2648TIP3    H158412   0.736   1.293  14.633
 2648TIP3    H258413   0.693   1.153  14.669
 2649TIP3   OH258414   0.808   1.621  15.254
 2649TIP3    H158415   0.856   1.702  15.233
 2649TIP3    H258416   0.865   1.589  15.326
 2650TIP3   OH258417   0.636   1.703  14.577
 2650TIP3    H158418   0.539   1.714  14.593
 2650TIP3    H258419   0.670   1.786  14.616
 2651TIP3   OH258420   1.169   1.222  15.226
 2651TIP3    H158421   1.129   1.201  15.313
 2651TIP3    H258422   1.230   1.148  15.213
 2652TIP3   OH258423   0.251   0.398  15.416
 2652TIP3    H158424   0.163   0.438  15.415
 2652TIP3    H258425   0.237   0.314  15.462
 2653TIP3   OH258426   1.478   1.184  14.356
 2653TIP3    H158427   1.450   1.112  14.416
 2653TIP3    H258428   1.569   1.199  14.381
 2654TIP3   OH258429   0.209   1.579  15.261
 2654TIP3    H158430   0.241   1.488  15.261
 2654TIP3    H258431   0.240   1.613  15.346
 2655TIP3   OH258432   0.697   1.390  14.225
 2655TIP3    H158433   0.709   1.331  14.302
 2655TIP3    H258434   0.689   1.478  14.265
 2656TIP3   OH258435   1.129   0.391  15.306
 2656TIP3    H158436   1.196   0.385  15.373
 2656TIP3    H258437   1.089   0.301  15.319
 2657TIP3   OH258438   0.925   0.508  14.504
 2657TIP3    H158439   1.000   0.568  14.505
 2657TIP3    H258440   0.894   0.501  14.596
 2658TIP3   OH258441   0.973   0.612  15.422
 2658TIP3    H158442   0.987   0.669  15.500
 2658TIP3    H258443   1.039   0.542  15.428
 2659TIP3   OH258444   1.012   0.217  14.596
 2659TIP3    H158445   0.974   0.283  14.656
 2659TIP3    H258446   1.074   0.272  14.545
 2660TIP3   OH258447   0.674   1.666  14.301
 2660TIP3    H158448   0.720   1.738  14.257
 2660TIP3    H258449   0.680   1.688  14.396
 2661TIP3   OH258450   0.577   0.332  14.258
 2661TIP3    H158451   0.568   0.418  14.301
 2661TIP3    H258452   0.665   0.304  14.291
 2662TIP3   OH258453   0.399   1.379  14.160
 2662TIP3    H158454   0.463   1.438  14.199
 2662TIP3    H258455   0.451   1.325  14.102
 2663TIP3   OH258456   0.309   0.131  14.951
 2663TIP3    H158457   0.288   0.129  14.854
 2663TIP3    H258458   0.273   0.045  14.979
 2664TIP3   OH258459   0.205   1.510  14.568
 2664TIP3    H158460   0.122   1.556  14.566
 2664TIP3    H258461   0.258   1.556  14.502
 2665TIP3   OH258462   0.619   1.683  15.820
 2665TIP3    H158463   0.657   1.621  15.886
 2665TIP3    H258464   0.593   1.625  15.747
 2666TIP3   OH258465   0.796   1.154  15.732
 2666TIP3    H158466   0.754   1.181  15.650
 2666TIP3    H258467   0.800   1.056  15.726
 2667TIP3   OH258468   1.362   1.140  15.475
 2667TIP3    H158469   1.441   1.197  15.466
 2667TIP3    H258470   1.288   1.201  15.477
 2668TIP3   OH258471   0.679   0.988  14.245
 2668TIP3    H158472   0.623   0.936  14.304
 2668TIP3    H258473   0.703   0.923  14.175
 2669TIP3   OH258474   0.599   0.770  15.468
 2669TIP3    H158475   0.541   0.841  15.498
 2669TIP3    H258476   0.643   0.808  15.390
 2670TIP3   OH258477   0.779   0.815  14.057
 2670TIP3    H158478   0.769   0.795  13.962
 2670TIP3    H258479   0.877   0.820  14.069
 2671TIP3   OH258480   1.109   1.028  15.804
 2671TIP3    H158481   1.205   1.027  15.796
 2671TIP3    H258482   1.090   0.955  15.863
 2672TIP3   OH258483   0.638   0.508  15.577
 2672TIP3    H158484   0.653   0.437  15.513
 2672TIP3    H258485   0.639   0.587  15.520
 2673TIP3   OH258486   0.682   0.346  15.332
 2673TIP3    H158487   0.733   0.392  15.261
 2673TIP3    H258488   0.593   0.337  15.291
 2674TIP3   OH258489   0.833   0.891  15.352
 2674TIP3    H158490   0.912   0.877  15.299
 2674TIP3    H258491   0.804   0.980  15.325
 2675TIP3   OH258492   1.409   0.954  15.672
 2675TIP3    H158493   1.383   1.018  15.603
 2675TIP3    H258494   1.504   0.945  15.647
 2676TIP3   OH258495   0.488   0.622  15.778
 2676TIP3    H158496   0.408   0.581  15.739
 2676TIP3    H258497   0.553   0.599  15.706
 2677TIP3   OH258498   0.752   0.094  15.370
 2677TIP3    H158499   0.745   0.191  15.360
 2677TIP3    H258500   0.677   0.060  15.322
 2678TIP3   OH258501   0.885   0.528  15.733
 2678TIP3    H158502   0.861   0.496  15.821
 2678TIP3    H258503   0.808   0.503  15.678
 2679TIP3   OH258504   0.312   0.420  15.750
 2679TIP3    H158505   0.320   0.353  15.679
 2679TIP3    H258506   0.275   0.364  15.819
 2680TIP3   OH258507   0.789   0.071  15.625
 2680TIP3    H158508   0.851  -0.006  15.632
 2680TIP3    H258509   0.770   0.058  15.530
 2681TIP3   OH258510   0.821   0.193  15.854
 2681TIP3    H158511   0.808   0.142  15.771
 2681TIP3    H258512   0.760   0.267  15.840
 2682TIP3   OH258513   8.147   1.881  14.610
 2682TIP3    H158514   8.070   1.838  14.572
 2682TIP3    H258515   8.168   1.819  14.683
 2683TIP3   OH258516   0.093   1.689  14.796
 2683TIP3    H158517   0.046   1.606  14.816
 2683TIP3    H258518   0.110   1.726  14.886
 2684TIP3   OH258519   1.790   1.729  15.385
 2684TIP3    H158520   1.744   1.651  15.350
 2684TIP3    H258521   1.842   1.688  15.456
 2685TIP3   OH258522   1.646   1.298  15.865
 2685TIP3    H158523   1.553   1.297  15.892
 2685TIP3    H258524   1.676   1.384  15.895
 2686TIP3   OH258525   1.771   1.131  14.397
 2686TIP3    H158526   1.854   1.176  14.421
 2686TIP3    H258527   1.767   1.062  14.467
 2687TIP3   OH258528   1.802   0.937  14.587
 2687TIP3    H158529   1.730   0.890  14.631
 2687TIP3    H258530   1.864   0.958  14.660
 2688TIP3   OH258531   1.777   1.217  15.083
 2688TIP3    H158532   1.858   1.174  15.049
 2688TIP3    H258533   1.800   1.310  15.068
 2689TIP3   OH258534   1.633   1.501  15.311
 2689TIP3    H158535   1.567   1.537  15.373
 2689TIP3    H258536   1.578   1.461  15.243
 2690TIP3   OH258537   1.838   0.933  14.220
 2690TIP3    H158538   1.776   0.962  14.153
 2690TIP3    H258539   1.826   0.996  14.293
 2691TIP3   OH258540   1.673   0.985  15.621
 2691TIP3    H158541   1.734   0.910  15.620
 2691TIP3    H258542   1.731   1.063  15.610
 2692TIP3   OH258543   1.849   0.082  15.848
 2692TIP3    H158544   1.880   0.016  15.783
 2692TIP3    H258545   1.865   0.163  15.800
 2693TIP3   OH258546   0.161   0.360  14.953
 2693TIP3    H158547   0.214   0.280  14.974
 2693TIP3    H258548   0.221   0.428  14.987
 2694TIP3   OH258549  -0.009   0.689  14.990
 2694TIP3    H158550   0.063   0.629  14.956
 2694TIP3    H258551   0.048   0.729  15.058
 2695TIP3   OH258552   0.045   0.266  14.461
 2695TIP3    H158553  -0.046   0.291  14.433
 2695TIP3    H258554   0.091   0.330  14.405
 2696TIP3   OH258555   8.202   0.156  15.296
 2696TIP3    H158556   8.146   0.114  15.360
 2696TIP3    H258557   8.153   0.210  15.232
 2697TIP3   OH258558   0.543   1.567  15.336
 2697TIP3    H158559   0.505   1.653  15.308
 2697TIP3    H258560   0.634   1.580  15.303
 2698TIP3   OH258561   0.278   1.887  15.334
 2698TIP3    H158562   0.209   1.942  15.297
 2698TIP3    H258563   0.250   1.873  15.426
 2699TIP3   OH258564   0.526   1.839  15.241
 2699TIP3    H158565   0.442   1.867  15.284
 2699TIP3    H258566   0.529   1.906  15.168
 2700TIP3   OH258567   0.996   1.839  15.164
 2700TIP3    H158568   0.957   1.897  15.095
 2700TIP3    H258569   1.020   1.902  15.231
 2701TIP3   OH258570   0.229   1.756  15.029
 2701TIP3    H158571   0.225   1.712  15.116
 2701TIP3    H258572   0.311   1.721  14.989
 2702TIP3   OH258573   0.439   1.628  14.892
 2702TIP3    H158574   0.420   1.537  14.919
 2702TIP3    H258575   0.523   1.645  14.939
 2703TIP3   OH258576   0.695   1.678  14.980
 2703TIP3    H158577   0.716   1.586  14.954
 2703TIP3    H258578   0.701   1.672  15.077
 2704TIP3   OH258579   1.036   0.245  14.889
 2704TIP3    H158580   0.978   0.175  14.925
 2704TIP3    H258581   1.103   0.193  14.842
 2705TIP3   OH258582   0.272   0.140  14.694
 2705TIP3    H158583   0.205   0.109  14.632
 2705TIP3    H258584   0.329   0.061  14.689
 2706TIP3   OH258585   0.127   0.139  14.217
 2706TIP3    H158586   0.213   0.181  14.194
 2706TIP3    H258587   0.103   0.162  14.309
 2707TIP3   OH258588   0.733   0.103  14.659
 2707TIP3    H158589   0.824   0.135  14.654
 2707TIP3    H258590   0.729   0.077  14.751
 2708TIP3   OH258591   1.273   0.102  14.818
 2708TIP3    H158592   1.298   0.104  14.726
 2708TIP3    H258593   1.267   0.007  14.834
 2709TIP3   OH258594   0.349   0.279  14.115
 2709TIP3    H158595   0.392   0.216  14.056
 2709TIP3    H258596   0.420   0.308  14.170
 2710TIP3   OH258597   0.837   0.301  14.350
 2710TIP3    H158598   0.871   0.242  14.419
 2710TIP3    H258599   0.848   0.388  14.393
 2711TIP3   OH258600   1.700   1.758  14.462
 2711TIP3    H158601   1.697   1.681  14.403
 2711TIP3    H258602   1.703   1.834  14.402
 2712TIP3   OH258603   0.267   0.168  15.637
 2712TIP3    H158604   0.231   0.082  15.663
 2712TIP3    H258605   0.361   0.154  15.658
 2713TIP3   OH258606   0.476   0.099  15.795
 2713TIP3    H158607   0.560   0.064  15.760
 2713TIP3    H258608   0.436   0.014  15.820
 2714TIP3   OH258609   0.331   1.772  14.049
 2714TIP3    H158610   0.304   1.798  14.138
 2714TIP3    H258611   0.407   1.717  14.066
 2715TIP3   OH258612   2.977   0.948  15.020
 2715TIP3    H158613   2.957   0.885  15.090
 2715TIP3    H258614   2.933   0.908  14.944
 2716TIP3   OH258615   2.202   0.910  15.167
 2716TIP3    H158616   2.202   0.845  15.241
 2716TIP3    H258617   2.271   0.971  15.198
 2717TIP3   OH258618   2.291   1.357  15.029
 2717TIP3    H158619   2.256   1.275  14.991
 2717TIP3    H258620   2.385   1.337  15.029
 2718TIP3   OH258621   1.953   0.714  14.564
 2718TIP3    H158622   1.910   0.801  14.563
 2718TIP3    H258623   1.894   0.660  14.512
 2719TIP3   OH258624   2.023   0.934  14.783
 2719TIP3    H158625   2.050   0.852  14.831
 2719TIP3    H258626   2.094   0.946  14.718
 2720TIP3   OH258627   3.056   1.765  14.868
 2720TIP3    H158628   3.108   1.688  14.835
 2720TIP3    H258629   3.022   1.733  14.952
 2721TIP3   OH258630   2.424   0.442  14.817
 2721TIP3    H158631   2.435   0.522  14.765
 2721TIP3    H258632   2.386   0.383  14.748
 2722TIP3   OH258633   2.097   0.689  14.889
 2722TIP3    H158634   2.155   0.624  14.934
 2722TIP3    H258635   2.096   0.648  14.801
 2723TIP3   OH258636   3.708   0.497  15.366
 2723TIP3    H158637   3.638   0.564  15.351
 2723TIP3    H258638   3.706   0.478  15.459
 2724TIP3   OH258639   2.314   0.328  15.219
 2724TIP3    H158640   2.288   0.387  15.145
 2724TIP3    H258641   2.248   0.354  15.288
 2725TIP3   OH258642   2.562   1.094  15.234
 2725TIP3    H158643   2.495   1.160  15.264
 2725TIP3    H258644   2.638   1.152  15.224
 2726TIP3   OH258645   2.270   0.513  15.022
 2726TIP3    H158646   2.333   0.580  15.056
 2726TIP3    H258647   2.322   0.473  14.948
 2727TIP3   OH258648   2.404   1.293  15.310
 2727TIP3    H158649   2.409   1.388  15.292
 2727TIP3    H258650   2.328   1.288  15.373
 2728TIP3   OH258651   2.024   1.261  14.404
 2728TIP3    H158652   1.994   1.290  14.316
 2728TIP3    H258653   2.027   1.344  14.456
 2729TIP3   OH258654   3.385   1.426  15.084
 2729TIP3    H158655   3.291   1.431  15.094
 2729TIP3    H258656   3.411   1.518  15.063
 2730TIP3   OH258657   3.429   0.248  15.227
 2730TIP3    H158658   3.353   0.307  15.226
 2730TIP3    H258659   3.490   0.292  15.168
 2731TIP3   OH258660   2.706   0.065  14.946
 2731TIP3    H158661   2.708  -0.029  14.968
 2731TIP3    H258662   2.631   0.096  14.998
 2732TIP3   OH258663   3.214   1.605  14.744
 2732TIP3    H158664   3.252   1.532  14.695
 2732TIP3    H258665   3.250   1.685  14.701
 2733TIP3   OH258666   3.491   1.255  15.444
 2733TIP3    H158667   3.503   1.188  15.374
 2733TIP3    H258668   3.513   1.339  15.401
 2734TIP3   OH258669   3.681   0.884  15.249
 2734TIP3    H158670   3.612   0.954  15.252
 2734TIP3    H258671   3.728   0.908  15.167
 2735TIP3   OH258672   3.290   0.975  14.514
 2735TIP3    H158673   3.210   0.986  14.569
 2735TIP3    H258674   3.331   0.898  14.558
 2736TIP3   OH258675   2.265   0.961  15.456
 2736TIP3    H158676   2.273   1.030  15.524
 2736TIP3    H258677   2.173   0.976  15.431
 2737TIP3   OH258678   3.535   0.056  14.254
 2737TIP3    H158679   3.451   0.076  14.296
 2737TIP3    H258680   3.568   0.142  14.226
 2738TIP3   OH258681   2.338   0.940  14.468
 2738TIP3    H158682   2.314   1.011  14.407
 2738TIP3    H258683   2.282   0.868  14.440
 2739TIP3   OH258684   3.650   1.490  14.106
 2739TIP3    H158685   3.668   1.587  14.107
 2739TIP3    H258686   3.745   1.464  14.094
 2740TIP3   OH258687   1.949   1.174  15.350
 2740TIP3    H158688   1.907   1.168  15.263
 2740TIP3    H258689   1.957   1.079  15.373
 2741TIP3   OH258690   1.932   1.447  15.032
 2741TIP3    H158691   2.029   1.439  15.027
 2741TIP3    H258692   1.922   1.530  15.080
 2742TIP3   OH258693   2.251   1.736  14.649
 2742TIP3    H158694   2.272   1.691  14.731
 2742TIP3    H258695   2.169   1.694  14.625
 2743TIP3   OH258696   3.243   1.756  14.175
 2743TIP3    H158697   3.231   1.684  14.115
 2743TIP3    H258698   3.191   1.737  14.254
 2744TIP3   OH258699   3.476   0.665  15.640
 2744TIP3    H158700   3.418   0.715  15.581
 2744TIP3    H258701   3.461   0.574  15.614
 2745TIP3   OH258702   2.180   1.308  15.448
 2745TIP3    H158703   2.204   1.272  15.536
 2745TIP3    H258704   2.095   1.265  15.426
 2746TIP3   OH258705   2.446   0.153  15.041
 2746TIP3    H158706   2.357   0.150  15.003
 2746TIP3    H258707   2.440   0.236  15.092
 2747TIP3   OH258708   2.452   0.652  15.154
 2747TIP3    H158709   2.391   0.646  15.231
 2747TIP3    H258710   2.452   0.746  15.137
 2748TIP3   OH258711   2.220   0.677  15.336
 2748TIP3    H158712   2.230   0.715  15.425
 2748TIP3    H258713   2.177   0.593  15.357
 2749TIP3   OH258714   2.193   0.575  14.642
 2749TIP3    H158715   2.106   0.587  14.602
 2749TIP3    H258716   2.222   0.490  14.604
 2750TIP3   OH258717   3.482   1.901  15.711
 2750TIP3    H158718   3.500   1.943  15.627
 2750TIP3    H258719   3.546   1.942  15.770
 2751TIP3   OH258720   2.239   1.154  15.666
 2751TIP3    H158721   2.311   1.181  15.726
 2751TIP3    H258722   2.162   1.170  15.725
 2752TIP3   OH258723   2.350   0.310  14.588
 2752TIP3    H158724   2.310   0.221  14.586
 2752TIP3    H258725   2.422   0.300  14.526
 2753TIP3   OH258726   3.478   1.068  15.230
 2753TIP3    H158727   3.538   1.117  15.170
 2753TIP3    H258728   3.391   1.076  15.185
 2754TIP3   OH258729   2.272   1.086  14.932
 2754TIP3    H158730   2.344   1.082  14.868
 2754TIP3    H258731   2.276   1.002  14.979
 2755TIP3   OH258732   1.971   0.929  15.463
 2755TIP3    H158733   1.994   0.883  15.545
 2755TIP3    H258734   1.912   0.867  15.416
 2756TIP3   OH258735   3.707   1.218  15.595
 2756TIP3    H158736   3.621   1.249  15.559
 2756TIP3    H258737   3.763   1.222  15.515
 2757TIP3   OH258738   3.626   1.531  14.357
 2757TIP3    H158739   3.614   1.454  14.416
 2757TIP3    H258740   3.615   1.516  14.259
 2758TIP3   OH258741   3.259   1.004  15.062
 2758TIP3    H158742   3.164   0.982  15.055
 2758TIP3    H258743   3.301   0.926  15.021
 2759TIP3   OH258744   2.087   0.919  14.125
 2759TIP3    H158745   2.147   0.982  14.169
 2759TIP3    H258746   1.999   0.945  14.159
 2760TIP3   OH258747   3.331   1.670  15.474
 2760TIP3    H158748   3.257   1.630  15.427
 2760TIP3    H258749   3.351   1.747  15.417
 2761TIP3   OH258750   2.134   0.397  15.413
 2761TIP3    H158751   2.045   0.436  15.419
 2761TIP3    H258752   2.127   0.316  15.466
 2762TIP3   OH258753   3.374   1.205  14.362
 2762TIP3    H158754   3.333   1.123  14.405
 2762TIP3    H258755   3.464   1.178  14.386
 2763TIP3   OH258756   2.104   1.580  15.256
 2763TIP3    H158757   2.123   1.485  15.263
 2763TIP3    H258758   2.123   1.612  15.346
 2764TIP3   OH258759   2.225   1.116  14.273
 2764TIP3    H158760   2.158   1.151  14.336
 2764TIP3    H258761   2.281   1.192  14.258
 2765TIP3   OH258762   3.092   0.332  14.412
 2765TIP3    H158763   3.107   0.392  14.338
 2765TIP3    H258764   3.143   0.380  14.480
 2766TIP3   OH258765   2.890   0.220  14.588
 2766TIP3    H158766   2.857   0.279  14.658
 2766TIP3    H258767   2.961   0.273  14.548
 2767TIP3   OH258768   2.456   0.331  14.266
 2767TIP3    H158769   2.453   0.421  14.299
 2767TIP3    H258770   2.547   0.306  14.286
 2768TIP3   OH258771   3.337   0.780  14.912
 2768TIP3    H158772   3.259   0.735  14.876
 2768TIP3    H258773   3.390   0.710  14.957
 2769TIP3   OH258774   2.119   0.637  14.083
 2769TIP3    H158775   2.115   0.733  14.096
 2769TIP3    H258776   2.030   0.618  14.052
 2770TIP3   OH258777   3.446   1.706  15.071
 2770TIP3    H158778   3.439   1.776  15.004
 2770TIP3    H258779   3.543   1.711  15.090
 2771TIP3   OH258780   2.191   0.130  14.953
 2771TIP3    H158781   2.174   0.132  14.855
 2771TIP3    H258782   2.160   0.041  14.977
 2772TIP3   OH258783   2.090   1.510  14.562
 2772TIP3    H158784   2.008   1.560  14.565
 2772TIP3    H258785   2.146   1.560  14.502
 2773TIP3   OH258786   2.480   1.665  15.855
 2773TIP3    H158787   2.557   1.622  15.894
 2773TIP3    H258788   2.479   1.640  15.762
 2774TIP3   OH258789   2.006   1.152  15.796
 2774TIP3    H158790   2.022   1.062  15.763
 2774TIP3    H258791   1.933   1.182  15.739
 2775TIP3   OH258792   2.088   0.872  15.735
 2775TIP3    H158793   2.134   0.788  15.722
 2775TIP3    H258794   2.076   0.875  15.831
 2776TIP3   OH258795   2.483   0.774  15.466
 2776TIP3    H158796   2.425   0.845  15.495
 2776TIP3    H258797   2.526   0.808  15.388
 2777TIP3   OH258798   2.571   0.341  15.324
 2777TIP3    H158799   2.619   0.394  15.260
 2777TIP3    H258800   2.479   0.339  15.291
 2778TIP3   OH258801   2.632   0.091  15.382
 2778TIP3    H158802   2.631   0.187  15.364
 2778TIP3    H258803   2.564   0.060  15.323
 2779TIP3   OH258804   3.209   0.301  15.840
 2779TIP3    H158805   3.194   0.205  15.832
 2779TIP3    H258806   3.172   0.328  15.925
 2780TIP3   OH258807   2.188   0.423  15.745
 2780TIP3    H158808   2.208   0.351  15.683
 2780TIP3    H258809   2.179   0.377  15.828
 2781TIP3   OH258810   2.013   1.333  14.121
 2781TIP3    H158811   2.106   1.354  14.134
 2781TIP3    H258812   2.014   1.282  14.040
 2782TIP3   OH258813   1.885   1.882  14.618
 2782TIP3    H158814   1.814   1.837  14.569
 2782TIP3    H258815   1.912   1.814  14.682
 2783TIP3   OH258816   1.963   1.690  14.799
 2783TIP3    H158817   1.934   1.601  14.822
 2783TIP3    H258818   1.988   1.725  14.887
 2784TIP3   OH258819   3.717   1.775  15.097
 2784TIP3    H158820   3.723   1.783  15.194
 2784TIP3    H258821   3.791   1.827  15.065
 2785TIP3   OH258822   3.681   1.730  15.384
 2785TIP3    H158823   3.628   1.653  15.353
 2785TIP3    H258824   3.728   1.692  15.460
 2786TIP3   OH258825   3.522   1.304  15.851
 2786TIP3    H158826   3.436   1.295  15.892
 2786TIP3    H258827   3.561   1.382  15.896
 2787TIP3   OH258828   3.651   1.139  14.400
 2787TIP3    H158829   3.743   1.170  14.420
 2787TIP3    H258830   3.651   1.061  14.463
 2788TIP3   OH258831   3.690   0.944  14.586
 2788TIP3    H158832   3.615   0.892  14.625
 2788TIP3    H258833   3.750   0.955  14.662
 2789TIP3   OH258834   3.665   1.211  15.083
 2789TIP3    H158835   3.749   1.175  15.049
 2789TIP3    H258836   3.682   1.307  15.070
 2790TIP3   OH258837   3.517   1.503  15.312
 2790TIP3    H158838   3.452   1.537  15.375
 2790TIP3    H258839   3.463   1.463  15.241
 2791TIP3   OH258840   3.731   0.936  14.216
 2791TIP3    H158841   3.656   0.953  14.162
 2791TIP3    H258842   3.714   0.986  14.299
 2792TIP3   OH258843   3.474   0.789  14.647
 2792TIP3    H158844   3.454   0.694  14.639
 2792TIP3    H258845   3.436   0.812  14.734
 2793TIP3   OH258846   1.973   0.997  15.048
 2793TIP3    H158847   1.992   0.990  14.952
 2793TIP3    H258848   2.062   0.981  15.085
 2794TIP3   OH258849   3.556   0.985  15.612
 2794TIP3    H158850   3.618   0.912  15.630
 2794TIP3    H258851   3.613   1.064  15.613
 2795TIP3   OH258852   3.712   0.775  15.668
 2795TIP3    H158853   3.621   0.737  15.664
 2795TIP3    H258854   3.766   0.697  15.672
 2796TIP3   OH258855   3.440   0.547  14.493
 2796TIP3    H158856   3.469   0.454  14.499
 2796TIP3    H258857   3.516   0.589  14.450
 2797TIP3   OH258858   3.500   0.606  15.036
 2797TIP3    H158859   3.597   0.625  15.031
 2797TIP3    H258860   3.486   0.618  15.131
 2798TIP3   OH258861   3.502   0.678  15.309
 2798TIP3    H158862   3.423   0.713  15.349
 2798TIP3    H258863   3.555   0.759  15.289
 2799TIP3   OH258864   3.499   0.273  14.494
 2799TIP3    H158865   3.519   0.229  14.579
 2799TIP3    H258866   3.442   0.210  14.450
 2800TIP3   OH258867   2.048   0.357  14.954
 2800TIP3    H158868   2.103   0.278  14.972
 2800TIP3    H258869   2.104   0.427  14.989
 2801TIP3   OH258870   1.883   0.656  15.054
 2801TIP3    H158871   1.938   0.632  14.978
 2801TIP3    H258872   1.924   0.737  15.084
 2802TIP3   OH258873   1.918   0.278  14.457
 2802TIP3    H158874   1.826   0.302  14.449
 2802TIP3    H258875   1.964   0.330  14.390
 2803TIP3   OH258876   3.394   1.772  14.651
 2803TIP3    H158877   3.470   1.755  14.593
 2803TIP3    H258878   3.441   1.826  14.719
 2804TIP3   OH258879   2.132   1.469  15.711
 2804TIP3    H158880   2.051   1.494  15.666
 2804TIP3    H258881   2.106   1.467  15.804
 2805TIP3   OH258882   3.584   0.099  15.464
 2805TIP3    H158883   3.503   0.130  15.424
 2805TIP3    H258884   3.610   0.022  15.412
 2806TIP3   OH258885   2.168   1.890  15.334
 2806TIP3    H158886   2.097   1.942  15.294
 2806TIP3    H258887   2.137   1.877  15.424
 2807TIP3   OH258888   3.115   1.729  15.260
 2807TIP3    H158889   3.029   1.754  15.227
 2807TIP3    H258890   3.165   1.812  15.251
 2808TIP3   OH258891   3.371   1.880  15.281
 2808TIP3    H158892   3.369   1.977  15.264
 2808TIP3    H258893   3.399   1.845  15.196
 2809TIP3   OH258894   2.109   1.752  15.027
 2809TIP3    H158895   2.108   1.714  15.117
 2809TIP3    H258896   2.194   1.724  14.992
 2810TIP3   OH258897   3.420   0.050  14.848
 2810TIP3    H158898   3.498   0.110  14.846
 2810TIP3    H258899   3.348   0.100  14.882
 2811TIP3   OH258900   3.616   0.174  14.731
 2811TIP3    H158901   3.676   0.112  14.688
 2811TIP3    H258902   3.662   0.260  14.741
 2812TIP3   OH258903   2.158   0.149  14.690
 2812TIP3    H158904   2.087   0.112  14.637
 2812TIP3    H258905   2.213   0.068  14.695
 2813TIP3   OH258906   2.614   0.103  14.660
 2813TIP3    H158907   2.706   0.131  14.654
 2813TIP3    H258908   2.614   0.075  14.752
 2814TIP3   OH258909   3.280   0.099  14.351
 2814TIP3    H158910   3.234   0.178  14.387
 2814TIP3    H258911   3.284   0.033  14.425
 2815TIP3   OH258912   3.578   1.762  14.461
 2815TIP3    H158913   3.592   1.688  14.402
 2815TIP3    H258914   3.589   1.838  14.398
 2816TIP3   OH258915   2.156   0.161  15.623
 2816TIP3    H158916   2.122   0.083  15.667
 2816TIP3    H258917   2.247   0.160  15.661
 2817TIP3   OH258918   2.358   0.094  15.786
 2817TIP3    H158919   2.448   0.067  15.760
 2817TIP3    H258920   2.321   0.016  15.827
 2818TIP3   OH258921   3.200   0.031  15.809
 2818TIP3    H158922   3.209  -0.026  15.886
 2818TIP3    H258923   3.286   0.020  15.765
 2819TIP3   OH258924   3.516   1.629  15.672
 2819TIP3    H158925   3.437   1.618  15.615
 2819TIP3    H258926   3.506   1.726  15.688
 2820TIP3   OH258927   4.082   0.914  15.172
 2820TIP3    H158928   4.090   0.844  15.241
 2820TIP3    H258929   4.156   0.969  15.195
 2821TIP3   OH258930   5.215   1.240  14.843
 2821TIP3    H158931   5.174   1.170  14.894
 2821TIP3    H258932   5.219   1.311  14.911
 2822TIP3   OH258933   4.175   1.351  15.027
 2822TIP3    H158934   4.144   1.268  14.989
 2822TIP3    H258935   4.272   1.338  15.028
 2823TIP3   OH258936   3.840   0.713  14.569
 2823TIP3    H158937   3.796   0.800  14.566
 2823TIP3    H258938   3.782   0.661  14.513
 2824TIP3   OH258939   3.907   0.936  14.784
 2824TIP3    H158940   3.934   0.854  14.831
 2824TIP3    H258941   3.980   0.944  14.721
 2825TIP3   OH258942   4.922   1.755  14.867
 2825TIP3    H158943   4.990   1.688  14.839
 2825TIP3    H258944   4.906   1.724  14.956
 2826TIP3   OH258945   5.548   0.347  15.139
 2826TIP3    H158946   5.558   0.408  15.213
 2826TIP3    H258947   5.600   0.391  15.070
 2827TIP3   OH258948   3.976   0.681  14.891
 2827TIP3    H158949   4.041   0.625  14.938
 2827TIP3    H258950   3.986   0.653  14.799
 2828TIP3   OH258951   4.491   0.838  14.820
 2828TIP3    H158952   4.558   0.781  14.862
 2828TIP3    H258953   4.437   0.771  14.772
 2829TIP3   OH258954   4.939   1.280  14.573
 2829TIP3    H158955   4.896   1.247  14.494
 2829TIP3    H258956   4.900   1.369  14.584
 2830TIP3   OH258957   4.455   1.094  15.241
 2830TIP3    H158958   4.383   1.158  15.265
 2830TIP3    H258959   4.525   1.157  15.222
 2831TIP3   OH258960   5.265   0.382  14.852
 2831TIP3    H158961   5.242   0.304  14.905
 2831TIP3    H258962   5.331   0.427  14.904
 2832TIP3   OH258963   4.157   0.520  15.012
 2832TIP3    H158964   4.219   0.581  15.057
 2832TIP3    H258965   4.211   0.472  14.951
 2833TIP3   OH258966   4.300   1.295  15.328
 2833TIP3    H158967   4.295   1.383  15.288
 2833TIP3    H258968   4.210   1.289  15.369
 2834TIP3   OH258969   3.895   1.261  14.404
 2834TIP3    H158970   3.888   1.291  14.312
 2834TIP3    H258971   3.916   1.342  14.455
 2835TIP3   OH258972   5.271   1.424  15.080
 2835TIP3    H158973   5.174   1.437  15.090
 2835TIP3    H258974   5.297   1.516  15.061
 2836TIP3   OH258975   5.302   0.253  15.226
 2836TIP3    H158976   5.227   0.313  15.214
 2836TIP3    H258977   5.371   0.295  15.172
 2837TIP3   OH258978   5.095   1.604  14.743
 2837TIP3    H158979   5.137   1.532  14.691
 2837TIP3    H258980   5.136   1.681  14.700
 2838TIP3   OH258981   5.219   1.394  14.592
 2838TIP3    H158982   5.185   1.327  14.531
 2838TIP3    H258983   5.219   1.346  14.677
 2839TIP3   OH258984   5.374   1.253  15.436
 2839TIP3    H158985   5.396   1.191  15.366
 2839TIP3    H258986   5.401   1.339  15.399
 2840TIP3   OH258987   4.829   0.946  14.415
 2840TIP3    H158988   4.757   1.002  14.381
 2840TIP3    H258989   4.896   0.952  14.348
 2841TIP3   OH258990   4.331   1.031  14.702
 2841TIP3    H158991   4.302   0.994  14.616
 2841TIP3    H258992   4.393   0.962  14.735
 2842TIP3   OH258993   4.463   1.366  14.973
 2842TIP3    H158994   4.463   1.320  14.889
 2842TIP3    H258995   4.545   1.337  15.015
 2843TIP3   OH258996   4.369   0.903  15.067
 2843TIP3    H158997   4.424   0.918  14.988
 2843TIP3    H258998   4.403   0.971  15.130
 2844TIP3   OH258999   5.008   1.457  15.143
 2844TIP3    H159000   4.974   1.525  15.202
 2844TIP3    H259001   4.976   1.374  15.181
 2845TIP3   OH259002   4.458   1.341  15.540
 2845TIP3    H159003   4.428   1.422  15.583
 2845TIP3    H259004   4.396   1.329  15.465
 2846TIP3   OH259005   4.153   0.963  15.457
 2846TIP3    H159006   4.156   1.031  15.526
 2846TIP3    H259007   4.060   0.972  15.431
 2847TIP3   OH259008   4.830   1.555  14.628
 2847TIP3    H159009   4.875   1.587  14.707
 2847TIP3    H259010   4.773   1.628  14.602
 2848TIP3   OH259011   5.428   0.060  14.271
 2848TIP3    H159012   5.334   0.072  14.294
 2848TIP3    H259013   5.450   0.138  14.221
 2849TIP3   OH259014   4.231   0.938  14.462
 2849TIP3    H159015   4.200   1.012  14.407
 2849TIP3    H259016   4.165   0.871  14.445
 2850TIP3   OH259017   5.543   1.496  14.102
 2850TIP3    H159018   5.555   1.592  14.116
 2850TIP3    H259019   5.634   1.463  14.097
 2851TIP3   OH259020   3.840   1.174  15.350
 2851TIP3    H159021   3.793   1.167  15.265
 2851TIP3    H259022   3.843   1.080  15.374
 2852TIP3   OH259023   3.815   1.449  15.033
 2852TIP3    H159024   3.912   1.440  15.031
 2852TIP3    H259025   3.805   1.531  15.084
 2853TIP3   OH259026   5.641   1.518  15.597
 2853TIP3    H159027   5.627   1.421  15.598
 2853TIP3    H259028   5.555   1.544  15.638
 2854TIP3   OH259029   4.780   1.847  14.465
 2854TIP3    H159030   4.770   1.842  14.368
 2854TIP3    H259031   4.779   1.943  14.482
 2855TIP3   OH259032   5.081   1.770  14.163
 2855TIP3    H159033   5.124   1.693  14.119
 2855TIP3    H259034   5.087   1.743  14.256
 2856TIP3   OH259035   5.054   1.763  14.442
 2856TIP3    H159036   4.958   1.769  14.459
 2856TIP3    H259037   5.077   1.688  14.498
 2857TIP3   OH259038   4.067   1.303  15.445
 2857TIP3    H159039   4.088   1.268  15.534
 2857TIP3    H259040   3.978   1.268  15.426
 2858TIP3   OH259041   4.343   0.651  15.164
 2858TIP3    H159042   4.271   0.646  15.230
 2858TIP3    H259043   4.338   0.744  15.131
 2859TIP3   OH259044   4.343   0.664  14.653
 2859TIP3    H159045   4.249   0.639  14.643
 2859TIP3    H259046   4.381   0.630  14.569
 2860TIP3   OH259047   4.793   0.733  15.683
 2860TIP3    H159048   4.746   0.653  15.709
 2860TIP3    H259049   4.882   0.719  15.720
 2861TIP3   OH259050   4.107   0.680  15.337
 2861TIP3    H159051   4.114   0.717  15.426
 2861TIP3    H259052   4.066   0.594  15.353
 2862TIP3   OH259053   3.772   0.386  14.729
 2862TIP3    H159054   3.836   0.391  14.801
 2862TIP3    H259055   3.819   0.351  14.654
 2863TIP3   OH259056   4.075   0.569  14.644
 2863TIP3    H159057   3.990   0.591  14.599
 2863TIP3    H259058   4.108   0.493  14.597
 2864TIP3   OH259059   4.442   0.582  14.407
 2864TIP3    H159060   4.538   0.589  14.421
 2864TIP3    H259061   4.421   0.644  14.338
 2865TIP3   OH259062   5.039   0.336  15.079
 2865TIP3    H159063   4.971   0.351  15.147
 2865TIP3    H259064   4.990   0.318  14.999
 2866TIP3   OH259065   5.358   1.907  15.714
 2866TIP3    H159066   5.386   1.944  15.628
 2866TIP3    H259067   5.430   1.937  15.772
 2867TIP3   OH259068   4.127   1.164  15.666
 2867TIP3    H159069   4.198   1.177  15.730
 2867TIP3    H259070   4.047   1.167  15.725
 2868TIP3   OH259071   4.722   0.689  14.944
 2868TIP3    H159072   4.785   0.638  14.890
 2868TIP3    H259073   4.711   0.637  15.025
 2869TIP3   OH259074   4.594   0.535  15.184
 2869TIP3    H159075   4.505   0.574  15.197
 2869TIP3    H259076   4.639   0.557  15.266
 2870TIP3   OH259077   4.646   1.152  14.356
 2870TIP3    H159078   4.570   1.101  14.322
 2870TIP3    H259079   4.627   1.161  14.451
 2871TIP3   OH259080   4.159   1.089  14.933
 2871TIP3    H159081   4.230   1.079  14.866
 2871TIP3    H259082   4.161   1.003  14.978
 2872TIP3   OH259083   3.861   0.928  15.458
 2872TIP3    H159084   3.876   0.887  15.545
 2872TIP3    H259085   3.796   0.868  15.417
 2873TIP3   OH259086   4.560   0.877  15.682
 2873TIP3    H159087   4.527   0.858  15.593
 2873TIP3    H259088   4.656   0.855  15.675
 2874TIP3   OH259089   5.598   1.236  15.592
 2874TIP3    H159090   5.506   1.238  15.559
 2874TIP3    H259091   5.651   1.219  15.513
 2875TIP3   OH259092   5.426   1.522  14.352
 2875TIP3    H159093   5.386   1.442  14.388
 2875TIP3    H259094   5.454   1.498  14.262
 2876TIP3   OH259095   4.397   1.431  14.666
 2876TIP3    H159096   4.448   1.513  14.655
 2876TIP3    H259097   4.308   1.458  14.641
 2877TIP3   OH259098   3.970   0.935  14.109
 2877TIP3    H159099   4.032   0.978  14.172
 2877TIP3    H259100   3.888   0.940  14.164
 2878TIP3   OH259101   4.540   1.200  14.628
 2878TIP3    H159102   4.509   1.293  14.637
 2878TIP3    H259103   4.465   1.153  14.668
 2879TIP3   OH259104   4.587   1.616  15.261
 2879TIP3    H159105   4.625   1.702  15.238
 2879TIP3    H259106   4.640   1.589  15.336
 2880TIP3   OH259107   5.213   1.678  15.476
 2880TIP3    H159108   5.147   1.629  15.426
 2880TIP3    H259109   5.236   1.748  15.411
 2881TIP3   OH259110   5.618   1.763  14.165
 2881TIP3    H159111   5.683   1.828  14.139
 2881TIP3    H259112   5.542   1.821  14.191
 2882TIP3   OH259113   4.021   0.404  15.416
 2882TIP3    H159114   3.931   0.439  15.410
 2882TIP3    H259115   4.009   0.319  15.460
 2883TIP3   OH259116   3.978   1.574  15.259
 2883TIP3    H159117   4.016   1.486  15.257
 2883TIP3    H259118   4.006   1.605  15.347
 2884TIP3   OH259119   4.456   1.387  14.230
 2884TIP3    H159120   4.488   1.334  14.304
 2884TIP3    H259121   4.467   1.478  14.260
 2885TIP3   OH259122   4.110   1.113  14.278
 2885TIP3    H159123   4.041   1.152  14.335
 2885TIP3    H259124   4.167   1.187  14.256
 2886TIP3   OH259125   4.894   0.379  15.310
 2886TIP3    H159126   4.964   0.386  15.377
 2886TIP3    H259127   4.858   0.291  15.326
 2887TIP3   OH259128   4.976   0.338  14.420
 2887TIP3    H159129   4.992   0.389  14.340
 2887TIP3    H259130   5.029   0.381  14.487
 2888TIP3   OH259131   4.736   1.552  14.299
 2888TIP3    H159132   4.660   1.609  14.310
 2888TIP3    H259133   4.796   1.604  14.244
 2889TIP3   OH259134   4.792   0.216  14.600
 2889TIP3    H159135   4.746   0.284  14.652
 2889TIP3    H259136   4.846   0.274  14.544
 2890TIP3   OH259137   4.005   0.645  14.069
 2890TIP3    H159138   3.998   0.732  14.107
 2890TIP3    H259139   3.915   0.614  14.061
 2891TIP3   OH259140   5.333   1.705  15.074
 2891TIP3    H159141   5.324   1.774  15.005
 2891TIP3    H259142   5.429   1.711  15.092
 2892TIP3   OH259143   5.244   1.600  14.024
 2892TIP3    H159144   5.267   1.516  14.066
 2892TIP3    H259145   5.316   1.619  13.963
 2893TIP3   OH259146   3.896   1.155  15.794
 2893TIP3    H159147   3.906   1.063  15.764
 2893TIP3    H259148   3.819   1.182  15.740
 2894TIP3   OH259149   4.562   1.152  15.740
 2894TIP3    H159150   4.531   1.183  15.652
 2894TIP3    H259151   4.575   1.056  15.724
 2895TIP3   OH259152   5.131   1.140  15.460
 2895TIP3    H159153   5.213   1.194  15.468
 2895TIP3    H259154   5.064   1.203  15.485
 2896TIP3   OH259155   3.987   0.880  15.736
 2896TIP3    H159156   4.020   0.790  15.723
 2896TIP3    H259157   3.957   0.877  15.829
 2897TIP3   OH259158   4.439   0.986  14.235
 2897TIP3    H159159   4.400   0.935  14.309
 2897TIP3    H259160   4.479   0.919  14.180
 2898TIP3   OH259161   4.380   0.777  15.473
 2898TIP3    H159162   4.312   0.842  15.498
 2898TIP3    H259163   4.406   0.808  15.386
 2899TIP3   OH259164   3.891   1.331  14.116
 2899TIP3    H159165   3.984   1.354  14.137
 2899TIP3    H259166   3.908   1.282  14.036
 2900TIP3   OH259167   3.854   1.688  14.801
 2900TIP3    H159168   3.816   1.602  14.820
 2900TIP3    H259169   3.873   1.725  14.887
 2901TIP3   OH259170   5.604   1.770  15.094
 2901TIP3    H159171   5.609   1.786  15.190
 2901TIP3    H259172   5.676   1.827  15.063
 2902TIP3   OH259173   5.567   1.729  15.389
 2902TIP3    H159174   5.517   1.654  15.351
 2902TIP3    H259175   5.615   1.683  15.460
 2903TIP3   OH259176   5.412   1.302  15.856
 2903TIP3    H159177   5.323   1.295  15.889
 2903TIP3    H259178   5.447   1.382  15.899
 2904TIP3   OH259179   5.553   1.214  15.083
 2904TIP3    H159180   5.637   1.176  15.053
 2904TIP3    H259181   5.567   1.309  15.068
 2905TIP3   OH259182   5.408   1.504  15.314
 2905TIP3    H159183   5.339   1.535  15.374
 2905TIP3    H259184   5.355   1.463  15.243
 2906TIP3   OH259185   3.859   1.000  15.050
 2906TIP3    H159186   3.876   0.989  14.954
 2906TIP3    H259187   3.947   0.980  15.085
 2907TIP3   OH259188   5.607   0.094  15.840
 2907TIP3    H159189   5.647   0.020  15.788
 2907TIP3    H259190   5.635   0.169  15.788
 2908TIP3   OH259191   5.390   0.272  14.491
 2908TIP3    H159192   5.408   0.228  14.577
 2908TIP3    H259193   5.326   0.210  14.451
 2909TIP3   OH259194   3.764   0.660  15.052
 2909TIP3    H159195   3.823   0.632  14.980
 2909TIP3    H259196   3.814   0.737  15.083
 2910TIP3   OH259197   5.279   1.778  14.656
 2910TIP3    H159198   5.347   1.748  14.593
 2910TIP3    H259199   5.331   1.828  14.721
 2911TIP3   OH259200   4.746   1.711  15.623
 2911TIP3    H159201   4.757   1.679  15.715
 2911TIP3    H259202   4.834   1.744  15.600
 2912TIP3   OH259203   4.975   1.840  15.556
 2912TIP3    H159204   5.047   1.780  15.533
 2912TIP3    H259205   5.011   1.883  15.637
 2913TIP3   OH259206   5.472   0.110  15.463
 2913TIP3    H159207   5.385   0.133  15.427
 2913TIP3    H259208   5.489   0.024  15.428
 2914TIP3   OH259209   4.775   1.843  15.159
 2914TIP3    H159210   4.728   1.897  15.095
 2914TIP3    H259211   4.786   1.905  15.234
 2915TIP3   OH259212   5.007   1.726  15.255
 2915TIP3    H159213   4.917   1.751  15.226
 2915TIP3    H259214   5.050   1.812  15.251
 2916TIP3   OH259215   5.260   1.881  15.284
 2916TIP3    H159216   5.254   1.977  15.261
 2916TIP3    H259217   5.282   1.844  15.196
 2917TIP3   OH259218   5.313   0.052  14.866
 2917TIP3    H159219   5.385   0.114  14.842
 2917TIP3    H259220   5.230   0.100  14.873
 2918TIP3   OH259221   5.503   0.172  14.735
 2918TIP3    H159222   5.563   0.114  14.686
 2918TIP3    H259223   5.549   0.258  14.740
 2919TIP3   OH259224   5.057   0.101  14.823
 2919TIP3    H159225   5.068   0.108  14.728
 2919TIP3    H259226   5.036   0.008  14.836
 2920TIP3   OH259227   5.187   0.115  14.368
 2920TIP3    H159228   5.110   0.170  14.374
 2920TIP3    H259229   5.161   0.029  14.409
 2921TIP3   OH259230   3.909   1.670  14.354
 2921TIP3    H159231   3.847   1.678  14.283
 2921TIP3    H259232   3.923   1.763  14.379
 2922TIP3   OH259233   4.805   1.801  14.190
 2922TIP3    H159234   4.897   1.831  14.171
 2922TIP3    H259235   4.783   1.758  14.107
 2923TIP3   OH259236   5.477   1.759  14.460
 2923TIP3    H159237   5.458   1.681  14.403
 2923TIP3    H259238   5.472   1.832  14.395
 2924TIP3   OH259239   5.086   0.032  15.805
 2924TIP3    H159240   5.092  -0.024  15.882
 2924TIP3    H259241   5.175   0.024  15.767
 2925TIP3   OH259242   5.405   1.635  15.666
 2925TIP3    H159243   5.322   1.616  15.617
 2925TIP3    H259244   5.391   1.729  15.689
 2926TIP3   OH259245   6.859   1.022  14.661
 2926TIP3    H159246   6.852   1.120  14.662
 2926TIP3    H259247   6.780   0.997  14.611
 2927TIP3   OH259248   5.976   0.910  15.169
 2927TIP3    H159249   5.976   0.843  15.241
 2927TIP3    H259250   6.041   0.974  15.199
 2928TIP3   OH259251   7.097   1.242  14.843
 2928TIP3    H159252   7.064   1.169  14.897
 2928TIP3    H259253   7.104   1.310  14.912
 2929TIP3   OH259254   6.065   1.357  15.024
 2929TIP3    H159255   6.028   1.272  14.992
 2929TIP3    H259256   6.157   1.335  15.032
 2930TIP3   OH259257   7.421   0.361  15.132
 2930TIP3    H159258   7.446   0.403  15.218
 2930TIP3    H259259   7.501   0.375  15.080
 2931TIP3   OH259260   6.893   0.633  15.093
 2931TIP3    H159261   6.900   0.536  15.095
 2931TIP3    H259262   6.874   0.645  14.998
 2932TIP3   OH259263   6.082   0.477  14.816
 2932TIP3    H159264   6.163   0.532  14.818
 2932TIP3    H259265   6.122   0.402  14.765
 2933TIP3   OH259266   6.974   0.448  14.652
 2933TIP3    H159267   7.035   0.414  14.721
 2933TIP3    H259268   7.029   0.504  14.598
 2934TIP3   OH259269   7.479   0.495  15.362
 2934TIP3    H159270   7.410   0.565  15.355
 2934TIP3    H259271   7.474   0.478  15.458
 2935TIP3   OH259272   6.075   0.348  15.230
 2935TIP3    H159273   6.048   0.395  15.149
 2935TIP3    H259274   6.006   0.361  15.295
 2936TIP3   OH259275   6.816   1.278  14.578
 2936TIP3    H159276   6.788   1.251  14.491
 2936TIP3    H259277   6.792   1.372  14.582
 2937TIP3   OH259278   7.156   0.382  14.851
 2937TIP3    H159279   7.127   0.306  14.903
 2937TIP3    H259280   7.213   0.428  14.912
 2938TIP3   OH259281   6.034   0.522  15.051
 2938TIP3    H159282   6.104   0.588  15.064
 2938TIP3    H259283   6.069   0.483  14.968
 2939TIP3   OH259284   5.800   1.258  14.405
 2939TIP3    H159285   5.764   1.285  14.319
 2939TIP3    H259286   5.796   1.341  14.457
 2940TIP3   OH259287   7.157   1.424  15.083
 2940TIP3    H159288   7.061   1.436  15.091
 2940TIP3    H259289   7.183   1.515  15.061
 2941TIP3   OH259290   7.187   0.250  15.222
 2941TIP3    H159291   7.113   0.313  15.214
 2941TIP3    H259292   7.257   0.293  15.171
 2942TIP3   OH259293   6.517   0.034  14.996
 2942TIP3    H159294   6.482  -0.047  14.959
 2942TIP3    H259295   6.435   0.086  15.013
 2943TIP3   OH259296   6.972   1.607  14.731
 2943TIP3    H159297   7.024   1.530  14.698
 2943TIP3    H259298   7.026   1.682  14.705
 2944TIP3   OH259299   7.102   1.398  14.592
 2944TIP3    H159300   7.075   1.325  14.535
 2944TIP3    H259301   7.107   1.348  14.676
 2945TIP3   OH259302   7.267   1.252  15.438
 2945TIP3    H159303   7.277   1.186  15.367
 2945TIP3    H259304   7.287   1.336  15.395
 2946TIP3   OH259305   7.445   0.881  15.244
 2946TIP3    H159306   7.383   0.957  15.253
 2946TIP3    H259307   7.498   0.911  15.169
 2947TIP3   OH259308   7.053   0.946  14.505
 2947TIP3    H159309   6.988   0.991  14.566
 2947TIP3    H259310   7.106   0.903  14.574
 2948TIP3   OH259311   7.047   0.782  15.422
 2948TIP3    H159312   7.052   0.862  15.477
 2948TIP3    H259313   6.983   0.813  15.355
 2949TIP3   OH259314   6.976   0.867  14.272
 2949TIP3    H159315   6.987   0.914  14.359
 2949TIP3    H259316   6.972   0.943  14.211
 2950TIP3   OH259317   7.317   0.060  14.271
 2950TIP3    H159318   7.221   0.069  14.294
 2950TIP3    H259319   7.336   0.141  14.224
 2951TIP3   OH259320   7.421   1.501  14.091
 2951TIP3    H159321   7.440   1.592  14.119
 2951TIP3    H259322   7.509   1.461  14.106
 2952TIP3   OH259323   5.723   1.177  15.348
 2952TIP3    H159324   5.678   1.168  15.264
 2952TIP3    H259325   5.733   1.083  15.374
 2953TIP3   OH259326   5.703   1.448  15.028
 2953TIP3    H159327   5.798   1.438  15.029
 2953TIP3    H259328   5.691   1.529  15.080
 2954TIP3   OH259329   7.524   1.518  15.595
 2954TIP3    H159330   7.513   1.421  15.599
 2954TIP3    H259331   7.441   1.546  15.639
 2955TIP3   OH259332   6.689   1.861  14.456
 2955TIP3    H159333   6.641   1.834  14.375
 2955TIP3    H259334   6.637   1.940  14.484
 2956TIP3   OH259335   6.026   1.738  14.653
 2956TIP3    H159336   6.044   1.691  14.737
 2956TIP3    H259337   5.944   1.694  14.625
 2957TIP3   OH259338   6.976   1.772  14.168
 2957TIP3    H159339   7.006   1.694  14.119
 2957TIP3    H259340   6.969   1.734  14.255
 2958TIP3   OH259341   6.934   1.767  14.452
 2958TIP3    H159342   6.837   1.746  14.456
 2958TIP3    H259343   6.967   1.685  14.495
 2959TIP3   OH259344   7.238   0.666  15.648
 2959TIP3    H159345   7.193   0.714  15.576
 2959TIP3    H259346   7.239   0.574  15.615
 2960TIP3   OH259347   6.099   0.142  15.111
 2960TIP3    H159348   6.113   0.141  15.015
 2960TIP3    H259349   6.173   0.198  15.142
 2961TIP3   OH259350   6.723   0.125  15.358
 2961TIP3    H159351   6.739   0.081  15.445
 2961TIP3    H259352   6.627   0.123  15.372
 2962TIP3   OH259353   7.010   0.500  15.466
 2962TIP3    H159354   6.957   0.486  15.548
 2962TIP3    H259355   6.997   0.594  15.444
 2963TIP3   OH259356   6.689   0.420  14.108
 2963TIP3    H159357   6.640   0.413  14.193
 2963TIP3    H259358   6.666   0.337  14.063
 2964TIP3   OH259359   6.229   0.654  15.161
 2964TIP3    H159360   6.158   0.646  15.229
 2964TIP3    H259361   6.224   0.746  15.133
 2965TIP3   OH259362   6.784   0.721  14.533
 2965TIP3    H159363   6.730   0.791  14.495
 2965TIP3    H259364   6.843   0.698  14.461
 2966TIP3   OH259365   6.892   0.664  14.810
 2966TIP3    H159366   6.851   0.718  14.740
 2966TIP3    H259367   6.888   0.575  14.770
 2967TIP3   OH259368   5.996   0.679  15.340
 2967TIP3    H159369   5.994   0.717  15.429
 2967TIP3    H259370   5.951   0.593  15.353
 2968TIP3   OH259371   5.658   0.389  14.729
 2968TIP3    H159372   5.723   0.390  14.801
 2968TIP3    H259373   5.705   0.352  14.652
 2969TIP3   OH259374   6.806   0.822  15.276
 2969TIP3    H159375   6.833   0.755  15.210
 2969TIP3    H259376   6.753   0.769  15.337
 2970TIP3   OH259377   5.964   0.587  14.621
 2970TIP3    H159378   5.870   0.583  14.602
 2970TIP3    H259379   5.992   0.495  14.604
 2971TIP3   OH259380   6.328   0.575  14.398
 2971TIP3    H159381   6.421   0.591  14.425
 2971TIP3    H259382   6.308   0.649  14.339
 2972TIP3   OH259383   6.924   0.342  15.075
 2972TIP3    H159384   6.856   0.345  15.146
 2972TIP3    H259385   6.873   0.315  14.998
 2973TIP3   OH259386   7.245   1.904  15.713
 2973TIP3    H159387   7.271   1.946  15.629
 2973TIP3    H259388   7.314   1.940  15.770
 2974TIP3   OH259389   6.080   0.324  14.571
 2974TIP3    H159390   6.070   0.229  14.579
 2974TIP3    H259391   6.172   0.323  14.539
 2975TIP3   OH259392   6.479   0.533  15.182
 2975TIP3    H159393   6.392   0.575  15.196
 2975TIP3    H259394   6.532   0.562  15.259
 2976TIP3   OH259395   7.250   1.069  15.233
 2976TIP3    H159396   7.308   1.117  15.173
 2976TIP3    H259397   7.164   1.076  15.186
 2977TIP3   OH259398   6.930   0.429  14.172
 2977TIP3    H159399   6.833   0.442  14.157
 2977TIP3    H259400   6.946   0.519  14.202
 2978TIP3   OH259401   6.986   0.622  14.344
 2978TIP3    H159402   7.067   0.581  14.379
 2978TIP3    H259403   6.984   0.700  14.281
 2979TIP3   OH259404   6.045   1.086  14.935
 2979TIP3    H159405   6.112   1.080  14.866
 2979TIP3    H259406   6.049   0.999  14.977
 2980TIP3   OH259407   5.742   0.930  15.460
 2980TIP3    H159408   5.765   0.891  15.546
 2980TIP3    H259409   5.680   0.866  15.423
 2981TIP3   OH259410   7.444   0.648  14.317
 2981TIP3    H159411   7.443   0.597  14.234
 2981TIP3    H259412   7.500   0.725  14.285
 2982TIP3   OH259413   7.477   1.224  15.598
 2982TIP3    H159414   7.391   1.242  15.554
 2982TIP3    H259415   7.533   1.219  15.517
 2983TIP3   OH259416   7.309   1.522  14.353
 2983TIP3    H159417   7.276   1.437  14.386
 2983TIP3    H259418   7.340   1.498  14.264
 2984TIP3   OH259419   7.028   1.004  15.061
 2984TIP3    H159420   6.935   0.979  15.057
 2984TIP3    H259421   7.071   0.925  15.022
 2985TIP3   OH259422   5.851   0.917  14.135
 2985TIP3    H159423   5.914   0.982  14.166
 2985TIP3    H259424   5.765   0.954  14.157
 2986TIP3   OH259425   6.293   1.701  14.584
 2986TIP3    H159426   6.196   1.712  14.592
 2986TIP3    H259427   6.323   1.786  14.619
 2987TIP3   OH259428   7.100   1.675  15.475
 2987TIP3    H159429   7.032   1.629  15.425
 2987TIP3    H259430   7.121   1.749  15.412
 2988TIP3   OH259431   7.499   1.764  14.164
 2988TIP3    H159432   7.569   1.826  14.139
 2988TIP3    H259433   7.428   1.826  14.187
 2989TIP3   OH259434   5.905   0.402  15.421
 2989TIP3    H159435   5.814   0.432  15.416
 2989TIP3    H259436   5.895   0.313  15.461
 2990TIP3   OH259437   5.871   1.583  15.259
 2990TIP3    H159438   5.894   1.489  15.261
 2990TIP3    H259439   5.897   1.611  15.348
 2991TIP3   OH259440   6.779   0.385  15.317
 2991TIP3    H159441   6.855   0.384  15.377
 2991TIP3    H259442   6.747   0.293  15.322
 2992TIP3   OH259443   6.863   0.336  14.421
 2992TIP3    H159444   6.880   0.386  14.340
 2992TIP3    H259445   6.912   0.382  14.490
 2993TIP3   OH259446   6.570   0.537  14.510
 2993TIP3    H159447   6.660   0.571  14.512
 2993TIP3    H259448   6.549   0.507  14.598
 2994TIP3   OH259449   6.633   0.616  15.420
 2994TIP3    H159450   6.641   0.670  15.500
 2994TIP3    H259451   6.697   0.544  15.431
 2995TIP3   OH259452   6.681   0.220  14.603
 2995TIP3    H159453   6.639   0.286  14.657
 2995TIP3    H259454   6.734   0.275  14.542
 2996TIP3   OH259455   6.212   0.385  14.270
 2996TIP3    H159456   6.231   0.463  14.324
 2996TIP3    H259457   6.288   0.330  14.294
 2997TIP3   OH259458   7.255   0.409  15.505
 2997TIP3    H159459   7.160   0.430  15.494
 2997TIP3    H259460   7.282   0.395  15.413
 2998TIP3   OH259461   7.113   0.779  14.901
 2998TIP3    H159462   7.027   0.738  14.883
 2998TIP3    H259463   7.155   0.714  14.959
 2999TIP3   OH259464   5.891   0.636  14.084
 2999TIP3    H159465   5.889   0.732  14.095
 2999TIP3    H259466   5.802   0.618  14.051
 3000TIP3   OH259467   7.220   1.705  15.074
 3000TIP3    H159468   7.210   1.774  15.006
 3000TIP3    H259469   7.316   1.711  15.093
 3001TIP3   OH259470   5.921   0.132  14.942
 3001TIP3    H159471   5.933   0.122  14.847
 3001TIP3    H259472   5.923   0.043  14.981
 3002TIP3   OH259473   5.860   1.513  14.571
 3002TIP3    H159474   5.776   1.559  14.564
 3002TIP3    H259475   5.914   1.556  14.502
 3003TIP3   OH259476   5.785   1.774  15.698
 3003TIP3    H159477   5.845   1.752  15.770
 3003TIP3    H259478   5.742   1.689  15.679
 3004TIP3   OH259479   5.866   0.872  15.732
 3004TIP3    H159480   5.909   0.786  15.727
 3004TIP3    H259481   5.843   0.877  15.827
 3005TIP3   OH259482   6.299   0.509  15.576
 3005TIP3    H159483   6.309   0.437  15.510
 3005TIP3    H259484   6.297   0.586  15.518
 3006TIP3   OH259485   6.299   0.393  15.316
 3006TIP3    H159486   6.376   0.391  15.255
 3006TIP3    H259487   6.232   0.336  15.269
 3007TIP3   OH259488   6.934   0.669  15.855
 3007TIP3    H159489   6.954   0.575  15.847
 3007TIP3    H259490   7.021   0.710  15.855
 3008TIP3   OH259491   6.145   0.633  15.769
 3008TIP3    H159492   6.067   0.578  15.748
 3008TIP3    H259493   6.211   0.595  15.707
 3009TIP3   OH259494   6.351   0.135  15.235
 3009TIP3    H159495   6.383   0.187  15.311
 3009TIP3    H259496   6.333   0.058  15.294
 3010TIP3   OH259497   6.812   0.432  15.636
 3010TIP3    H159498   6.719   0.441  15.657
 3010TIP3    H259499   6.845   0.377  15.709
 3011TIP3   OH259500   6.971   0.303  15.834
 3011TIP3    H159501   6.970   0.205  15.835
 3011TIP3    H259502   6.948   0.330  15.926
 3012TIP3   OH259503   5.911   0.449  15.724
 3012TIP3    H159504   5.957   0.378  15.676
 3012TIP3    H259505   5.924   0.414  15.814
 3013TIP3   OH259506   6.423  -0.008  15.760
 3013TIP3    H159507   6.492  -0.049  15.704
 3013TIP3    H259508   6.381   0.019  15.671
 3014TIP3   OH259509   6.498   0.209  15.858
 3014TIP3    H159510   6.465   0.140  15.794
 3014TIP3    H259511   6.426   0.274  15.850
 3015TIP3   OH259512   5.784   1.342  14.113
 3015TIP3    H159513   5.876   1.350  14.139
 3015TIP3    H259514   5.785   1.277  14.042
 3016TIP3   OH259515   5.656   1.878  14.613
 3016TIP3    H159516   5.585   1.830  14.566
 3016TIP3    H259517   5.684   1.813  14.680
 3017TIP3   OH259518   5.734   1.691  14.801
 3017TIP3    H159519   5.704   1.601  14.819
 3017TIP3    H259520   5.763   1.722  14.889
 3018TIP3   OH259521   7.489   1.773  15.095
 3018TIP3    H159522   7.492   1.788  15.191
 3018TIP3    H259523   7.564   1.827  15.066
 3019TIP3   OH259524   7.448   1.729  15.390
 3019TIP3    H159525   7.404   1.652  15.350
 3019TIP3    H259526   7.501   1.684  15.458
 3020TIP3   OH259527   7.426   1.131  14.400
 3020TIP3    H159528   7.509   1.178  14.419
 3020TIP3    H259529   7.426   1.064  14.470
 3021TIP3   OH259530   7.460   0.937  14.585
 3021TIP3    H159531   7.387   0.894  14.632
 3021TIP3    H259532   7.523   0.957  14.659
 3022TIP3   OH259533   7.440   1.211  15.086
 3022TIP3    H159534   7.521   1.173  15.050
 3022TIP3    H259535   7.449   1.308  15.070
 3023TIP3   OH259536   7.291   1.504  15.312
 3023TIP3    H159537   7.223   1.536  15.373
 3023TIP3    H259538   7.237   1.464  15.241
 3024TIP3   OH259539   7.433   0.919  14.236
 3024TIP3    H159540   7.428   0.967  14.154
 3024TIP3    H259541   7.482   0.987  14.292
 3025TIP3   OH259542   7.236   0.785  14.634
 3025TIP3    H159543   7.228   0.691  14.651
 3025TIP3    H259544   7.211   0.816  14.725
 3026TIP3   OH259545   5.752   1.019  15.048
 3026TIP3    H159546   5.766   0.991  14.957
 3026TIP3    H259547   5.832   0.982  15.091
 3027TIP3   OH259548   7.327   0.988  15.613
 3027TIP3    H159549   7.388   0.912  15.627
 3027TIP3    H259550   7.386   1.065  15.611
 3028TIP3   OH259551   7.478   0.774  15.674
 3028TIP3    H159552   7.389   0.736  15.662
 3028TIP3    H259553   7.538   0.699  15.671
 3029TIP3   OH259554   7.247   0.394  13.992
 3029TIP3    H159555   7.312   0.353  14.050
 3029TIP3    H259556   7.166   0.347  14.011
 3030TIP3   OH259557   7.218   0.548  14.482
 3030TIP3    H159558   7.235   0.452  14.505
 3030TIP3    H259559   7.311   0.572  14.466
 3031TIP3   OH259560   7.257   0.607  15.043
 3031TIP3    H159561   7.337   0.661  15.039
 3031TIP3    H259562   7.238   0.619  15.139
 3032TIP3   OH259563   7.276   0.678  15.307
 3032TIP3    H159564   7.190   0.707  15.345
 3032TIP3    H259565   7.324   0.764  15.294
 3033TIP3   OH259566   7.270   0.279  14.497
 3033TIP3    H159567   7.295   0.229  14.579
 3033TIP3    H259568   7.215   0.210  14.452
 3034TIP3   OH259569   5.819   0.363  14.952
 3034TIP3    H159570   5.870   0.281  14.974
 3034TIP3    H259571   5.878   0.431  14.988
 3035TIP3   OH259572   5.689   0.279  14.456
 3035TIP3    H159573   5.595   0.304  14.450
 3035TIP3    H259574   5.733   0.333  14.391
 3036TIP3   OH259575   7.166   1.793  14.646
 3036TIP3    H159576   7.230   1.731  14.604
 3036TIP3    H259577   7.212   1.816  14.731
 3037TIP3   OH259578   5.689   0.154  15.289
 3037TIP3    H159579   5.625   0.133  15.360
 3037TIP3    H259580   5.642   0.217  15.233
 3038TIP3   OH259581   5.907   1.470  15.710
 3038TIP3    H159582   5.824   1.486  15.663
 3038TIP3    H259583   5.880   1.466  15.801
 3039TIP3   OH259584   6.629   1.717  15.627
 3039TIP3    H159585   6.643   1.679  15.716
 3039TIP3    H259586   6.720   1.742  15.599
 3040TIP3   OH259587   6.861   1.839  15.555
 3040TIP3    H159588   6.934   1.780  15.532
 3040TIP3    H259589   6.896   1.882  15.635
 3041TIP3   OH259590   7.352   0.120  15.462
 3041TIP3    H159591   7.266   0.138  15.425
 3041TIP3    H259592   7.369   0.030  15.435
 3042TIP3   OH259593   5.940   1.891  15.336
 3042TIP3    H159594   5.868   1.941  15.294
 3042TIP3    H259595   5.905   1.874  15.424
 3043TIP3   OH259596   6.191   1.856  15.239
 3043TIP3    H159597   6.102   1.864  15.281
 3043TIP3    H259598   6.177   1.912  15.161
 3044TIP3   OH259599   6.661   1.844  15.157
 3044TIP3    H159600   6.612   1.898  15.096
 3044TIP3    H259601   6.675   1.903  15.234
 3045TIP3   OH259602   7.152   1.881  15.286
 3045TIP3    H159603   7.140   1.976  15.262
 3045TIP3    H259604   7.167   1.844  15.197
 3046TIP3   OH259605   5.882   1.757  15.028
 3046TIP3    H159606   5.878   1.714  15.116
 3046TIP3    H259607   5.966   1.724  14.989
 3047TIP3   OH259608   6.092   1.630  14.899
 3047TIP3    H159609   6.078   1.535  14.915
 3047TIP3    H259610   6.181   1.645  14.938
 3048TIP3   OH259611   6.349   1.676  14.980
 3048TIP3    H159612   6.373   1.588  14.951
 3048TIP3    H259613   6.358   1.674  15.076
 3049TIP3   OH259614   6.695   0.246  14.895
 3049TIP3    H159615   6.636   0.174  14.924
 3049TIP3    H259616   6.756   0.195  14.840
 3050TIP3   OH259617   7.199   0.048  14.851
 3050TIP3    H159618   7.270   0.115  14.841
 3050TIP3    H259619   7.118   0.095  14.876
 3051TIP3   OH259620   7.390   0.180  14.734
 3051TIP3    H159621   7.449   0.112  14.692
 3051TIP3    H259622   7.439   0.264  14.736
 3052TIP3   OH259623   5.883   0.085  14.692
 3052TIP3    H159624   5.839   0.086  14.608
 3052TIP3    H259625   5.964   0.038  14.670
 3053TIP3   OH259626   5.797   0.110  14.277
 3053TIP3    H159627   5.850   0.158  14.209
 3053TIP3    H259628   5.731   0.167  14.313
 3054TIP3   OH259629   6.477   0.071  14.695
 3054TIP3    H159630   6.496   0.159  14.660
 3054TIP3    H259631   6.394   0.086  14.743
 3055TIP3   OH259632   6.942   0.102  14.820
 3055TIP3    H159633   6.958   0.106  14.725
 3055TIP3    H259634   6.923   0.008  14.834
 3056TIP3   OH259635   7.070   0.108  14.362
 3056TIP3    H159636   6.996   0.168  14.379
 3056TIP3    H259637   7.045   0.028  14.411
 3057TIP3   OH259638   5.806   1.679  14.352
 3057TIP3    H159639   5.738   1.678  14.282
 3057TIP3    H259640   5.807   1.772  14.374
 3058TIP3   OH259641   5.946   0.274  14.140
 3058TIP3    H159642   6.005   0.222  14.080
 3058TIP3    H259643   6.027   0.316  14.181
 3059TIP3   OH259644   6.560   0.340  14.362
 3059TIP3    H159645   6.535   0.259  14.413
 3059TIP3    H259646   6.503   0.405  14.407
 3060TIP3   OH259647   7.359   1.756  14.455
 3060TIP3    H159648   7.348   1.671  14.403
 3060TIP3    H259649   7.367   1.820  14.381
 3061TIP3   OH259650   5.896   0.176  15.606
 3061TIP3    H159651   5.878   0.094  15.661
 3061TIP3    H259652   5.985   0.174  15.644
 3062TIP3   OH259653   5.964   0.073  15.807
 3062TIP3    H159654   6.062   0.078  15.774
 3062TIP3    H259655   6.019   0.005  15.855
 3063TIP3   OH259656   6.974   0.033  15.807
 3063TIP3    H159657   6.980  -0.026  15.883
 3063TIP3    H259658   7.061   0.021  15.767
 3064TIP3   OH259659   7.287   1.633  15.670
 3064TIP3    H159660   7.207   1.621  15.614
 3064TIP3    H259661   7.280   1.729  15.690
 3065TIP3   OH259662   7.861   0.871  15.164
 3065TIP3    H159663   7.864   0.827  15.251
 3065TIP3    H259664   7.919   0.946  15.187
 3066TIP3   OH259665   8.079   1.383  14.905
 3066TIP3    H159666   7.987   1.350  14.923
 3066TIP3    H259667   8.089   1.361  15.001
 3067TIP3   OH259668   7.602   0.709  14.570
 3067TIP3    H159669   7.572   0.803  14.562
 3067TIP3    H259670   7.556   0.659  14.504
 3068TIP3   OH259671   7.668   0.931  14.786
 3068TIP3    H159672   7.705   0.853  14.832
 3068TIP3    H259673   7.746   0.948  14.726
 3069TIP3   OH259674   8.040   0.462  14.836
 3069TIP3    H159675   8.088   0.531  14.785
 3069TIP3    H259676   8.040   0.393  14.770
 3070TIP3   OH259677   7.742   0.678  14.889
 3070TIP3    H159678   7.816   0.630  14.934
 3070TIP3    H259679   7.760   0.652  14.796
 3071TIP3   OH259680   7.974   0.346  15.220
 3071TIP3    H159681   7.942   0.396  15.140
 3071TIP3    H259682   7.901   0.372  15.281
 3072TIP3   OH259683   7.917   0.523  15.042
 3072TIP3    H159684   7.990   0.588  15.055
 3072TIP3    H259685   7.965   0.483  14.964
 3073TIP3   OH259686   8.097   1.350  15.376
 3073TIP3    H159687   8.075   1.397  15.293
 3073TIP3    H259688   8.014   1.300  15.390
 3074TIP3   OH259689   7.680   1.260  14.403
 3074TIP3    H159690   7.638   1.288  14.322
 3074TIP3    H259691   7.681   1.343  14.454
 3075TIP3   OH259692   8.097   0.897  14.649
 3075TIP3    H159693   8.070   0.971  14.587
 3075TIP3    H259694   8.164   0.948  14.695
 3076TIP3   OH259695   7.855   0.947  15.453
 3076TIP3    H159696   7.895   1.008  15.518
 3076TIP3    H259697   7.780   1.001  15.427
 3077TIP3   OH259698   8.028   1.470  15.598
 3077TIP3    H159699   8.055   1.526  15.521
 3077TIP3    H259700   7.959   1.526  15.635
 3078TIP3   OH259701   7.968   0.924  14.450
 3078TIP3    H159702   7.953   1.008  14.403
 3078TIP3    H259703   7.906   0.857  14.429
 3079TIP3   OH259704   7.562   1.182  15.359
 3079TIP3    H159705   7.557   1.171  15.264
 3079TIP3    H259706   7.606   1.096  15.378
 3080TIP3   OH259707   7.558   1.459  15.045
 3080TIP3    H159708   7.653   1.441  15.036
 3080TIP3    H259709   7.565   1.544  15.088
 3081TIP3   OH259710   7.909   1.736  14.645
 3081TIP3    H159711   7.930   1.695  14.732
 3081TIP3    H259712   7.828   1.689  14.622
 3082TIP3   OH259713   7.820   1.312  15.488
 3082TIP3    H159714   7.857   1.253  15.557
 3082TIP3    H259715   7.754   1.261  15.438
 3083TIP3   OH259716   8.106   0.160  15.050
 3083TIP3    H159717   8.023   0.147  14.998
 3083TIP3    H259718   8.100   0.251  15.077
 3084TIP3   OH259719   8.108   0.656  15.230
 3084TIP3    H159720   8.014   0.644  15.246
 3084TIP3    H259721   8.099   0.717  15.154
 3085TIP3   OH259722   8.109   0.644  14.654
 3085TIP3    H159723   8.013   0.641  14.639
 3085TIP3    H259724   8.149   0.637  14.567
 3086TIP3   OH259725   7.872   0.676  15.338
 3086TIP3    H159726   7.882   0.720  15.425
 3086TIP3    H259727   7.835   0.590  15.359
 3087TIP3   OH259728   7.545   0.396  14.736
 3087TIP3    H159729   7.617   0.381  14.800
 3087TIP3    H259730   7.585   0.353  14.657
 3088TIP3   OH259731   7.842   0.571  14.649
 3088TIP3    H159732   7.761   0.590  14.598
 3088TIP3    H259733   7.880   0.492  14.606
 3089TIP3   OH259734   8.041   0.642  14.160
 3089TIP3    H159735   7.994   0.641  14.077
 3089TIP3    H259736   8.126   0.673  14.125
 3090TIP3   OH259737   7.876   1.150  15.672
 3090TIP3    H159738   7.955   1.171  15.722
 3090TIP3    H259739   7.806   1.170  15.738
 3091TIP3   OH259740   7.973   0.310  14.582
 3091TIP3    H159741   7.955   0.216  14.588
 3091TIP3    H259742   8.068   0.312  14.561
 3092TIP3   OH259743   7.907   1.029  14.940
 3092TIP3    H159744   7.981   1.065  14.886
 3092TIP3    H259745   7.950   0.962  14.992
 3093TIP3   OH259746   7.611   0.934  15.463
 3093TIP3    H159747   7.646   0.888  15.543
 3093TIP3    H259748   7.561   0.865  15.418
 3094TIP3   OH259749   7.681   0.945  14.238
 3094TIP3    H159750   7.769   0.961  14.199
 3094TIP3    H259751   7.640   0.925  14.154
 3095TIP3   OH259752   7.794   0.394  15.407
 3095TIP3    H159753   7.707   0.439  15.414
 3095TIP3    H259754   7.778   0.319  15.466
 3096TIP3   OH259755   7.735   1.595  15.279
 3096TIP3    H159756   7.774   1.505  15.269
 3096TIP3    H259757   7.784   1.617  15.359
 3097TIP3   OH259758   7.920   1.131  14.327
 3097TIP3    H159759   7.825   1.146  14.347
 3097TIP3    H259760   7.942   1.204  14.269
 3098TIP3   OH259761  -0.031   0.349  14.237
 3098TIP3    H159762  -0.041   0.428  14.290
 3098TIP3    H259763   0.051   0.303  14.264
 3099TIP3   OH259764   7.989   1.380  14.257
 3099TIP3    H159765   8.010   1.468  14.221
 3099TIP3    H259766   7.986   1.352  14.163
 3100TIP3   OH259767   7.767   0.603  14.101
 3100TIP3    H159768   7.777   0.696  14.120
 3100TIP3    H259769   7.688   0.601  14.047
 3101TIP3   OH259770   7.748   1.511  14.570
 3101TIP3    H159771   7.662   1.555  14.564
 3101TIP3    H259772   7.800   1.558  14.502
 3102TIP3   OH259773   7.682   1.768  15.689
 3102TIP3    H159774   7.731   1.753  15.772
 3102TIP3    H259775   7.627   1.689  15.680
 3103TIP3   OH259776   7.655   1.163  15.787
 3103TIP3    H159777   7.675   1.068  15.770
 3103TIP3    H259778   7.580   1.181  15.731
 3104TIP3   OH259779   7.722   0.875  15.745
 3104TIP3    H159780   7.781   0.801  15.721
 3104TIP3    H259781   7.719   0.876  15.841
 3105TIP3   OH259782   8.028   0.615  15.799
 3105TIP3    H159783   7.946   0.580  15.760
 3105TIP3    H259784   8.088   0.582  15.734
 3106TIP3   OH259785   7.580   1.309  14.150
 3106TIP3    H159786   7.673   1.331  14.181
 3106TIP3    H259787   7.624   1.279  14.069
 3107TIP3   OH259788   7.536   1.878  14.613
 3107TIP3    H159789   7.477   1.819  14.563
 3107TIP3    H259790   7.574   1.815  14.678
 3108TIP3   OH259791   7.621   1.695  14.799
 3108TIP3    H159792   7.590   1.605  14.819
 3108TIP3    H259793   7.651   1.724  14.887
 3109TIP3   OH259794   7.629   0.996  15.048
 3109TIP3    H159795   7.650   0.991  14.952
 3109TIP3    H259796   7.718   0.977  15.080
 3110TIP3   OH259797   7.705   0.359  14.956
 3110TIP3    H159798   7.758   0.279  14.969
 3110TIP3    H259799   7.769   0.427  14.985
 3111TIP3   OH259800   7.559   0.665  15.067
 3111TIP3    H159801   7.616   0.648  14.987
 3111TIP3    H259802   7.596   0.755  15.083
 3112TIP3   OH259803   7.578   0.288  14.465
 3112TIP3    H159804   7.484   0.298  14.447
 3112TIP3    H259805   7.620   0.328  14.389
 3113TIP3   OH259806   7.790   1.484  15.714
 3113TIP3    H159807   7.709   1.482  15.662
 3113TIP3    H259808   7.761   1.458  15.801
 3114TIP3   OH259809   8.087   1.595  15.339
 3114TIP3    H159810   8.052   1.672  15.295
 3114TIP3    H259811   8.178   1.586  15.303
 3115TIP3   OH259812   7.828   1.896  15.338
 3115TIP3    H159813   7.753   1.941  15.294
 3115TIP3    H259814   7.789   1.873  15.423
 3116TIP3   OH259815   8.058   1.831  15.224
 3116TIP3    H159816   7.984   1.864  15.280
 3116TIP3    H259817   8.071   1.905  15.162
 3117TIP3   OH259818   7.765   1.772  15.030
 3117TIP3    H159819   7.763   1.723  15.114
 3117TIP3    H259820   7.846   1.729  14.992
 3118TIP3   OH259821   7.995   1.641  14.879
 3118TIP3    H159822   7.965   1.554  14.912
 3118TIP3    H259823   8.068   1.652  14.941
 3119TIP3   OH259824   7.795   0.152  14.713
 3119TIP3    H159825   7.743   0.117  14.640
 3119TIP3    H259826   7.864   0.084  14.709
 3120TIP3   OH259827   7.689   1.679  14.354
 3120TIP3    H159828   7.622   1.677  14.284
 3120TIP3    H259829   7.694   1.774  14.371
 3121TIP3   OH259830   7.879   1.793  14.054
 3121TIP3    H159831   7.841   1.803  14.142
 3121TIP3    H259832   7.940   1.720  14.075
 3122TIP3   OH259833   1.188   2.905  14.667
 3122TIP3    H159834   1.189   3.003  14.661
 3122TIP3    H259835   1.118   2.881  14.604
 3123TIP3   OH259836   1.081   2.830  15.016
 3123TIP3    H159837   1.073   2.768  15.089
 3123TIP3    H259838   1.042   2.784  14.940
 3124TIP3   OH259839   1.439   3.126  14.847
 3124TIP3    H159840   1.403   3.051  14.895
 3124TIP3    H259841   1.449   3.196  14.912
 3125TIP3   OH259842   0.404   3.243  15.022
 3125TIP3    H159843   0.371   3.155  14.992
 3125TIP3    H259844   0.499   3.223  15.026
 3126TIP3   OH259845   0.916   3.075  15.061
 3126TIP3    H159846   0.946   3.006  15.000
 3126TIP3    H259847   0.994   3.088  15.116
 3127TIP3   OH259848   1.241   2.514  15.088
 3127TIP3    H159849   1.232   2.418  15.098
 3127TIP3    H259850   1.209   2.533  14.997
 3128TIP3   OH259851   1.316   2.343  14.662
 3128TIP3    H159852   1.383   2.297  14.711
 3128TIP3    H259853   1.366   2.390  14.593
 3129TIP3   OH259854   0.719   2.721  14.821
 3129TIP3    H159855   0.788   2.668  14.862
 3129TIP3    H259856   0.670   2.654  14.773
 3130TIP3   OH259857   1.820   2.381  15.358
 3130TIP3    H159858   1.754   2.452  15.354
 3130TIP3    H259859   1.823   2.363  15.453
 3131TIP3   OH259860   1.158   3.164  14.578
 3131TIP3    H159861   1.135   3.137  14.488
 3131TIP3    H259862   1.132   3.256  14.578
 3132TIP3   OH259863   0.684   2.981  15.247
 3132TIP3    H159864   0.612   3.044  15.266
 3132TIP3    H259865   0.755   3.040  15.217
 3133TIP3   OH259866   0.523   3.182  15.331
 3133TIP3    H159867   0.522   3.272  15.293
 3133TIP3    H259868   0.435   3.172  15.368
 3134TIP3   OH259869   0.129   3.144  14.406
 3134TIP3    H159870   0.112   3.171  14.314
 3134TIP3    H259871   0.141   3.228  14.453
 3135TIP3   OH259872   1.498   3.308  15.084
 3135TIP3    H159873   1.402   3.315  15.092
 3135TIP3    H259874   1.527   3.398  15.060
 3136TIP3   OH259875   0.826   1.945  14.972
 3136TIP3    H159876   0.814   1.848  14.961
 3136TIP3    H259877   0.738   1.977  14.998
 3137TIP3   OH259878   1.452   3.270  14.590
 3137TIP3    H159879   1.409   3.206  14.533
 3137TIP3    H259880   1.442   3.231  14.679
 3138TIP3   OH259881   1.603   3.139  15.440
 3138TIP3    H159882   1.622   3.075  15.369
 3138TIP3    H259883   1.630   3.224  15.400
 3139TIP3   OH259884   1.057   2.835  14.420
 3139TIP3    H159885   0.985   2.886  14.379
 3139TIP3    H259886   1.126   2.839  14.351
 3140TIP3   OH259887   1.061   2.679  14.123
 3140TIP3    H159888   1.132   2.679  14.188
 3140TIP3    H259889   1.093   2.615  14.060
 3141TIP3   OH259890   1.791   2.768  15.244
 3141TIP3    H159891   1.730   2.843  15.253
 3141TIP3    H259892   1.843   2.792  15.166
 3142TIP3   OH259893   1.400   2.851  14.508
 3142TIP3    H159894   1.327   2.874  14.569
 3142TIP3    H259895   1.447   2.784  14.561
 3143TIP3   OH259896   1.391   2.665  15.418
 3143TIP3    H159897   1.394   2.743  15.476
 3143TIP3    H259898   1.327   2.698  15.352
 3144TIP3   OH259899   0.562   2.919  14.701
 3144TIP3    H159900   0.528   2.881  14.619
 3144TIP3    H259901   0.623   2.849  14.735
 3145TIP3   OH259902   0.692   3.255  14.971
 3145TIP3    H159903   0.693   3.203  14.890
 3145TIP3    H259904   0.772   3.220  15.016
 3146TIP3   OH259905   0.596   2.793  15.064
 3146TIP3    H159906   0.655   2.805  14.989
 3146TIP3    H259907   0.628   2.856  15.131
 3147TIP3   OH259908   0.690   3.235  15.537
 3147TIP3    H159909   0.651   3.309  15.586
 3147TIP3    H259910   0.623   3.215  15.468
 3148TIP3   OH259911   1.287   2.768  14.277
 3148TIP3    H159912   1.341   2.788  14.358
 3148TIP3    H259913   1.327   2.824  14.209
 3149TIP3   OH259914   0.508   3.439  15.612
 3149TIP3    H159915   0.508   3.426  15.515
 3149TIP3    H259916   0.417   3.422  15.641
 3150TIP3   OH259917   0.109   3.035  15.331
 3150TIP3    H159918   0.031   3.062  15.278
 3150TIP3    H259919   0.071   2.961  15.377
 3151TIP3   OH259920   0.047   3.338  15.027
 3151TIP3    H159921   0.142   3.321  15.031
 3151TIP3    H259922   0.037   3.415  15.084
 3152TIP3   OH259923   0.965   3.354  15.490
 3152TIP3    H159924   0.971   3.442  15.532
 3152TIP3    H259925   0.875   3.324  15.511
 3153TIP3   OH259926   1.008   3.734  14.467
 3153TIP3    H159927   0.995   3.724  14.372
 3153TIP3    H259928   1.006   3.830  14.483
 3154TIP3   OH259929   0.372   3.616  14.645
 3154TIP3    H159930   0.384   3.581  14.736
 3154TIP3    H259931   0.284   3.582  14.623
 3155TIP3   OH259932   0.557   2.027  15.060
 3155TIP3    H159933   0.472   2.025  15.009
 3155TIP3    H259934   0.555   2.119  15.091
 3156TIP3   OH259935   1.350   2.383  15.461
 3156TIP3    H159936   1.303   2.371  15.547
 3156TIP3    H259937   1.346   2.480  15.448
 3157TIP3   OH259938   1.129   2.600  14.535
 3157TIP3    H159939   1.082   2.679  14.500
 3157TIP3    H259940   1.190   2.581  14.462
 3158TIP3   OH259941   1.027   2.615  15.676
 3158TIP3    H159942   0.974   2.542  15.708
 3158TIP3    H259943   1.112   2.606  15.721
 3159TIP3   OH259944   1.226   2.544  14.816
 3159TIP3    H159945   1.196   2.604  14.743
 3159TIP3    H259946   1.232   2.463  14.760
 3160TIP3   OH259947   1.149   2.705  15.271
 3160TIP3    H159948   1.183   2.636  15.212
 3160TIP3    H259949   1.100   2.656  15.339
 3161TIP3   OH259950   1.262   2.247  15.066
 3161TIP3    H159951   1.202   2.236  15.146
 3161TIP3    H259952   1.211   2.198  14.999
 3162TIP3   OH259953   0.952   2.577  14.945
 3162TIP3    H159954   1.012   2.526  14.889
 3162TIP3    H259955   0.942   2.526  15.025
 3163TIP3   OH259956   0.876   3.037  14.356
 3163TIP3    H159957   0.798   2.992  14.322
 3163TIP3    H259958   0.855   3.044  14.451
 3164TIP3   OH259959   1.593   2.954  15.234
 3164TIP3    H159960   1.651   3.002  15.173
 3164TIP3    H259961   1.507   2.962  15.188
 3165TIP3   OH259962   1.025   3.058  15.478
 3165TIP3    H159963   0.989   3.019  15.559
 3165TIP3    H259964   1.002   3.152  15.490
 3166TIP3   OH259965   1.333   2.504  14.343
 3166TIP3    H159966   1.425   2.493  14.374
 3166TIP3    H259967   1.337   2.583  14.286
 3167TIP3   OH259968   0.387   2.972  14.936
 3167TIP3    H159969   0.455   2.968  14.868
 3167TIP3    H259970   0.395   2.887  14.981
 3168TIP3   OH259971   1.088   3.182  14.269
 3168TIP3    H159972   1.050   3.268  14.291
 3168TIP3    H259973   1.011   3.121  14.278
 3169TIP3   OH259974   0.789   2.772  15.683
 3169TIP3    H159975   0.754   2.744  15.597
 3169TIP3    H259976   0.881   2.743  15.676
 3170TIP3   OH259977   1.823   3.111  15.594
 3170TIP3    H159978   1.734   3.129  15.558
 3170TIP3    H259979   1.878   3.103  15.516
 3171TIP3   OH259980   1.683   3.387  14.365
 3171TIP3    H159981   1.609   3.327  14.389
 3171TIP3    H259982   1.672   3.389  14.269
 3172TIP3   OH259983   1.372   2.887  15.066
 3172TIP3    H159984   1.277   2.867  15.053
 3172TIP3    H259985   1.414   2.812  15.020
 3173TIP3   OH259986   0.625   3.318  14.669
 3173TIP3    H159987   0.673   3.401  14.653
 3173TIP3    H259988   0.536   3.345  14.642
 3174TIP3   OH259989   0.766   3.086  14.625
 3174TIP3    H159990   0.735   3.178  14.634
 3174TIP3    H259991   0.693   3.039  14.670
 3175TIP3   OH259992   0.637   3.585  14.580
 3175TIP3    H159993   0.540   3.598  14.593
 3175TIP3    H259994   0.670   3.670  14.615
 3176TIP3   OH259995   1.169   3.112  15.227
 3176TIP3    H159996   1.130   3.089  15.314
 3176TIP3    H259997   1.227   3.036  15.210
 3177TIP3   OH259998   1.475   3.074  14.364
 3177TIP3    H159999   1.452   2.994  14.414
 3177TIP3    H260000   1.571   3.077  14.378
 3178TIP3   OH260001   0.211   3.466  15.260
 3178TIP3    H160002   0.241   3.375  15.256
 3178TIP3    H260003   0.241   3.497  15.347
 3179TIP3   OH260004   0.688   3.273  14.229
 3179TIP3    H160005   0.710   3.219  14.306
 3179TIP3    H260006   0.696   3.365  14.262
 3180TIP3   OH260007   1.134   2.257  15.301
 3180TIP3    H160008   1.193   2.274  15.378
 3180TIP3    H260009   1.082   2.182  15.332
 3181TIP3   OH260010   1.207   2.221  14.413
 3181TIP3    H160011   1.219   2.281  14.339
 3181TIP3    H260012   1.253   2.268  14.484
 3182TIP3   OH260013   0.980   2.502  15.418
 3182TIP3    H160014   0.988   2.561  15.495
 3182TIP3    H260015   1.042   2.430  15.432
 3183TIP3   OH260016   0.699   3.546  14.301
 3183TIP3    H160017   0.720   3.626  14.253
 3183TIP3    H260018   0.681   3.576  14.392
 3184TIP3   OH260019   1.597   2.288  15.507
 3184TIP3    H160020   1.504   2.318  15.494
 3184TIP3    H260021   1.628   2.285  15.415
 3185TIP3   OH260022   1.455   2.668  14.906
 3185TIP3    H160023   1.372   2.626  14.877
 3185TIP3    H260024   1.510   2.606  14.958
 3186TIP3   OH260025   0.394   3.264  14.161
 3186TIP3    H160026   0.461   3.322  14.199
 3186TIP3    H260027   0.445   3.209  14.101
 3187TIP3   OH260028   0.318   2.004  14.950
 3187TIP3    H160029   0.289   2.010  14.857
 3187TIP3    H260030   0.269   1.924  14.979
 3188TIP3   OH260031   0.208   3.395  14.568
 3188TIP3    H160032   0.123   3.441  14.567
 3188TIP3    H260033   0.256   3.446  14.501
 3189TIP3   OH260034   0.219   3.761  15.756
 3189TIP3    H160035   0.239   3.677  15.802
 3189TIP3    H260036   0.147   3.709  15.717
 3190TIP3   OH260037   0.599   3.555  15.858
 3190TIP3    H160038   0.673   3.502  15.888
 3190TIP3    H260039   0.589   3.523  15.766
 3191TIP3   OH260040   1.251   3.392  15.733
 3191TIP3    H160041   1.215   3.304  15.756
 3191TIP3    H260042   1.326   3.399  15.791
 3192TIP3   OH260043   0.801   3.038  15.736
 3192TIP3    H160044   0.754   3.068  15.656
 3192TIP3    H260045   0.795   2.941  15.726
 3193TIP3   OH260046   1.361   3.024  15.477
 3193TIP3    H160047   1.440   3.082  15.467
 3193TIP3    H260048   1.289   3.087  15.480
 3194TIP3   OH260049   0.598   2.656  15.469
 3194TIP3    H160050   0.548   2.731  15.504
 3194TIP3    H260051   0.643   2.693  15.391
 3195TIP3   OH260052   1.108   2.914  15.812
 3195TIP3    H160053   1.203   2.915  15.794
 3195TIP3    H260054   1.094   2.833  15.862
 3196TIP3   OH260055   0.837   2.778  15.356
 3196TIP3    H160056   0.911   2.765  15.296
 3196TIP3    H260057   0.800   2.864  15.326
 3197TIP3   OH260058   1.274   2.556  15.853
 3197TIP3    H160059   1.301   2.464  15.848
 3197TIP3    H260060   1.360   2.600  15.852
 3198TIP3   OH260061   1.411   2.836  15.668
 3198TIP3    H160062   1.385   2.908  15.605
 3198TIP3    H260063   1.505   2.830  15.649
 3199TIP3   OH260064   1.156   2.328  15.644
 3199TIP3    H160065   1.061   2.322  15.652
 3199TIP3    H260066   1.191   2.258  15.703
 3200TIP3   OH260067   1.318   2.187  15.836
 3200TIP3    H160068   1.315   2.090  15.837
 3200TIP3    H260069   1.290   2.208  15.925
 3201TIP3   OH260070   0.822   2.077  15.843
 3201TIP3    H160071   0.802   2.023  15.766
 3201TIP3    H260072   0.758   2.148  15.838
 3202TIP3   OH260073   0.123   3.229  14.113
 3202TIP3    H160074   0.218   3.241  14.139
 3202TIP3    H260075   0.133   3.159  14.049
 3203TIP3   OH260076   8.147   3.751  14.599
 3203TIP3    H160077   8.061   3.717  14.575
 3203TIP3    H260078   8.167   3.700  14.681
 3204TIP3   OH260079   0.084   3.579  14.798
 3204TIP3    H160080   0.048   3.490  14.815
 3204TIP3    H260081   0.109   3.610  14.888
 3205TIP3   OH260082   1.840   3.651  15.096
 3205TIP3    H160083   1.833   3.672  15.189
 3205TIP3    H260084   1.904   3.714  15.064
 3206TIP3   OH260085   1.764   3.030  14.413
 3206TIP3    H160086   1.858   3.046  14.406
 3206TIP3    H260087   1.765   2.943  14.459
 3207TIP3   OH260088   1.808   2.829  14.587
 3207TIP3    H160089   1.730   2.779  14.622
 3207TIP3    H260090   1.864   2.836  14.666
 3208TIP3   OH260091   1.777   3.098  15.087
 3208TIP3    H160092   1.860   3.061  15.055
 3208TIP3    H260093   1.793   3.193  15.071
 3209TIP3   OH260094   1.634   3.380  15.311
 3209TIP3    H160095   1.571   3.422  15.372
 3209TIP3    H260096   1.577   3.345  15.240
 3210TIP3   OH260097   1.587   2.675  14.646
 3210TIP3    H160098   1.571   2.580  14.640
 3210TIP3    H260099   1.552   2.702  14.733
 3211TIP3   OH260100   1.557   2.435  14.494
 3211TIP3    H160101   1.584   2.343  14.500
 3211TIP3    H260102   1.631   2.476  14.449
 3212TIP3   OH260103   1.620   2.494  15.036
 3212TIP3    H160104   1.717   2.511  15.032
 3212TIP3    H260105   1.610   2.503  15.134
 3213TIP3   OH260106   1.618   2.563  15.300
 3213TIP3    H160107   1.538   2.590  15.350
 3213TIP3    H260108   1.669   2.648  15.294
 3214TIP3   OH260109   0.055   2.399  15.647
 3214TIP3    H160110   0.144   2.395  15.683
 3214TIP3    H260111   0.007   2.334  15.698
 3215TIP3   OH260112   1.800   2.169  15.685
 3215TIP3    H160113   1.710   2.204  15.675
 3215TIP3    H260114   1.812   2.124  15.600
 3216TIP3   OH260115   0.055   2.166  14.470
 3216TIP3    H160116  -0.039   2.173  14.440
 3216TIP3    H260117   0.092   2.218  14.402
 3217TIP3   OH260118   8.176   2.058  15.313
 3217TIP3    H160119   8.106   2.011  15.359
 3217TIP3    H260120   8.129   2.093  15.237
 3218TIP3   OH260121   0.254   3.343  15.713
 3218TIP3    H160122   0.173   3.367  15.667
 3218TIP3    H260123   0.224   3.349  15.805
 3219TIP3   OH260124   0.541   3.454  15.337
 3219TIP3    H160125   0.506   3.540  15.308
 3219TIP3    H260126   0.633   3.465  15.305
 3220TIP3   OH260127   0.974   3.598  15.629
 3220TIP3    H160128   0.991   3.563  15.720
 3220TIP3    H260129   1.062   3.622  15.602
 3221TIP3   OH260130   0.284   3.767  15.344
 3221TIP3    H160131   0.218   3.820  15.294
 3221TIP3    H260132   0.245   3.762  15.431
 3222TIP3   OH260133   0.528   3.732  15.241
 3222TIP3    H160134   0.442   3.752  15.283
 3222TIP3    H260135   0.532   3.795  15.166
 3223TIP3   OH260136   0.219   3.609  15.020
 3223TIP3    H160137   0.228   3.599  15.116
 3223TIP3    H260138   0.312   3.609  14.988
 3224TIP3   OH260139   0.441   3.513  14.892
 3224TIP3    H160140   0.420   3.420  14.914
 3224TIP3    H260141   0.522   3.527  14.942
 3225TIP3   OH260142   0.283   1.991  14.676
 3225TIP3    H160143   0.198   1.973  14.632
 3225TIP3    H260144   0.328   1.906  14.674
 3226TIP3   OH260145   0.733   1.967  14.658
 3226TIP3    H160146   0.813   2.022  14.652
 3226TIP3    H260147   0.722   1.963  14.752
 3227TIP3   OH260148   1.428   1.983  14.393
 3227TIP3    H160149   1.357   2.048  14.377
 3227TIP3    H260150   1.380   1.903  14.411
 3228TIP3   OH260151   0.166   3.563  14.354
 3228TIP3    H160152   0.094   3.552  14.287
 3228TIP3    H260153   0.162   3.657  14.375
 3229TIP3   OH260154   0.344   3.636  14.054
 3229TIP3    H160155   0.310   3.679  14.135
 3229TIP3    H260156   0.424   3.593  14.079
 3230TIP3   OH260157   2.291   3.244  15.014
 3230TIP3    H160158   2.256   3.157  14.997
 3230TIP3    H260159   2.384   3.224  15.033
 3231TIP3   OH260160   1.956   2.602  14.564
 3231TIP3    H160161   1.907   2.686  14.569
 3231TIP3    H260162   1.896   2.546  14.516
 3232TIP3   OH260163   2.029   2.830  14.782
 3232TIP3    H160164   2.042   2.745  14.825
 3232TIP3    H260165   2.097   2.825  14.714
 3233TIP3   OH260166   2.799   3.073  15.063
 3233TIP3    H160167   2.829   3.008  14.999
 3233TIP3    H260168   2.877   3.087  15.117
 3234TIP3   OH260169   3.117   2.517  15.092
 3234TIP3    H160170   3.127   2.420  15.094
 3234TIP3    H260171   3.105   2.531  14.998
 3235TIP3   OH260172   3.202   2.335  14.657
 3235TIP3    H160173   3.269   2.305  14.720
 3235TIP3    H260174   3.253   2.389  14.596
 3236TIP3   OH260175   3.389   2.262  14.847
 3236TIP3    H160176   3.356   2.194  14.907
 3236TIP3    H260177   3.443   2.318  14.905
 3237TIP3   OH260178   2.409   3.177  15.316
 3237TIP3    H160179   2.410   3.272  15.300
 3237TIP3    H260180   2.330   3.172  15.374
 3238TIP3   OH260181   2.018   3.128  14.384
 3238TIP3    H160182   1.993   3.148  14.290
 3238TIP3    H260183   2.092   3.188  14.397
 3239TIP3   OH260184   3.416   2.139  15.216
 3239TIP3    H160185   3.341   2.199  15.216
 3239TIP3    H260186   3.484   2.185  15.168
 3240TIP3   OH260187   3.490   3.140  15.442
 3240TIP3    H160188   3.505   3.074  15.372
 3240TIP3    H260189   3.514   3.225  15.402
 3241TIP3   OH260190   3.678   2.771  15.247
 3241TIP3    H160191   3.612   2.843  15.251
 3241TIP3    H260192   3.729   2.794  15.166
 3242TIP3   OH260193   3.277   2.668  15.424
 3242TIP3    H160194   3.282   2.749  15.476
 3242TIP3    H260195   3.213   2.698  15.355
 3243TIP3   OH260196   3.172   2.770  14.282
 3243TIP3    H160197   3.228   2.785  14.358
 3243TIP3    H260198   3.212   2.819  14.210
 3244TIP3   OH260199   2.393   3.439  15.614
 3244TIP3    H160200   2.398   3.425  15.519
 3244TIP3    H260201   2.300   3.421  15.636
 3245TIP3   OH260202   3.539   1.942  14.268
 3245TIP3    H160203   3.445   1.960  14.291
 3245TIP3    H260204   3.563   2.027  14.231
 3246TIP3   OH260205   1.958   3.056  15.346
 3246TIP3    H160206   1.905   3.055  15.265
 3246TIP3    H260207   1.956   2.964  15.374
 3247TIP3   OH260208   1.930   3.338  15.024
 3247TIP3    H160209   2.025   3.326  15.031
 3247TIP3    H260210   1.918   3.414  15.084
 3248TIP3   OH260211   2.875   3.737  14.457
 3248TIP3    H160212   2.879   3.731  14.363
 3248TIP3    H260213   2.889   3.831  14.479
 3249TIP3   OH260214   2.257   3.623  14.647
 3249TIP3    H160215   2.275   3.584  14.735
 3249TIP3    H260216   2.172   3.584  14.628
 3250TIP3   OH260217   3.456   2.551  15.650
 3250TIP3    H160218   3.423   2.599  15.572
 3250TIP3    H260219   3.473   2.462  15.614
 3251TIP3   OH260220   2.180   3.192  15.449
 3251TIP3    H160221   2.201   3.155  15.536
 3251TIP3    H260222   2.094   3.151  15.427
 3252TIP3   OH260223   2.910   2.000  15.373
 3252TIP3    H160224   2.953   1.970  15.455
 3252TIP3    H260225   2.817   2.001  15.394
 3253TIP3   OH260226   3.238   2.386  15.469
 3253TIP3    H160227   3.189   2.375  15.551
 3253TIP3    H260228   3.226   2.480  15.444
 3254TIP3   OH260229   2.999   2.595  14.522
 3254TIP3    H160230   2.967   2.683  14.498
 3254TIP3    H260231   3.078   2.582  14.467
 3255TIP3   OH260232   1.885   2.279  14.729
 3255TIP3    H160233   1.950   2.270  14.800
 3255TIP3    H260234   1.929   2.231  14.656
 3256TIP3   OH260235   3.040   2.706  15.280
 3256TIP3    H160236   3.061   2.641  15.209
 3256TIP3    H260237   2.985   2.656  15.341
 3257TIP3   OH260238   2.552   2.465  14.427
 3257TIP3    H160239   2.650   2.467  14.430
 3257TIP3    H260240   2.533   2.520  14.350
 3258TIP3   OH260241   3.150   2.229  15.078
 3258TIP3    H160242   3.082   2.234  15.149
 3258TIP3    H260243   3.096   2.202  15.002
 3259TIP3   OH260244   2.843   2.580  14.947
 3259TIP3    H160245   2.890   2.523  14.888
 3259TIP3    H260246   2.822   2.524  15.022
 3260TIP3   OH260247   2.706   2.417  15.183
 3260TIP3    H160248   2.623   2.462  15.197
 3260TIP3    H260249   2.759   2.443  15.259
 3261TIP3   OH260250   3.479   2.952  15.229
 3261TIP3    H160251   3.540   3.003  15.173
 3261TIP3    H260252   3.393   2.964  15.187
 3262TIP3   OH260253   3.218   2.508  14.342
 3262TIP3    H160254   3.309   2.493  14.374
 3262TIP3    H260255   3.222   2.585  14.283
 3263TIP3   OH260256   3.702   2.528  14.319
 3263TIP3    H160257   3.659   2.490  14.240
 3263TIP3    H260258   3.719   2.617  14.283
 3264TIP3   OH260259   3.709   3.100  15.592
 3264TIP3    H160260   3.622   3.133  15.559
 3264TIP3    H260261   3.762   3.106  15.511
 3265TIP3   OH260262   2.523   3.586  14.580
 3265TIP3    H160263   2.428   3.600  14.592
 3265TIP3    H260264   2.558   3.670  14.612
 3266TIP3   OH260265   2.102   3.469  15.256
 3266TIP3    H160266   2.121   3.375  15.261
 3266TIP3    H260267   2.125   3.495  15.346
 3267TIP3   OH260268   2.580   3.277  14.230
 3267TIP3    H160269   2.592   3.221  14.307
 3267TIP3    H260270   2.577   3.367  14.262
 3268TIP3   OH260271   3.008   2.269  15.311
 3268TIP3    H160272   3.081   2.274  15.374
 3268TIP3    H260273   2.970   2.180  15.324
 3269TIP3   OH260274   2.807   2.396  14.501
 3269TIP3    H160275   2.886   2.455  14.505
 3269TIP3    H260276   2.780   2.391  14.594
 3270TIP3   OH260277   2.898   2.103  14.590
 3270TIP3    H160278   2.863   2.165  14.657
 3270TIP3    H260279   2.960   2.162  14.547
 3271TIP3   OH260280   3.484   2.285  15.506
 3271TIP3    H160281   3.392   2.317  15.493
 3271TIP3    H260282   3.514   2.286  15.414
 3272TIP3   OH260283   3.342   2.663  14.904
 3272TIP3    H160284   3.260   2.620  14.881
 3272TIP3    H260285   3.387   2.598  14.961
 3273TIP3   OH260286   2.202   2.000  14.950
 3273TIP3    H160287   2.176   2.008  14.856
 3273TIP3    H260288   2.152   1.923  14.980
 3274TIP3   OH260289   2.111   3.426  14.577
 3274TIP3    H160290   2.030   3.482  14.580
 3274TIP3    H260291   2.161   3.464  14.502
 3275TIP3   OH260292   3.160   2.555  15.852
 3275TIP3    H160293   3.182   2.461  15.848
 3275TIP3    H260294   3.248   2.596  15.858
 3276TIP3   OH260295   2.189   2.310  15.740
 3276TIP3    H160296   2.207   2.236  15.680
 3276TIP3    H260297   2.178   2.265  15.824
 3277TIP3   OH260298   2.667   1.908  15.639
 3277TIP3    H160299   2.742   1.848  15.641
 3277TIP3    H260300   2.655   1.934  15.548
 3278TIP3   OH260301   2.015   3.219  14.127
 3278TIP3    H160302   2.109   3.237  14.131
 3278TIP3    H260303   2.008   3.168  14.044
 3279TIP3   OH260304   1.974   3.564  14.797
 3279TIP3    H160305   1.925   3.488  14.828
 3279TIP3    H260306   1.990   3.611  14.882
 3280TIP3   OH260307   3.729   3.651  15.093
 3280TIP3    H160308   3.718   3.674  15.186
 3280TIP3    H260309   3.791   3.717  15.063
 3281TIP3   OH260310   3.533   3.181  15.863
 3281TIP3    H160311   3.439   3.184  15.883
 3281TIP3    H260312   3.561   3.268  15.891
 3282TIP3   OH260313   3.657   3.016  14.401
 3282TIP3    H160314   3.741   3.061  14.421
 3282TIP3    H260315   3.655   2.945  14.469
 3283TIP3   OH260316   3.694   2.825  14.585
 3283TIP3    H160317   3.616   2.777  14.622
 3283TIP3    H260318   3.748   2.843  14.664
 3284TIP3   OH260319   3.663   3.099  15.083
 3284TIP3    H160320   3.747   3.063  15.050
 3284TIP3    H260321   3.683   3.194  15.070
 3285TIP3   OH260322   3.518   3.388  15.310
 3285TIP3    H160323   3.453   3.421  15.372
 3285TIP3    H260324   3.465   3.350  15.241
 3286TIP3   OH260325   3.721   2.813  14.223
 3286TIP3    H160326   3.661   2.845  14.156
 3286TIP3    H260327   3.711   2.880  14.293
 3287TIP3   OH260328   3.546   2.535  14.079
 3287TIP3    H160329   3.567   2.600  14.011
 3287TIP3    H260330   3.543   2.452  14.031
 3288TIP3   OH260331   3.479   2.676  14.649
 3288TIP3    H160332   3.455   2.582  14.636
 3288TIP3    H260333   3.435   2.698  14.732
 3289TIP3   OH260334   1.976   2.889  15.049
 3289TIP3    H160335   1.989   2.872  14.954
 3289TIP3    H260336   2.061   2.865  15.086
 3290TIP3   OH260337   3.556   2.871  15.615
 3290TIP3    H160338   3.617   2.797  15.629
 3290TIP3    H260339   3.616   2.948  15.610
 3291TIP3   OH260340   3.712   2.661  15.674
 3291TIP3    H160341   3.623   2.624  15.661
 3291TIP3    H260342   3.765   2.580  15.670
 3292TIP3   OH260343   3.441   2.434  14.495
 3292TIP3    H160344   3.469   2.340  14.499
 3292TIP3    H260345   3.518   2.474  14.451
 3293TIP3   OH260346   3.504   2.482  15.036
 3293TIP3    H160347   3.595   2.516  15.032
 3293TIP3    H260348   3.480   2.504  15.128
 3294TIP3   OH260349   3.507   2.563  15.307
 3294TIP3    H160350   3.422   2.591  15.347
 3294TIP3    H260351   3.555   2.647  15.293
 3295TIP3   OH260352   3.502   2.163  14.497
 3295TIP3    H160353   3.525   2.116  14.578
 3295TIP3    H260354   3.444   2.100  14.449
 3296TIP3   OH260355   3.688   2.172  15.682
 3296TIP3    H160356   3.595   2.201  15.678
 3296TIP3    H260357   3.695   2.123  15.600
 3297TIP3   OH260358   1.919   2.177  14.460
 3297TIP3    H160359   1.825   2.189  14.444
 3297TIP3    H260360   1.962   2.219  14.385
 3298TIP3   OH260361   3.403   3.663  14.654
 3298TIP3    H160362   3.467   3.632  14.592
 3298TIP3    H260363   3.450   3.717  14.719
 3299TIP3   OH260364   2.137   3.355  15.710
 3299TIP3    H160365   2.054   3.372  15.665
 3299TIP3    H260366   2.109   3.350  15.802
 3300TIP3   OH260367   2.426   3.454  15.331
 3300TIP3    H160368   2.391   3.542  15.308
 3300TIP3    H260369   2.519   3.465  15.310
 3301TIP3   OH260370   3.087   3.723  15.564
 3301TIP3    H160371   3.157   3.667  15.529
 3301TIP3    H260372   3.128   3.767  15.640
 3302TIP3   OH260373   2.167   3.780  15.337
 3302TIP3    H160374   2.097   3.828  15.292
 3302TIP3    H260375   2.134   3.759  15.425
 3303TIP3   OH260376   2.415   3.734  15.236
 3303TIP3    H160377   2.329   3.752  15.282
 3303TIP3    H260378   2.411   3.799  15.164
 3304TIP3   OH260379   2.114   3.647  15.030
 3304TIP3    H160380   2.108   3.597  15.115
 3304TIP3    H260381   2.193   3.608  14.987
 3305TIP3   OH260382   2.318   3.512  14.895
 3305TIP3    H160383   2.306   3.420  14.922
 3305TIP3    H260384   2.406   3.533  14.934
 3306TIP3   OH260385   2.577   3.562  14.983
 3306TIP3    H160386   2.604   3.475  14.952
 3306TIP3    H260387   2.587   3.557  15.078
 3307TIP3   OH260388   2.933   2.129  14.894
 3307TIP3    H160389   2.864   2.069  14.925
 3307TIP3    H260390   2.988   2.075  14.837
 3308TIP3   OH260391   3.446   1.935  14.902
 3308TIP3    H160392   3.503   1.996  14.854
 3308TIP3    H260393   3.356   1.969  14.881
 3309TIP3   OH260394   2.161   1.992  14.680
 3309TIP3    H160395   2.083   1.968  14.627
 3309TIP3    H260396   2.213   1.910  14.673
 3310TIP3   OH260397   2.043   1.967  14.252
 3310TIP3    H160398   2.091   2.032  14.199
 3310TIP3    H260399   1.987   2.021  14.309
 3311TIP3   OH260400   3.186   1.987  14.820
 3311TIP3    H160401   3.184   1.995  14.724
 3311TIP3    H260402   3.145   1.898  14.836
 3312TIP3   OH260403   3.310   1.988  14.393
 3312TIP3    H160404   3.238   2.048  14.368
 3312TIP3    H260405   3.263   1.907  14.410
 3313TIP3   OH260406   2.029   3.559  14.359
 3313TIP3    H160407   1.970   3.564  14.281
 3313TIP3    H260408   2.039   3.655  14.373
 3314TIP3   OH260409   2.731   2.187  14.346
 3314TIP3    H160410   2.752   2.128  14.418
 3314TIP3    H260411   2.732   2.273  14.392
 3315TIP3   OH260412   2.159   2.052  15.631
 3315TIP3    H160413   2.124   1.971  15.668
 3315TIP3    H260414   2.252   2.044  15.660
 3316TIP3   OH260415   2.359   1.977  15.782
 3316TIP3    H160416   2.449   1.946  15.765
 3316TIP3    H260417   2.321   1.901  15.832
 3317TIP3   OH260418   2.211   3.657  14.048
 3317TIP3    H160419   2.196   3.692  14.136
 3317TIP3    H260420   2.293   3.607  14.065
 3318TIP3   OH260421   4.958   2.905  14.668
 3318TIP3    H160422   4.961   3.003  14.662
 3318TIP3    H260423   4.889   2.882  14.604
 3319TIP3   OH260424   4.847   2.830  15.015
 3319TIP3    H160425   4.844   2.766  15.088
 3319TIP3    H260426   4.811   2.779  14.940
 3320TIP3   OH260427   4.080   2.801  15.172
 3320TIP3    H160428   4.091   2.729  15.238
 3320TIP3    H260429   4.158   2.854  15.194
 3321TIP3   OH260430   5.215   3.125  14.842
 3321TIP3    H160431   5.173   3.054  14.891
 3321TIP3    H260432   5.217   3.195  14.909
 3322TIP3   OH260433   4.175   3.242  15.023
 3322TIP3    H160434   4.143   3.156  14.990
 3322TIP3    H260435   4.270   3.224  15.027
 3323TIP3   OH260436   3.841   2.596  14.575
 3323TIP3    H160437   3.797   2.684  14.566
 3323TIP3    H260438   3.783   2.547  14.513
 3324TIP3   OH260439   3.908   2.819  14.784
 3324TIP3    H160440   3.935   2.741  14.832
 3324TIP3    H260441   3.978   2.836  14.720
 3325TIP3   OH260442   4.683   3.070  15.063
 3325TIP3    H160443   4.719   3.008  14.999
 3325TIP3    H260444   4.763   3.086  15.116
 3326TIP3   OH260445   5.546   2.238  15.136
 3326TIP3    H160446   5.561   2.296  15.214
 3326TIP3    H260447   5.602   2.281  15.069
 3327TIP3   OH260448   5.001   2.517  15.094
 3327TIP3    H160449   5.017   2.422  15.095
 3327TIP3    H260450   4.990   2.532  14.998
 3328TIP3   OH260451   4.314   2.322  14.817
 3328TIP3    H160452   4.326   2.408  14.774
 3328TIP3    H260453   4.275   2.267  14.750
 3329TIP3   OH260454   5.087   2.335  14.653
 3329TIP3    H160455   5.152   2.304  14.720
 3329TIP3    H260456   5.143   2.392  14.599
 3330TIP3   OH260457   4.487   2.721  14.818
 3330TIP3    H160458   4.557   2.669  14.862
 3330TIP3    H260459   4.442   2.648  14.774
 3331TIP3   OH260460   5.589   2.377  15.361
 3331TIP3    H160461   5.529   2.454  15.354
 3331TIP3    H260462   5.595   2.370  15.458
 3332TIP3   OH260463   4.931   3.164  14.575
 3332TIP3    H160464   4.902   3.138  14.487
 3332TIP3    H260465   4.901   3.258  14.581
 3333TIP3   OH260466   4.456   2.983  15.243
 3333TIP3    H160467   4.384   3.045  15.266
 3333TIP3    H260468   4.526   3.043  15.216
 3334TIP3   OH260469   5.266   2.269  14.852
 3334TIP3    H160470   5.245   2.192  14.906
 3334TIP3    H260471   5.333   2.313  14.907
 3335TIP3   OH260472   4.300   3.180  15.326
 3335TIP3    H160473   4.295   3.271  15.292
 3335TIP3    H260474   4.211   3.173  15.370
 3336TIP3   OH260475   3.909   3.142  14.403
 3336TIP3    H160476   3.881   3.176  14.315
 3336TIP3    H260477   3.915   3.224  14.455
 3337TIP3   OH260478   5.300   2.138  15.219
 3337TIP3    H160479   5.227   2.202  15.212
 3337TIP3    H260480   5.371   2.180  15.167
 3338TIP3   OH260481   5.093   3.490  14.741
 3338TIP3    H160482   5.135   3.415  14.695
 3338TIP3    H260483   5.133   3.562  14.696
 3339TIP3   OH260484   5.219   3.278  14.590
 3339TIP3    H160485   5.183   3.208  14.532
 3339TIP3    H260486   5.220   3.232  14.677
 3340TIP3   OH260487   4.827   2.829  14.418
 3340TIP3    H160488   4.757   2.885  14.380
 3340TIP3    H260489   4.897   2.839  14.350
 3341TIP3   OH260490   4.837   2.684  14.128
 3341TIP3    H160491   4.909   2.680  14.191
 3341TIP3    H260492   4.861   2.619  14.062
 3342TIP3   OH260493   5.566   2.769  15.245
 3342TIP3    H160494   5.500   2.841  15.255
 3342TIP3    H260495   5.610   2.795  15.165
 3343TIP3   OH260496   5.170   2.848  14.510
 3343TIP3    H160497   5.098   2.874  14.572
 3343TIP3    H260498   5.219   2.782  14.563
 3344TIP3   OH260499   5.165   2.667  15.421
 3344TIP3    H160500   5.164   2.747  15.475
 3344TIP3    H260501   5.101   2.695  15.352
 3345TIP3   OH260502   4.326   2.910  14.703
 3345TIP3    H160503   4.309   2.888  14.609
 3345TIP3    H260504   4.400   2.852  14.735
 3346TIP3   OH260505   4.467   3.260  14.969
 3346TIP3    H160506   4.463   3.203  14.891
 3346TIP3    H260507   4.543   3.220  15.016
 3347TIP3   OH260508   4.364   2.795  15.064
 3347TIP3    H160509   4.424   2.801  14.988
 3347TIP3    H260510   4.404   2.855  15.130
 3348TIP3   OH260511   5.004   3.347  15.139
 3348TIP3    H160512   4.977   3.409  15.205
 3348TIP3    H260513   4.982   3.260  15.179
 3349TIP3   OH260514   4.460   3.232  15.537
 3349TIP3    H160515   4.422   3.308  15.585
 3349TIP3    H260516   4.393   3.214  15.467
 3350TIP3   OH260517   5.059   2.767  14.275
 3350TIP3    H160518   5.110   2.788  14.357
 3350TIP3    H260519   5.099   2.824  14.209
 3351TIP3   OH260520   4.152   2.853  15.452
 3351TIP3    H160521   4.160   2.917  15.525
 3351TIP3    H260522   4.059   2.861  15.430
 3352TIP3   OH260523   4.831   3.444  14.622
 3352TIP3    H160524   4.876   3.470  14.703
 3352TIP3    H260525   4.771   3.515  14.600
 3353TIP3   OH260526   4.284   3.435  15.613
 3353TIP3    H160527   4.280   3.426  15.516
 3353TIP3    H260528   4.191   3.423  15.639
 3354TIP3   OH260529   5.430   1.942  14.267
 3354TIP3    H160530   5.335   1.955  14.289
 3354TIP3    H260531   5.453   2.027  14.226
 3355TIP3   OH260532   4.226   2.822  14.462
 3355TIP3    H160533   4.204   2.901  14.406
 3355TIP3    H260534   4.158   2.764  14.426
 3356TIP3   OH260535   3.841   3.060  15.349
 3356TIP3    H160536   3.793   3.055  15.264
 3356TIP3    H260537   3.844   2.965  15.373
 3357TIP3   OH260538   3.814   3.332  15.032
 3357TIP3    H160539   3.911   3.323  15.028
 3357TIP3    H260540   3.803   3.416  15.079
 3358TIP3   OH260541   5.642   3.402  15.600
 3358TIP3    H160542   5.627   3.307  15.596
 3358TIP3    H260543   5.555   3.432  15.637
 3359TIP3   OH260544   4.728   3.364  15.478
 3359TIP3    H160545   4.745   3.439  15.538
 3359TIP3    H260546   4.647   3.323  15.514
 3360TIP3   OH260547   4.142   3.618  14.646
 3360TIP3    H160548   4.155   3.581  14.736
 3360TIP3    H260549   4.055   3.581  14.625
 3361TIP3   OH260550   5.350   2.552  15.650
 3361TIP3    H160551   5.308   2.597  15.575
 3361TIP3    H260552   5.356   2.461  15.617
 3362TIP3   OH260553   4.067   3.193  15.446
 3362TIP3    H160554   4.087   3.158  15.535
 3362TIP3    H260555   3.980   3.153  15.425
 3363TIP3   OH260556   4.799   2.009  15.379
 3363TIP3    H160557   4.838   1.967  15.458
 3363TIP3    H260558   4.702   1.994  15.395
 3364TIP3   OH260559   5.128   2.391  15.467
 3364TIP3    H160560   5.073   2.370  15.546
 3364TIP3    H260561   5.110   2.484  15.445
 3365TIP3   OH260562   4.761   2.263  14.109
 3365TIP3    H160563   4.731   2.262  14.203
 3365TIP3    H260564   4.736   2.173  14.088
 3366TIP3   OH260565   4.346   2.536  15.166
 3366TIP3    H160566   4.269   2.535  15.225
 3366TIP3    H260567   4.340   2.627  15.131
 3367TIP3   OH260568   4.353   2.530  14.651
 3367TIP3    H160569   4.259   2.503  14.644
 3367TIP3    H260570   4.393   2.509  14.565
 3368TIP3   OH260571   4.893   2.597  14.530
 3368TIP3    H160572   4.852   2.680  14.497
 3368TIP3    H260573   4.962   2.583  14.463
 3369TIP3   OH260574   4.799   2.618  15.671
 3369TIP3    H160575   4.743   2.545  15.706
 3369TIP3    H260576   4.880   2.608  15.724
 3370TIP3   OH260577   4.995   2.547  14.815
 3370TIP3    H160578   4.969   2.604  14.740
 3370TIP3    H260579   5.006   2.463  14.767
 3371TIP3   OH260580   4.109   2.564  15.335
 3371TIP3    H160581   4.113   2.605  15.423
 3371TIP3    H260582   4.059   2.483  15.350
 3372TIP3   OH260583   4.915   2.707  15.271
 3372TIP3    H160584   4.953   2.638  15.212
 3372TIP3    H260585   4.869   2.653  15.338
 3373TIP3   OH260586   4.596   2.306  14.753
 3373TIP3    H160587   4.504   2.305  14.784
 3373TIP3    H260588   4.646   2.290  14.834
 3374TIP3   OH260589   4.088   2.471  14.627
 3374TIP3    H160590   3.991   2.477  14.606
 3374TIP3    H260591   4.102   2.378  14.605
 3375TIP3   OH260592   5.037   2.227  15.078
 3375TIP3    H160593   4.969   2.233  15.148
 3375TIP3    H260594   4.986   2.203  14.999
 3376TIP3   OH260595   5.366   3.789  15.707
 3376TIP3    H160596   5.384   3.837  15.627
 3376TIP3    H260597   5.429   3.824  15.773
 3377TIP3   OH260598   4.125   3.040  15.668
 3377TIP3    H160599   4.195   3.064  15.730
 3377TIP3    H260600   4.045   3.054  15.725
 3378TIP3   OH260601   4.727   2.581  14.945
 3378TIP3    H160602   4.783   2.525  14.890
 3378TIP3    H260603   4.710   2.525  15.022
 3379TIP3   OH260604   4.590   2.411  15.186
 3379TIP3    H160605   4.507   2.465  15.191
 3379TIP3    H260606   4.643   2.449  15.260
 3380TIP3   OH260607   4.649   3.038  14.355
 3380TIP3    H160608   4.572   2.990  14.319
 3380TIP3    H260609   4.628   3.047  14.450
 3381TIP3   OH260610   5.364   2.954  15.236
 3381TIP3    H160611   5.422   3.004  15.175
 3381TIP3    H260612   5.279   2.961  15.189
 3382TIP3   OH260613   5.033   2.314  14.171
 3382TIP3    H160614   4.938   2.328  14.156
 3382TIP3    H260615   5.062   2.402  14.203
 3383TIP3   OH260616   4.798   3.059  15.477
 3383TIP3    H160617   4.764   3.019  15.558
 3383TIP3    H260618   4.776   3.153  15.489
 3384TIP3   OH260619   5.106   2.507  14.338
 3384TIP3    H160620   5.196   2.494  14.376
 3384TIP3    H260621   5.113   2.590  14.288
 3385TIP3   OH260622   4.155   2.970  14.930
 3385TIP3    H160623   4.229   2.967  14.868
 3385TIP3    H260624   4.166   2.889  14.983
 3386TIP3   OH260625   3.860   2.811  15.462
 3386TIP3    H160626   3.873   2.767  15.547
 3386TIP3    H260627   3.795   2.753  15.419
 3387TIP3   OH260628   4.557   2.771  15.680
 3387TIP3    H160629   4.530   2.742  15.591
 3387TIP3    H260630   4.649   2.739  15.682
 3388TIP3   OH260631   5.590   2.521  14.315
 3388TIP3    H160632   5.538   2.490  14.240
 3388TIP3    H260633   5.603   2.614  14.285
 3389TIP3   OH260634   5.591   3.104  15.591
 3389TIP3    H160635   5.506   3.131  15.553
 3389TIP3    H260636   5.651   3.105  15.515
 3390TIP3   OH260637   5.425   3.407  14.351
 3390TIP3    H160638   5.388   3.325  14.388
 3390TIP3    H260639   5.451   3.383  14.262
 3391TIP3   OH260640   5.142   2.886  15.063
 3391TIP3    H160641   5.048   2.865  15.052
 3391TIP3    H260642   5.185   2.810  15.020
 3392TIP3   OH260643   4.395   3.320  14.673
 3392TIP3    H160644   4.446   3.399  14.650
 3392TIP3    H260645   4.307   3.343  14.641
 3393TIP3   OH260646   3.975   2.803  14.130
 3393TIP3    H160647   4.030   2.871  14.168
 3393TIP3    H260648   3.884   2.829  14.156
 3394TIP3   OH260649   4.536   3.085  14.624
 3394TIP3    H160650   4.508   3.179  14.633
 3394TIP3    H260651   4.465   3.040  14.671
 3395TIP3   OH260652   4.584   3.504  15.261
 3395TIP3    H160653   4.626   3.588  15.241
 3395TIP3    H260654   4.641   3.469  15.333
 3396TIP3   OH260655   4.407   3.587  14.580
 3396TIP3    H160656   4.309   3.601  14.591
 3396TIP3    H260657   4.442   3.670  14.614
 3397TIP3   OH260658   4.940   3.107  15.233
 3397TIP3    H160659   4.899   3.083  15.318
 3397TIP3    H260660   4.999   3.033  15.212
 3398TIP3   OH260661   5.248   3.072  14.364
 3398TIP3    H160662   5.222   2.993  14.415
 3398TIP3    H260663   5.342   3.080  14.381
 3399TIP3   OH260664   3.985   3.467  15.257
 3399TIP3    H160665   4.012   3.375  15.257
 3399TIP3    H260666   4.011   3.494  15.346
 3400TIP3   OH260667   4.457   3.274  14.224
 3400TIP3    H160668   4.485   3.220  14.300
 3400TIP3    H260669   4.467   3.365  14.263
 3401TIP3   OH260670   4.110   2.999  14.281
 3401TIP3    H160671   4.040   3.042  14.335
 3401TIP3    H260672   4.162   3.076  14.252
 3402TIP3   OH260673   4.896   2.264  15.309
 3402TIP3    H160674   4.965   2.271  15.376
 3402TIP3    H260675   4.857   2.177  15.330
 3403TIP3   OH260676   4.969   2.225  14.423
 3403TIP3    H160677   4.993   2.269  14.339
 3403TIP3    H260678   5.027   2.269  14.486
 3404TIP3   OH260679   4.687   2.402  14.502
 3404TIP3    H160680   4.769   2.455  14.504
 3404TIP3    H260681   4.668   2.385  14.595
 3405TIP3   OH260682   4.751   2.502  15.417
 3405TIP3    H160683   4.756   2.556  15.499
 3405TIP3    H260684   4.812   2.429  15.432
 3406TIP3   OH260685   4.781   2.104  14.592
 3406TIP3    H160686   4.746   2.170  14.653
 3406TIP3    H260687   4.848   2.159  14.545
 3407TIP3   OH260688   4.470   3.545  14.298
 3407TIP3    H160689   4.490   3.628  14.253
 3407TIP3    H260690   4.452   3.572  14.390
 3408TIP3   OH260691   5.366   2.288  15.506
 3408TIP3    H160692   5.273   2.319  15.493
 3408TIP3    H260693   5.397   2.287  15.414
 3409TIP3   OH260694   5.226   2.666  14.909
 3409TIP3    H160695   5.144   2.622  14.880
 3409TIP3    H260696   5.273   2.596  14.959
 3410TIP3   OH260697   4.168   3.262  14.162
 3410TIP3    H160698   4.232   3.321  14.203
 3410TIP3    H260699   4.223   3.212  14.102
 3411TIP3   OH260700   3.979   3.394  14.567
 3411TIP3    H160701   3.896   3.442  14.566
 3411TIP3    H260702   4.027   3.444  14.499
 3412TIP3   OH260703   3.918   3.655  15.696
 3412TIP3    H160704   3.966   3.638  15.779
 3412TIP3    H260705   3.863   3.577  15.684
 3413TIP3   OH260706   4.368   3.553  15.859
 3413TIP3    H160707   4.444   3.501  15.889
 3413TIP3    H260708   4.362   3.525  15.765
 3414TIP3   OH260709   3.894   3.039  15.794
 3414TIP3    H160710   3.903   2.946  15.767
 3414TIP3    H260711   3.816   3.067  15.740
 3415TIP3   OH260712   4.563   3.040  15.735
 3415TIP3    H160713   4.528   3.068  15.648
 3415TIP3    H260714   4.574   2.942  15.724
 3416TIP3   OH260715   5.133   3.026  15.475
 3416TIP3    H160716   5.208   3.084  15.462
 3416TIP3    H260717   5.058   3.087  15.479
 3417TIP3   OH260718   4.448   2.874  14.239
 3417TIP3    H160719   4.398   2.821  14.302
 3417TIP3    H260720   4.475   2.807  14.174
 3418TIP3   OH260721   4.877   2.908  15.809
 3418TIP3    H160722   4.972   2.913  15.797
 3418TIP3    H260723   4.862   2.831  15.866
 3419TIP3   OH260724   5.491   2.930  14.006
 3419TIP3    H160725   5.464   2.890  13.923
 3419TIP3    H260726   5.495   3.024  13.985
 3420TIP3   OH260727   4.451   2.226  15.329
 3420TIP3    H160728   4.504   2.280  15.266
 3420TIP3    H260729   4.365   2.227  15.289
 3421TIP3   OH260730   4.611   2.782  15.360
 3421TIP3    H160731   4.682   2.763  15.298
 3421TIP3    H260732   4.568   2.861  15.324
 3422TIP3   OH260733   5.048   2.556  15.851
 3422TIP3    H160734   5.071   2.462  15.848
 3422TIP3    H260735   5.135   2.598  15.854
 3423TIP3   OH260736   5.182   2.836  15.668
 3423TIP3    H160737   5.156   2.908  15.607
 3423TIP3    H260738   5.277   2.831  15.651
 3424TIP3   OH260739   4.536   1.976  15.366
 3424TIP3    H160740   4.516   2.072  15.366
 3424TIP3    H260741   4.458   1.938  15.327
 3425TIP3   OH260742   4.659   2.403  15.732
 3425TIP3    H160743   4.629   2.389  15.823
 3425TIP3    H260744   4.578   2.389  15.680
 3426TIP3   OH260745   4.931   2.318  15.639
 3426TIP3    H160746   4.835   2.326  15.654
 3426TIP3    H260747   4.961   2.258  15.710
 3427TIP3   OH260748   5.087   2.186  15.833
 3427TIP3    H160749   5.085   2.088  15.836
 3427TIP3    H260750   5.063   2.213  15.924
 3428TIP3   OH260751   3.895   3.219  14.121
 3428TIP3    H160752   3.990   3.236  14.139
 3428TIP3    H260753   3.895   3.163  14.044
 3429TIP3   OH260754   3.771   3.765  14.613
 3429TIP3    H160755   3.703   3.720  14.564
 3429TIP3    H260756   3.797   3.699  14.681
 3430TIP3   OH260757   3.852   3.576  14.798
 3430TIP3    H160758   3.816   3.490  14.822
 3430TIP3    H260759   3.873   3.612  14.887
 3431TIP3   OH260760   5.539   3.019  14.404
 3431TIP3    H160761   5.627   3.059  14.420
 3431TIP3    H260762   5.542   2.946  14.467
 3432TIP3   OH260763   5.551   3.100  15.083
 3432TIP3    H160764   5.634   3.066  15.049
 3432TIP3    H260765   5.563   3.195  15.067
 3433TIP3   OH260766   5.598   2.807  14.229
 3433TIP3    H160767   5.552   2.846  14.152
 3433TIP3    H260768   5.602   2.882  14.290
 3434TIP3   OH260769   5.437   2.532  14.078
 3434TIP3    H160770   5.452   2.600  14.012
 3434TIP3    H260771   5.424   2.450  14.028
 3435TIP3   OH260772   5.356   2.677  14.644
 3435TIP3    H160773   5.344   2.581  14.639
 3435TIP3    H260774   5.322   2.698  14.732
 3436TIP3   OH260775   3.860   2.886  15.049
 3436TIP3    H160776   3.876   2.876  14.953
 3436TIP3    H260777   3.947   2.863  15.088
 3437TIP3   OH260778   5.444   2.873  15.623
 3437TIP3    H160779   5.501   2.795  15.621
 3437TIP3    H260780   5.506   2.948  15.610
 3438TIP3   OH260781   5.366   2.275  13.988
 3438TIP3    H160782   5.425   2.235  14.055
 3438TIP3    H260783   5.278   2.240  14.009
 3439TIP3   OH260784   5.326   2.435  14.491
 3439TIP3    H160785   5.356   2.342  14.503
 3439TIP3    H260786   5.405   2.474  14.451
 3440TIP3   OH260787   5.386   2.487  15.034
 3440TIP3    H160788   5.482   2.510  15.031
 3440TIP3    H260789   5.367   2.501  15.128
 3441TIP3   OH260790   5.395   2.561  15.309
 3441TIP3    H160791   5.308   2.589  15.345
 3441TIP3    H260792   5.438   2.647  15.293
 3442TIP3   OH260793   3.820   2.413  15.662
 3442TIP3    H160794   3.910   2.394  15.686
 3442TIP3    H260795   3.772   2.333  15.693
 3443TIP3   OH260796   5.623   1.964  15.845
 3443TIP3    H160797   5.660   1.898  15.784
 3443TIP3    H260798   5.633   2.046  15.793
 3444TIP3   OH260799   5.389   2.162  14.495
 3444TIP3    H160800   5.412   2.118  14.580
 3444TIP3    H260801   5.330   2.098  14.450
 3445TIP3   OH260802   5.572   2.173  15.686
 3445TIP3    H160803   5.479   2.202  15.678
 3445TIP3    H260804   5.580   2.124  15.603
 3446TIP3   OH260805   5.573   2.166  14.150
 3446TIP3    H160806   5.618   2.096  14.101
 3446TIP3    H260807   5.642   2.234  14.154
 3447TIP3   OH260808   4.021   3.354  15.709
 3447TIP3    H160809   3.938   3.375  15.665
 3447TIP3    H260810   3.996   3.350  15.802
 3448TIP3   OH260811   4.316   3.453  15.339
 3448TIP3    H160812   4.278   3.537  15.309
 3448TIP3    H260813   4.407   3.465  15.304
 3449TIP3   OH260814   5.475   1.986  15.466
 3449TIP3    H160815   5.392   2.015  15.425
 3449TIP3    H260816   5.493   1.904  15.415
 3450TIP3   OH260817   4.052   3.777  15.338
 3450TIP3    H160818   3.980   3.828  15.296
 3450TIP3    H260819   4.019   3.762  15.427
 3451TIP3   OH260820   4.302   3.734  15.245
 3451TIP3    H160821   4.213   3.751  15.284
 3451TIP3    H260822   4.299   3.791  15.165
 3452TIP3   OH260823   4.001   3.643  15.028
 3452TIP3    H160824   3.995   3.598  15.114
 3452TIP3    H260825   4.082   3.608  14.988
 3453TIP3   OH260826   4.211   3.514  14.893
 3453TIP3    H160827   4.193   3.422  14.917
 3453TIP3    H260828   4.295   3.530  14.940
 3454TIP3   OH260829   4.468   3.563  14.980
 3454TIP3    H160830   4.487   3.471  14.956
 3454TIP3    H260831   4.471   3.558  15.077
 3455TIP3   OH260832   4.816   2.128  14.896
 3455TIP3    H160833   4.750   2.063  14.920
 3455TIP3    H260834   4.873   2.079  14.836
 3456TIP3   OH260835   5.329   1.933  14.903
 3456TIP3    H160836   5.390   1.992  14.852
 3456TIP3    H260837   5.241   1.969  14.879
 3457TIP3   OH260838   5.495   2.056  14.731
 3457TIP3    H160839   5.565   2.001  14.688
 3457TIP3    H260840   5.544   2.141  14.742
 3458TIP3   OH260841   5.070   1.986  14.822
 3458TIP3    H160842   5.067   1.996  14.726
 3458TIP3    H260843   5.033   1.895  14.834
 3459TIP3   OH260844   5.196   1.988  14.387
 3459TIP3    H160845   5.122   2.048  14.371
 3459TIP3    H260846   5.153   1.903  14.410
 3460TIP3   OH260847   3.918   3.562  14.356
 3460TIP3    H160848   3.855   3.559  14.282
 3460TIP3    H260849   3.923   3.658  14.368
 3461TIP3   OH260850   4.623   2.189  14.340
 3461TIP3    H160851   4.637   2.128  14.414
 3461TIP3    H260852   4.621   2.272  14.391
 3462TIP3   OH260853   5.484   3.648  14.453
 3462TIP3    H160854   5.458   3.566  14.404
 3462TIP3    H260855   5.465   3.717  14.391
 3463TIP3   OH260856   4.106   3.655  14.050
 3463TIP3    H160857   4.074   3.685  14.136
 3463TIP3    H260858   4.184   3.606  14.073
 3464TIP3   OH260859   5.083   1.917  15.804
 3464TIP3    H160860   5.092   1.864  15.886
 3464TIP3    H260861   5.174   1.910  15.769
 3465TIP3   OH260862   5.406   3.521  15.664
 3465TIP3    H160863   5.322   3.504  15.618
 3465TIP3    H260864   5.391   3.612  15.695
 3466TIP3   OH260865   6.736   2.832  15.015
 3466TIP3    H160866   6.731   2.769  15.087
 3466TIP3    H260867   6.697   2.785  14.941
 3467TIP3   OH260868   6.063   3.242  15.022
 3467TIP3    H160869   6.029   3.157  14.993
 3467TIP3    H260870   6.159   3.225  15.032
 3468TIP3   OH260871   5.712   2.599  14.577
 3468TIP3    H160872   5.679   2.688  14.562
 3468TIP3    H260873   5.669   2.546  14.509
 3469TIP3   OH260874   7.427   2.244  15.133
 3469TIP3    H160875   7.447   2.294  15.215
 3469TIP3    H260876   7.490   2.281  15.071
 3470TIP3   OH260877   6.884   2.518  15.092
 3470TIP3    H160878   6.905   2.423  15.094
 3470TIP3    H260879   6.880   2.535  14.995
 3471TIP3   OH260880   6.977   2.328  14.648
 3471TIP3    H160881   7.039   2.309  14.723
 3471TIP3    H260882   7.025   2.398  14.602
 3472TIP3   OH260883   7.478   2.382  15.362
 3472TIP3    H160884   7.407   2.450  15.356
 3472TIP3    H260885   7.478   2.363  15.456
 3473TIP3   OH260886   6.814   3.167  14.579
 3473TIP3    H160887   6.792   3.136  14.490
 3473TIP3    H260888   6.789   3.258  14.577
 3474TIP3   OH260889   6.341   2.981  15.244
 3474TIP3    H160890   6.271   3.045  15.268
 3474TIP3    H260891   6.413   3.039  15.221
 3475TIP3   OH260892   7.158   2.262  14.849
 3475TIP3    H160893   7.128   2.195  14.912
 3475TIP3    H260894   7.213   2.316  14.908
 3476TIP3   OH260895   6.178   3.181  15.316
 3476TIP3    H160896   6.182   3.276  15.297
 3476TIP3    H260897   6.102   3.173  15.377
 3477TIP3   OH260898   5.785   3.145  14.406
 3477TIP3    H160899   5.770   3.175  14.316
 3477TIP3    H260900   5.800   3.227  14.456
 3478TIP3   OH260901   7.158   3.309  15.083
 3478TIP3    H160902   7.062   3.313  15.093
 3478TIP3    H260903   7.183   3.401  15.062
 3479TIP3   OH260904   7.184   2.135  15.213
 3479TIP3    H160905   7.113   2.201  15.215
 3479TIP3    H260906   7.259   2.182  15.172
 3480TIP3   OH260907   7.105   3.277  14.592
 3480TIP3    H160908   7.070   3.209  14.532
 3480TIP3    H260909   7.102   3.232  14.677
 3481TIP3   OH260910   6.711   2.825  14.415
 3481TIP3    H160911   6.644   2.887  14.382
 3481TIP3    H260912   6.783   2.838  14.352
 3482TIP3   OH260913   7.046   2.667  15.419
 3482TIP3    H160914   7.051   2.746  15.473
 3482TIP3    H260915   6.981   2.697  15.352
 3483TIP3   OH260916   6.351   3.253  14.970
 3483TIP3    H160917   6.353   3.200  14.890
 3483TIP3    H260918   6.430   3.225  15.017
 3484TIP3   OH260919   6.947   2.767  14.279
 3484TIP3    H160920   7.000   2.788  14.357
 3484TIP3    H260921   6.984   2.821  14.208
 3485TIP3   OH260922   7.315   1.948  14.280
 3485TIP3    H160923   7.219   1.957  14.277
 3485TIP3    H260924   7.340   2.022  14.220
 3486TIP3   OH260925   5.702   3.334  15.030
 3486TIP3    H160926   5.797   3.324  15.029
 3486TIP3    H260927   5.692   3.415  15.080
 3487TIP3   OH260928   6.027   3.621  14.646
 3487TIP3    H160929   6.041   3.581  14.735
 3487TIP3    H260930   5.944   3.578  14.622
 3488TIP3   OH260931   6.682   2.009  15.378
 3488TIP3    H160932   6.724   1.964  15.454
 3488TIP3    H260933   6.587   1.990  15.394
 3489TIP3   OH260934   7.007   2.387  15.461
 3489TIP3    H160935   6.961   2.370  15.546
 3489TIP3    H260936   7.000   2.483  15.449
 3490TIP3   OH260937   6.779   2.599  14.529
 3490TIP3    H160938   6.737   2.683  14.497
 3490TIP3    H260939   6.849   2.584  14.463
 3491TIP3   OH260940   6.688   2.620  15.678
 3491TIP3    H160941   6.632   2.545  15.707
 3491TIP3    H260942   6.771   2.603  15.724
 3492TIP3   OH260943   6.875   2.545  14.815
 3492TIP3    H160944   6.852   2.602  14.740
 3492TIP3    H260945   6.894   2.463  14.768
 3493TIP3   OH260946   5.656   2.274  14.735
 3493TIP3    H160947   5.726   2.270  14.803
 3493TIP3    H260948   5.703   2.240  14.655
 3494TIP3   OH260949   6.805   2.707  15.274
 3494TIP3    H160950   6.836   2.638  15.212
 3494TIP3    H260951   6.758   2.656  15.341
 3495TIP3   OH260952   6.328   2.462  14.403
 3495TIP3    H160953   6.421   2.475  14.421
 3495TIP3    H260954   6.306   2.531  14.340
 3496TIP3   OH260955   6.922   2.227  15.078
 3496TIP3    H160956   6.855   2.233  15.150
 3496TIP3    H260957   6.870   2.205  15.001
 3497TIP3   OH260958   6.614   2.579  14.944
 3497TIP3    H160959   6.670   2.526  14.886
 3497TIP3    H260960   6.600   2.525  15.021
 3498TIP3   OH260961   6.109   2.194  14.582
 3498TIP3    H160962   6.079   2.101  14.589
 3498TIP3    H260963   6.192   2.190  14.534
 3499TIP3   OH260964   6.531   3.032  14.356
 3499TIP3    H160965   6.452   2.987  14.324
 3499TIP3    H260966   6.510   3.048  14.450
 3500TIP3   OH260967   6.912   2.314  14.176
 3500TIP3    H160968   6.821   2.335  14.154
 3500TIP3    H260969   6.948   2.401  14.202
 3501TIP3   OH260970   6.689   3.060  15.480
 3501TIP3    H160971   6.646   3.016  15.554
 3501TIP3    H260972   6.658   3.150  15.486
 3502TIP3   OH260973   6.991   2.505  14.341
 3502TIP3    H160974   7.082   2.499  14.372
 3502TIP3    H260975   6.993   2.588  14.291
 3503TIP3   OH260976   6.745   3.180  14.262
 3503TIP3    H160977   6.713   3.266  14.291
 3503TIP3    H260978   6.669   3.122  14.279
 3504TIP3   OH260979   7.309   3.406  14.355
 3504TIP3    H160980   7.269   3.324  14.390
 3504TIP3    H260981   7.333   3.385  14.265
 3505TIP3   OH260982   6.283   3.318  14.668
 3505TIP3    H160983   6.330   3.402  14.652
 3505TIP3    H260984   6.193   3.343  14.642
 3506TIP3   OH260985   6.419   3.084  14.621
 3506TIP3    H160986   6.393   3.177  14.634
 3506TIP3    H260987   6.351   3.038  14.671
 3507TIP3   OH260988   6.468   3.504  15.265
 3507TIP3    H160989   6.512   3.586  15.235
 3507TIP3    H260990   6.527   3.472  15.334
 3508TIP3   OH260991   6.293   3.584  14.581
 3508TIP3    H160992   6.196   3.600  14.589
 3508TIP3    H260993   6.326   3.668  14.614
 3509TIP3   OH260994   6.831   3.112  15.234
 3509TIP3    H160995   6.783   3.084  15.314
 3509TIP3    H260996   6.883   3.034  15.210
 3510TIP3   OH260997   7.501   3.651  14.156
 3510TIP3    H160998   7.572   3.715  14.148
 3510TIP3    H260999   7.429   3.706  14.189
 3511TIP3   OH261000   5.909   2.290  15.419
 3511TIP3    H161001   5.818   2.324  15.412
 3511TIP3    H261002   5.897   2.205  15.462
 3512TIP3   OH261003   7.125   3.080  14.375
 3512TIP3    H161004   7.103   2.998  14.421
 3512TIP3    H261005   7.221   3.083  14.383
 3513TIP3   OH261006   5.872   3.469  15.257
 3513TIP3    H161007   5.899   3.376  15.260
 3513TIP3    H261008   5.894   3.497  15.347
 3514TIP3   OH261009   6.779   2.263  15.306
 3514TIP3    H161010   6.848   2.276  15.374
 3514TIP3    H261011   6.742   2.176  15.331
 3515TIP3   OH261012   6.874   2.206  14.423
 3515TIP3    H161013   6.878   2.268  14.343
 3515TIP3    H261014   6.911   2.274  14.485
 3516TIP3   OH261015   6.684   2.102  14.592
 3516TIP3    H161016   6.633   2.161  14.652
 3516TIP3    H261017   6.729   2.175  14.546
 3517TIP3   OH261018   7.216   3.589  15.074
 3517TIP3    H161019   7.208   3.661  15.008
 3517TIP3    H261020   7.313   3.598  15.094
 3518TIP3   OH261021   5.968   2.007  14.956
 3518TIP3    H161022   5.952   2.009  14.859
 3518TIP3    H261023   5.929   1.921  14.980
 3519TIP3   OH261024   5.867   3.399  14.570
 3519TIP3    H161025   5.780   3.441  14.565
 3519TIP3    H261026   5.914   3.444  14.499
 3520TIP3   OH261027   5.788   3.660  15.700
 3520TIP3    H161028   5.848   3.635  15.773
 3520TIP3    H261029   5.746   3.576  15.675
 3521TIP3   OH261030   6.909   3.387  15.727
 3521TIP3    H161031   6.872   3.303  15.757
 3521TIP3    H261032   6.980   3.406  15.791
 3522TIP3   OH261033   5.776   3.039  15.797
 3522TIP3    H161034   5.797   2.950  15.765
 3522TIP3    H261035   5.706   3.068  15.738
 3523TIP3   OH261036   7.021   3.023  15.480
 3523TIP3    H161037   7.096   3.082  15.465
 3523TIP3    H261038   6.946   3.085  15.482
 3524TIP3   OH261039   6.764   2.918  15.816
 3524TIP3    H161040   6.857   2.911  15.790
 3524TIP3    H261041   6.746   2.832  15.858
 3525TIP3   OH261042   6.302   2.387  15.582
 3525TIP3    H161043   6.312   2.317  15.518
 3525TIP3    H261044   6.301   2.467  15.527
 3526TIP3   OH261045   6.928   2.555  15.851
 3526TIP3    H161046   6.954   2.462  15.846
 3526TIP3    H261047   7.015   2.596  15.852
 3527TIP3   OH261048   6.413   1.979  15.375
 3527TIP3    H161049   6.401   2.073  15.358
 3527TIP3    H261050   6.342   1.937  15.322
 3528TIP3   OH261051   6.544   2.397  15.728
 3528TIP3    H161052   6.519   2.393  15.821
 3528TIP3    H261053   6.460   2.392  15.681
 3529TIP3   OH261054   6.817   2.320  15.641
 3529TIP3    H161055   6.721   2.329  15.654
 3529TIP3    H261056   6.847   2.259  15.710
 3530TIP3   OH261057   6.970   2.185  15.833
 3530TIP3    H161058   6.970   2.088  15.835
 3530TIP3    H261059   6.950   2.213  15.925
 3531TIP3   OH261060   6.441   1.913  15.643
 3531TIP3    H161061   6.506   1.839  15.639
 3531TIP3    H261062   6.429   1.929  15.548
 3532TIP3   OH261063   6.469   2.077  15.850
 3532TIP3    H161064   6.460   2.026  15.766
 3532TIP3    H261065   6.413   2.153  15.836
 3533TIP3   OH261066   5.659   3.765  14.611
 3533TIP3    H161067   5.584   3.716  14.570
 3533TIP3    H261068   5.683   3.701  14.681
 3534TIP3   OH261069   5.734   3.581  14.799
 3534TIP3    H161070   5.706   3.489  14.817
 3534TIP3    H261071   5.763   3.612  14.887
 3535TIP3   OH261072   7.488   3.659  15.094
 3535TIP3    H161073   7.493   3.671  15.190
 3535TIP3    H261074   7.563   3.712  15.064
 3536TIP3   OH261075   7.452   3.614  15.387
 3536TIP3    H161076   7.400   3.539  15.351
 3536TIP3    H261077   7.497   3.574  15.461
 3537TIP3   OH261078   7.292   3.189  15.851
 3537TIP3    H161079   7.206   3.181  15.895
 3537TIP3    H261080   7.331   3.265  15.900
 3538TIP3   OH261081   7.439   3.103  15.087
 3538TIP3    H161082   7.521   3.065  15.054
 3538TIP3    H261083   7.451   3.197  15.069
 3539TIP3   OH261084   7.291   3.398  15.312
 3539TIP3    H161085   7.221   3.419  15.375
 3539TIP3    H261086   7.241   3.344  15.246
 3540TIP3   OH261087   7.274   2.489  15.033
 3540TIP3    H161088   7.369   2.507  15.033
 3540TIP3    H261089   7.251   2.501  15.126
 3541TIP3   OH261090   7.282   2.564  15.305
 3541TIP3    H161091   7.196   2.586  15.349
 3541TIP3    H261092   7.320   2.653  15.296
 3542TIP3   OH261093   5.701   2.414  15.666
 3542TIP3    H161094   5.795   2.398  15.682
 3542TIP3    H261095   5.659   2.331  15.695
 3543TIP3   OH261096   7.274   2.163  14.493
 3543TIP3    H161097   7.295   2.131  14.583
 3543TIP3    H261098   7.210   2.107  14.447
 3544TIP3   OH261099   5.825   2.245  14.950
 3544TIP3    H161100   5.872   2.160  14.972
 3544TIP3    H261101   5.881   2.310  14.992
 3545TIP3   OH261102   5.655   2.542  15.045
 3545TIP3    H161103   5.711   2.514  14.972
 3545TIP3    H261104   5.693   2.621  15.084
 3546TIP3   OH261105   5.689   2.171  14.463
 3546TIP3    H161106   5.595   2.190  14.448
 3546TIP3    H261107   5.733   2.214  14.390
 3547TIP3   OH261108   5.685   2.035  15.290
 3547TIP3    H161109   5.618   2.016  15.358
 3547TIP3    H261110   5.641   2.103  15.236
 3548TIP3   OH261111   5.903   3.352  15.708
 3548TIP3    H161112   5.822   3.379  15.664
 3548TIP3    H261113   5.881   3.350  15.802
 3549TIP3   OH261114   6.196   3.453  15.330
 3549TIP3    H161115   6.162   3.540  15.307
 3549TIP3    H261116   6.291   3.463  15.309
 3550TIP3   OH261117   7.357   1.984  15.466
 3550TIP3    H161118   7.276   2.015  15.423
 3550TIP3    H261119   7.379   1.905  15.413
 3551TIP3   OH261120   5.941   3.779  15.336
 3551TIP3    H161121   5.867   3.827  15.295
 3551TIP3    H261122   5.908   3.760  15.424
 3552TIP3   OH261123   6.190   3.740  15.241
 3552TIP3    H161124   6.101   3.750  15.283
 3552TIP3    H261125   6.182   3.797  15.162
 3553TIP3   OH261126   5.883   3.641  15.026
 3553TIP3    H161127   5.879   3.600  15.115
 3553TIP3    H261128   5.967   3.606  14.990
 3554TIP3   OH261129   6.094   3.516  14.894
 3554TIP3    H161130   6.079   3.423  14.916
 3554TIP3    H261131   6.180   3.530  14.939
 3555TIP3   OH261132   6.350   3.561  14.978
 3555TIP3    H161133   6.373   3.469  14.956
 3555TIP3    H261134   6.358   3.560  15.075
 3556TIP3   OH261135   6.697   2.129  14.887
 3556TIP3    H161136   6.633   2.068  14.925
 3556TIP3    H261137   6.760   2.073  14.841
 3557TIP3   OH261138   7.212   1.926  14.893
 3557TIP3    H161139   7.276   1.994  14.861
 3557TIP3    H261140   7.126   1.972  14.885
 3558TIP3   OH261141   7.376   2.055  14.720
 3558TIP3    H161142   7.456   2.002  14.696
 3558TIP3    H261143   7.424   2.138  14.747
 3559TIP3   OH261144   5.935   1.992  14.678
 3559TIP3    H161145   5.854   1.969  14.629
 3559TIP3    H261146   5.984   1.908  14.675
 3560TIP3   OH261147   6.391   1.980  14.658
 3560TIP3    H161148   6.477   2.021  14.657
 3560TIP3    H261149   6.374   1.962  14.752
 3561TIP3   OH261150   6.944   1.986  14.822
 3561TIP3    H161151   6.958   1.994  14.729
 3561TIP3    H261152   6.922   1.893  14.839
 3562TIP3   OH261153   7.078   1.990  14.411
 3562TIP3    H161154   7.035   2.054  14.348
 3562TIP3    H261155   7.055   1.896  14.389
 3563TIP3   OH261156   5.805   3.564  14.355
 3563TIP3    H161157   5.740   3.558  14.283
 3563TIP3    H261158   5.807   3.659  14.372
 3564TIP3   OH261159   7.363   3.646  14.457
 3564TIP3    H161160   7.342   3.565  14.405
 3564TIP3    H261161   7.358   3.718  14.395
 3565TIP3   OH261162   5.992   3.656  14.047
 3565TIP3    H161163   5.962   3.683  14.135
 3565TIP3    H261164   6.067   3.600  14.068
 3566TIP3   OH261165   6.969   1.912  15.801
 3566TIP3    H161166   6.976   1.864  15.886
 3566TIP3    H261167   7.061   1.913  15.769
 3567TIP3   OH261168   7.288   3.521  15.666
 3567TIP3    H161169   7.205   3.500  15.620
 3567TIP3    H261170   7.277   3.614  15.690
 3568TIP3   OH261171   7.943   3.238  15.026
 3568TIP3    H161172   7.913   3.155  14.988
 3568TIP3    H261173   8.041   3.227  15.028
 3569TIP3   OH261174   8.068   2.324  14.819
 3569TIP3    H161175   8.096   2.402  14.772
 3569TIP3    H261176   8.042   2.264  14.747
 3570TIP3   OH261177   8.039   3.186  15.310
 3570TIP3    H161178   8.056   3.282  15.301
 3570TIP3    H261179   7.976   3.182  15.382
 3571TIP3   OH261180   8.106   2.915  14.705
 3571TIP3    H161181   8.071   2.881  14.620
 3571TIP3    H261182   8.165   2.847  14.735
 3572TIP3   OH261183   8.004   2.819  14.463
 3572TIP3    H161184   7.976   2.898  14.414
 3572TIP3    H261185   7.936   2.755  14.443
 3573TIP3   OH261186   7.589   3.337  15.025
 3573TIP3    H161187   7.684   3.323  15.032
 3573TIP3    H261188   7.577   3.416  15.081
 3574TIP3   OH261189   7.912   3.615  14.644
 3574TIP3    H161190   7.927   3.582  14.735
 3574TIP3    H261191   7.826   3.577  14.625
 3575TIP3   OH261192   8.099   2.037  15.050
 3575TIP3    H161193   8.013   2.028  15.002
 3575TIP3    H261194   8.096   2.128  15.077
 3576TIP3   OH261195   7.542   2.266  14.735
 3576TIP3    H161196   7.610   2.273  14.803
 3576TIP3    H261197   7.593   2.239  14.656
 3577TIP3   OH261198   7.976   2.198  14.588
 3577TIP3    H161199   7.959   2.102  14.594
 3577TIP3    H261200   8.071   2.193  14.564
 3578TIP3   OH261201   7.755   3.466  15.260
 3578TIP3    H161202   7.785   3.375  15.261
 3578TIP3    H261203   7.784   3.498  15.347
 3579TIP3   OH261204  -0.061   2.223  14.262
 3579TIP3    H161205  -0.044   2.311  14.298
 3579TIP3    H261206   0.028   2.180  14.266
 3580TIP3   OH261207   7.938   3.277  14.149
 3580TIP3    H161208   8.006   3.323  14.200
 3580TIP3    H261209   7.996   3.210  14.111
 3581TIP3   OH261210   7.860   2.002  14.948
 3581TIP3    H161211   7.833   2.012  14.855
 3581TIP3    H261212   7.813   1.922  14.978
 3582TIP3   OH261213   7.752   3.394  14.568
 3582TIP3    H161214   7.667   3.441  14.565
 3582TIP3    H261215   7.803   3.447  14.506
 3583TIP3   OH261216   7.674   3.659  15.695
 3583TIP3    H161217   7.734   3.638  15.768
 3583TIP3    H261218   7.629   3.577  15.680
 3584TIP3   OH261219   8.018   2.525  15.779
 3584TIP3    H161220   7.948   2.463  15.754
 3584TIP3    H261221   8.089   2.495  15.720
 3585TIP3   OH261222   7.852   2.310  15.742
 3585TIP3    H161223   7.869   2.236  15.683
 3585TIP3    H261224   7.835   2.266  15.828
 3586TIP3   OH261225   7.538   3.770  14.617
 3586TIP3    H161226   7.470   3.719  14.569
 3586TIP3    H261227   7.572   3.701  14.677
 3587TIP3   OH261228   7.620   3.578  14.799
 3587TIP3    H161229   7.587   3.489  14.817
 3587TIP3    H261230   7.648   3.607  14.887
 3588TIP3   OH261231   7.571   2.034  15.288
 3588TIP3    H161232   7.505   2.021  15.360
 3588TIP3    H261233   7.526   2.103  15.237
 3589TIP3   OH261234   7.794   3.357  15.711
 3589TIP3    H161235   7.713   3.372  15.663
 3589TIP3    H261236   7.767   3.352  15.802
 3590TIP3   OH261237   8.088   3.453  15.337
 3590TIP3    H161238   8.049   3.537  15.307
 3590TIP3    H261239   8.178   3.467  15.304
 3591TIP3   OH261240   7.827   3.778  15.338
 3591TIP3    H161241   7.753   3.825  15.296
 3591TIP3    H261242   7.789   3.762  15.425
 3592TIP3   OH261243   8.043   3.700  15.212
 3592TIP3    H161244   7.982   3.740  15.279
 3592TIP3    H261245   8.070   3.782  15.167
 3593TIP3   OH261246   7.765   3.642  15.029
 3593TIP3    H161247   7.766   3.599  15.116
 3593TIP3    H261248   7.851   3.614  14.991
 3594TIP3   OH261249   7.981   3.511  14.895
 3594TIP3    H161250   7.963   3.418  14.916
 3594TIP3    H261251   8.064   3.529  14.942
 3595TIP3   OH261252   7.818   1.991  14.678
 3595TIP3    H161253   7.742   1.965  14.627
 3595TIP3    H261254   7.872   1.910  14.680
 3596TIP3   OH261255   7.695   1.967  14.248
 3596TIP3    H161256   7.750   2.032  14.199
 3596TIP3    H261257   7.641   2.024  14.304
 3597TIP3   OH261258   7.699   3.568  14.339
 3597TIP3    H161259   7.617   3.564  14.288
 3597TIP3    H261260   7.693   3.655  14.381
 3598TIP3   OH261261   8.010   1.986  15.788
 3598TIP3    H161262   8.098   1.953  15.764
 3598TIP3    H261263   7.971   1.907  15.828
 3599TIP3   OH261264   1.189   4.789  14.661
 3599TIP3    H161265   1.191   4.886  14.669
 3599TIP3    H261266   1.113   4.776  14.605
 3600TIP3   OH261267   1.079   4.715  15.012
 3600TIP3    H161268   1.073   4.654  15.086
 3600TIP3    H261269   1.036   4.667  14.941
 3601TIP3   OH261270   0.312   4.679  15.171
 3601TIP3    H161271   0.319   4.616  15.244
 3601TIP3    H261272   0.379   4.745  15.192
 3602TIP3   OH261273   0.076   4.501  14.541
 3602TIP3    H161274   0.022   4.576  14.567
 3602TIP3    H261275   0.013   4.433  14.519
 3603TIP3   OH261276   0.153   4.701  14.789
 3603TIP3    H161277   0.173   4.617  14.836
 3603TIP3    H261278   0.221   4.707  14.721
 3604TIP3   OH261279   1.781   4.120  15.144
 3604TIP3    H161280   1.791   4.183  15.216
 3604TIP3    H261281   1.829   4.163  15.072
 3605TIP3   OH261282   1.231   4.398  15.092
 3605TIP3    H161283   1.246   4.302  15.091
 3605TIP3    H261284   1.218   4.420  14.999
 3606TIP3   OH261285   0.535   4.217  14.817
 3606TIP3    H161286   0.556   4.299  14.767
 3606TIP3    H261287   0.503   4.156  14.746
 3607TIP3   OH261288   1.316   4.238  14.654
 3607TIP3    H161289   1.374   4.187  14.716
 3607TIP3    H261290   1.385   4.263  14.592
 3608TIP3   OH261291   0.218   4.461  14.896
 3608TIP3    H161292   0.275   4.394  14.934
 3608TIP3    H261293   0.209   4.426  14.805
 3609TIP3   OH261294   0.720   4.606  14.819
 3609TIP3    H161295   0.783   4.551  14.866
 3609TIP3    H261296   0.667   4.541  14.769
 3610TIP3   OH261297   1.826   4.272  15.367
 3610TIP3    H161298   1.754   4.337  15.352
 3610TIP3    H261299   1.816   4.252  15.461
 3611TIP3   OH261300   0.451   4.108  15.222
 3611TIP3    H161301   0.414   4.157  15.146
 3611TIP3    H261302   0.377   4.116  15.287
 3612TIP3   OH261303   0.403   4.294  15.035
 3612TIP3    H161304   0.467   4.363  15.057
 3612TIP3    H261305   0.441   4.253  14.953
 3613TIP3   OH261306   1.061   4.726  14.412
 3613TIP3    H161307   0.984   4.777  14.377
 3613TIP3    H261308   1.125   4.737  14.340
 3614TIP3   OH261309   1.059   4.554  14.132
 3614TIP3    H161310   1.140   4.571  14.181
 3614TIP3    H261311   1.091   4.502  14.057
 3615TIP3   OH261312   1.790   4.655  15.249
 3615TIP3    H161313   1.728   4.729  15.254
 3615TIP3    H261314   1.840   4.681  15.171
 3616TIP3   OH261315   1.388   4.714  14.509
 3616TIP3    H161316   1.334   4.768  14.572
 3616TIP3    H261317   1.457   4.677  14.567
 3617TIP3   OH261318   1.391   4.552  15.423
 3617TIP3    H161319   1.395   4.634  15.473
 3617TIP3    H261320   1.330   4.582  15.352
 3618TIP3   OH261321   0.564   4.804  14.698
 3618TIP3    H161322   0.531   4.759  14.617
 3618TIP3    H261323   0.622   4.736  14.739
 3619TIP3   OH261324   1.290   4.647  14.282
 3619TIP3    H161325   1.346   4.682  14.357
 3619TIP3    H261326   1.318   4.705  14.209
 3620TIP3   OH261327   0.463   4.706  14.462
 3620TIP3    H161328   0.431   4.782  14.412
 3620TIP3    H261329   0.395   4.639  14.443
 3621TIP3   OH261330   0.110   4.921  15.324
 3621TIP3    H161331   0.030   4.945  15.274
 3621TIP3    H261332   0.075   4.850  15.381
 3622TIP3   OH261333   0.048   5.228  15.027
 3622TIP3    H161334   0.141   5.203  15.031
 3622TIP3    H261335   0.035   5.299  15.092
 3623TIP3   OH261336   1.017   5.620  14.461
 3623TIP3    H161337   0.993   5.612  14.368
 3623TIP3    H261338   1.004   5.715  14.481
 3624TIP3   OH261339   1.281   5.536  14.449
 3624TIP3    H161340   1.184   5.541  14.460
 3624TIP3    H261341   1.306   5.458  14.499
 3625TIP3   OH261342   1.578   4.436  15.648
 3625TIP3    H161343   1.537   4.484  15.574
 3625TIP3    H261344   1.583   4.345  15.612
 3626TIP3   OH261345   0.561   3.926  15.049
 3626TIP3    H161346   0.480   3.910  14.998
 3626TIP3    H261347   0.551   4.011  15.093
 3627TIP3   OH261348   1.029   3.896  15.382
 3627TIP3    H161349   1.062   3.854  15.461
 3627TIP3    H261350   0.933   3.882  15.390
 3628TIP3   OH261351   1.353   4.272  15.470
 3628TIP3    H161352   1.303   4.261  15.551
 3628TIP3    H261353   1.341   4.364  15.442
 3629TIP3   OH261354   0.575   4.428  15.166
 3629TIP3    H161355   0.503   4.422  15.232
 3629TIP3    H261356   0.568   4.516  15.129
 3630TIP3   OH261357   0.580   4.436  14.655
 3630TIP3    H161358   0.484   4.419  14.640
 3630TIP3    H261359   0.611   4.405  14.568
 3631TIP3   OH261360   1.026   4.517  14.527
 3631TIP3    H161361   1.030   4.617  14.519
 3631TIP3    H261362   1.055   4.517  14.434
 3632TIP3   OH261363   1.029   4.498  15.675
 3632TIP3    H161364   0.972   4.427  15.709
 3632TIP3    H261365   1.111   4.491  15.726
 3633TIP3   OH261366   1.228   4.429  14.812
 3633TIP3    H161367   1.192   4.494  14.752
 3633TIP3    H261368   1.235   4.341  14.770
 3634TIP3   OH261369   0.336   4.454  15.338
 3634TIP3    H161370   0.341   4.489  15.429
 3634TIP3    H261371   0.300   4.366  15.359
 3635TIP3   OH261372   0.039   3.973  14.719
 3635TIP3    H161373   0.054   4.050  14.779
 3635TIP3    H261374   0.042   4.044  14.646
 3636TIP3   OH261375   0.091   4.288  14.346
 3636TIP3    H161376   0.145   4.321  14.270
 3636TIP3    H261377   0.007   4.314  14.313
 3637TIP3   OH261378   1.141   4.590  15.272
 3637TIP3    H161379   1.180   4.525  15.210
 3637TIP3    H261380   1.099   4.534  15.339
 3638TIP3   OH261381   0.831   4.190  14.757
 3638TIP3    H161382   0.736   4.190  14.780
 3638TIP3    H261383   0.870   4.172  14.844
 3639TIP3   OH261384   0.333   4.386  14.616
 3639TIP3    H161385   0.235   4.383  14.605
 3639TIP3    H261386   0.347   4.289  14.605
 3640TIP3   OH261387   0.669   4.356  14.410
 3640TIP3    H161388   0.765   4.355  14.416
 3640TIP3    H261389   0.648   4.412  14.334
 3641TIP3   OH261390   1.264   4.111  15.077
 3641TIP3    H161391   1.198   4.120  15.149
 3641TIP3    H261392   1.210   4.091  15.001
 3642TIP3   OH261393   0.539   4.473  14.159
 3642TIP3    H161394   0.489   4.427  14.089
 3642TIP3    H261395   0.624   4.489  14.117
 3643TIP3   OH261396   0.956   4.464  14.942
 3643TIP3    H161397   1.012   4.406  14.893
 3643TIP3    H261398   0.938   4.413  15.023
 3644TIP3   OH261399   0.463   4.077  14.595
 3644TIP3    H161400   0.425   3.987  14.585
 3644TIP3    H261401   0.534   4.073  14.528
 3645TIP3   OH261402   0.820   4.302  15.184
 3645TIP3    H161403   0.736   4.351  15.195
 3645TIP3    H261404   0.873   4.330  15.260
 3646TIP3   OH261405   0.878   4.915  14.356
 3646TIP3    H161406   0.796   4.875  14.319
 3646TIP3    H261407   0.857   4.932  14.448
 3647TIP3   OH261408   1.590   4.837  15.233
 3647TIP3    H161409   1.651   4.889  15.176
 3647TIP3    H261410   1.506   4.848  15.186
 3648TIP3   OH261411   1.023   4.942  15.478
 3648TIP3    H161412   0.995   4.904  15.562
 3648TIP3    H261413   1.006   5.036  15.488
 3649TIP3   OH261414   1.338   4.395  14.339
 3649TIP3    H161415   1.432   4.373  14.361
 3649TIP3    H261416   1.350   4.467  14.273
 3650TIP3   OH261417   0.088   4.694  15.459
 3650TIP3    H161418   0.103   4.656  15.546
 3650TIP3    H261419   0.022   4.637  15.420
 3651TIP3   OH261420   0.786   4.651  15.683
 3651TIP3    H161421   0.758   4.627  15.594
 3651TIP3    H261422   0.881   4.628  15.679
 3652TIP3   OH261423   1.815   4.412  14.314
 3652TIP3    H161424   1.771   4.374  14.237
 3652TIP3    H261425   1.834   4.504  14.283
 3653TIP3   OH261426   1.372   4.770  15.064
 3653TIP3    H161427   1.277   4.753  15.053
 3653TIP3    H261428   1.413   4.696  15.017
 3654TIP3   OH261429   0.267   4.194  15.474
 3654TIP3    H161430   0.184   4.216  15.426
 3654TIP3    H261431   0.259   4.096  15.469
 3655TIP3   OH261432   0.196   5.348  15.271
 3655TIP3    H161433   0.235   5.259  15.263
 3655TIP3    H261434   0.238   5.384  15.351
 3656TIP3   OH261435   1.124   4.151  15.310
 3656TIP3    H161436   1.199   4.155  15.371
 3656TIP3    H261437   1.086   4.061  15.327
 3657TIP3   OH261438   0.926   4.273  14.502
 3657TIP3    H161439   0.986   4.344  14.509
 3657TIP3    H261440   0.886   4.265  14.591
 3658TIP3   OH261441   0.980   4.390  15.415
 3658TIP3    H161442   0.983   4.442  15.497
 3658TIP3    H261443   1.039   4.314  15.427
 3659TIP3   OH261444   1.012   3.989  14.594
 3659TIP3    H161445   0.969   4.050  14.656
 3659TIP3    H261446   1.074   4.046  14.547
 3660TIP3   OH261447   0.576   4.099  14.294
 3660TIP3    H161448   0.572   4.196  14.299
 3660TIP3    H261449   0.670   4.080  14.285
 3661TIP3   OH261450   1.603   4.186  15.495
 3661TIP3    H161451   1.506   4.200  15.486
 3661TIP3    H261452   1.627   4.169  15.403
 3662TIP3   OH261453   1.459   4.548  14.900
 3662TIP3    H161454   1.373   4.506  14.888
 3662TIP3    H261455   1.506   4.486  14.962
 3663TIP3   OH261456   0.373   3.822  14.891
 3663TIP3    H161457   0.313   3.879  14.839
 3663TIP3    H261458   0.305   3.796  14.958
 3664TIP3   OH261459   0.792   4.922  15.737
 3664TIP3    H161460   0.757   4.949  15.652
 3664TIP3    H261461   0.803   4.825  15.727
 3665TIP3   OH261462   0.678   4.757  14.243
 3665TIP3    H161463   0.626   4.705  14.305
 3665TIP3    H261464   0.704   4.690  14.175
 3666TIP3   OH261465   0.600   4.542  15.471
 3666TIP3    H161466   0.542   4.613  15.501
 3666TIP3    H261467   0.644   4.577  15.391
 3667TIP3   OH261468   0.779   4.582  14.059
 3667TIP3    H161469   0.766   4.566  13.965
 3667TIP3    H261470   0.876   4.594  14.067
 3668TIP3   OH261471   1.106   4.792  15.801
 3668TIP3    H161472   1.202   4.804  15.797
 3668TIP3    H261473   1.091   4.723  15.866
 3669TIP3   OH261474   0.644   4.280  15.578
 3669TIP3    H161475   0.654   4.208  15.513
 3669TIP3    H261476   0.631   4.359  15.523
 3670TIP3   OH261477   0.685   4.124  15.336
 3670TIP3    H161478   0.737   4.160  15.262
 3670TIP3    H261479   0.599   4.105  15.293
 3671TIP3   OH261480   0.836   4.666  15.354
 3671TIP3    H161481   0.914   4.647  15.299
 3671TIP3    H261482   0.808   4.753  15.324
 3672TIP3   OH261483   1.278   4.445  15.851
 3672TIP3    H161484   1.298   4.350  15.847
 3672TIP3    H261485   1.366   4.483  15.855
 3673TIP3   OH261486   0.489   4.404  15.767
 3673TIP3    H161487   0.412   4.344  15.755
 3673TIP3    H261488   0.555   4.362  15.708
 3674TIP3   OH261489   0.305   4.196  15.740
 3674TIP3    H161490   0.324   4.121  15.682
 3674TIP3    H261491   0.299   4.153  15.829
 3675TIP3   OH261492   1.639   5.059  15.871
 3675TIP3    H161493   1.546   5.071  15.895
 3675TIP3    H261494   1.675   5.146  15.894
 3676TIP3   OH261495   1.806   4.710  14.586
 3676TIP3    H161496   1.731   4.663  14.627
 3676TIP3    H261497   1.863   4.731  14.661
 3677TIP3   OH261498   1.776   4.985  15.081
 3677TIP3    H161499   1.862   4.946  15.056
 3677TIP3    H261500   1.792   5.080  15.074
 3678TIP3   OH261501   1.834   4.695  14.223
 3678TIP3    H161502   1.777   4.734  14.156
 3678TIP3    H261503   1.834   4.762  14.294
 3679TIP3   OH261504   1.576   4.562  14.641
 3679TIP3    H161505   1.576   4.466  14.644
 3679TIP3    H261506   1.557   4.587  14.734
 3680TIP3   OH261507   0.080   4.764  15.047
 3680TIP3    H161508   0.105   4.762  14.952
 3680TIP3    H261509   0.169   4.755  15.087
 3681TIP3   OH261510   1.825   4.550  15.679
 3681TIP3    H161511   1.736   4.514  15.660
 3681TIP3    H261512   1.880   4.471  15.670
 3682TIP3   OH261513   1.550   4.320  14.486
 3682TIP3    H161514   1.587   4.231  14.502
 3682TIP3    H261515   1.633   4.360  14.452
 3683TIP3   OH261516   1.616   4.378  15.034
 3683TIP3    H161517   1.712   4.397  15.033
 3683TIP3    H261518   1.598   4.384  15.129
 3684TIP3   OH261519   1.621   4.450  15.308
 3684TIP3    H161520   1.536   4.480  15.345
 3684TIP3    H261521   1.669   4.534  15.289
 3685TIP3   OH261522   0.076   4.302  15.711
 3685TIP3    H161523   0.166   4.268  15.691
 3685TIP3    H261524   0.018   4.225  15.701
 3686TIP3   OH261525   1.855   3.856  15.846
 3686TIP3    H161526   1.883   3.787  15.786
 3686TIP3    H261527   1.864   3.935  15.794
 3687TIP3   OH261528   0.220   4.195  14.919
 3687TIP3    H161529   0.219   4.101  14.940
 3687TIP3    H261530   0.226   4.233  15.006
 3688TIP3   OH261531  -0.016   4.452  15.036
 3688TIP3    H161532   0.047   4.411  14.974
 3688TIP3    H261533   0.040   4.517  15.079
 3689TIP3   OH261534   0.031   4.046  14.441
 3689TIP3    H161535  -0.060   4.077  14.450
 3689TIP3    H261536   0.077   4.113  14.387
 3690TIP3   OH261537   8.161   3.894  15.320
 3690TIP3    H161538   8.084   3.891  15.377
 3690TIP3    H261539   8.133   3.956  15.247
 3691TIP3   OH261540   1.493   5.655  15.283
 3691TIP3    H161541   1.482   5.750  15.260
 3691TIP3    H261542   1.508   5.620  15.195
 3692TIP3   OH261543   1.044   4.016  14.892
 3692TIP3    H161544   0.977   3.954  14.925
 3692TIP3    H261545   1.097   3.960  14.837
 3693TIP3   OH261546   0.286   3.873  14.661
 3693TIP3    H161547   0.197   3.851  14.627
 3693TIP3    H261548   0.328   3.785  14.673
 3694TIP3   OH261549   0.184   3.847  14.299
 3694TIP3    H161550   0.204   3.899  14.218
 3694TIP3    H261551   0.104   3.898  14.320
 3695TIP3   OH261552   0.732   3.867  14.659
 3695TIP3    H161553   0.818   3.909  14.652
 3695TIP3    H261554   0.726   3.845  14.752
 3696TIP3   OH261555   0.462   4.053  14.062
 3696TIP3    H161556   0.410   3.975  14.056
 3696TIP3    H261557   0.427   4.081  14.151
 3697TIP3   OH261558   0.280   3.945  15.607
 3697TIP3    H161559   0.238   3.873  15.662
 3697TIP3    H261560   0.364   3.936  15.658
 3698TIP3   OH261561   0.470   3.866  15.788
 3698TIP3    H161562   0.557   3.831  15.765
 3698TIP3    H261563   0.425   3.789  15.828
 3699TIP3   OH261564   2.201   4.682  15.170
 3699TIP3    H161565   2.202   4.617  15.244
 3699TIP3    H261566   2.269   4.743  15.200
 3700TIP3   OH261567   3.330   5.012  14.846
 3700TIP3    H161568   3.287   4.941  14.894
 3700TIP3    H261569   3.334   5.083  14.913
 3701TIP3   OH261570   2.295   5.132  15.029
 3701TIP3    H161571   2.253   5.052  14.995
 3701TIP3    H261572   2.388   5.107  15.034
 3702TIP3   OH261573   1.952   4.484  14.569
 3702TIP3    H161574   1.909   4.572  14.563
 3702TIP3    H261575   1.896   4.431  14.511
 3703TIP3   OH261576   2.032   4.709  14.788
 3703TIP3    H161577   2.048   4.623  14.831
 3703TIP3    H261578   2.092   4.707  14.711
 3704TIP3   OH261579   3.060   5.534  14.877
 3704TIP3    H161580   3.108   5.457  14.838
 3704TIP3    H261581   3.025   5.493  14.955
 3705TIP3   OH261582   3.660   4.121  15.138
 3705TIP3    H161583   3.676   4.182  15.214
 3705TIP3    H261584   3.716   4.162  15.072
 3706TIP3   OH261585   2.426   4.212  14.816
 3706TIP3    H161586   2.438   4.296  14.768
 3706TIP3    H261587   2.386   4.156  14.747
 3707TIP3   OH261588   3.199   4.223  14.652
 3707TIP3    H161589   3.263   4.191  14.719
 3707TIP3    H261590   3.256   4.276  14.595
 3708TIP3   OH261591   2.092   4.456  14.889
 3708TIP3    H161592   2.154   4.395  14.935
 3708TIP3    H261593   2.097   4.419  14.799
 3709TIP3   OH261594   3.702   4.266  15.353
 3709TIP3    H161595   3.639   4.340  15.352
 3709TIP3    H261596   3.711   4.252  15.449
 3710TIP3   OH261597   2.316   4.100  15.220
 3710TIP3    H161598   2.289   4.158  15.146
 3710TIP3    H261599   2.250   4.126  15.288
 3711TIP3   OH261600   3.054   5.052  14.571
 3711TIP3    H161601   3.016   5.018  14.491
 3711TIP3    H261602   3.016   5.139  14.582
 3712TIP3   OH261603   3.380   4.157  14.856
 3712TIP3    H161604   3.361   4.076  14.905
 3712TIP3    H261605   3.450   4.197  14.908
 3713TIP3   OH261606   2.270   4.285  15.021
 3713TIP3    H161607   2.335   4.351  15.056
 3713TIP3    H261608   2.325   4.245  14.949
 3714TIP3   OH261609   2.033   5.033  14.400
 3714TIP3    H161610   1.992   5.063  14.320
 3714TIP3    H261611   2.027   5.112  14.456
 3715TIP3   OH261612   3.384   5.194  15.083
 3715TIP3    H161613   3.288   5.205  15.092
 3715TIP3    H261614   3.410   5.286  15.061
 3716TIP3   OH261615   3.413   4.024  15.220
 3716TIP3    H161616   3.343   4.088  15.215
 3716TIP3    H261617   3.487   4.064  15.170
 3717TIP3   OH261618   2.713   3.833  14.965
 3717TIP3    H161619   2.699   3.737  14.960
 3717TIP3    H261620   2.627   3.865  14.998
 3718TIP3   OH261621   3.206   5.373  14.742
 3718TIP3    H161622   3.252   5.301  14.692
 3718TIP3    H261623   3.251   5.451  14.702
 3719TIP3   OH261624   3.330   5.166  14.595
 3719TIP3    H161625   3.300   5.098  14.532
 3719TIP3    H261626   3.333   5.115  14.678
 3720TIP3   OH261627   3.491   5.024  15.440
 3720TIP3    H161628   3.507   4.960  15.368
 3720TIP3    H261629   3.512   5.109  15.399
 3721TIP3   OH261630   2.938   4.710  14.414
 3721TIP3    H161631   2.872   4.774  14.387
 3721TIP3    H261632   3.012   4.725  14.355
 3722TIP3   OH261633   3.679   4.657  15.250
 3722TIP3    H161634   3.611   4.728  15.253
 3722TIP3    H261635   3.725   4.678  15.167
 3723TIP3   OH261636   3.289   4.742  14.515
 3723TIP3    H161637   3.211   4.760  14.569
 3723TIP3    H261638   3.332   4.667  14.559
 3724TIP3   OH261639   3.282   4.555  15.418
 3724TIP3    H161640   3.279   4.631  15.479
 3724TIP3    H261641   3.210   4.581  15.357
 3725TIP3   OH261642   3.120   5.229  15.137
 3725TIP3    H161643   3.094   5.295  15.203
 3725TIP3    H261644   3.093   5.148  15.181
 3726TIP3   OH261645   2.264   4.739  15.447
 3726TIP3    H161646   2.275   4.800  15.520
 3726TIP3    H261647   2.169   4.745  15.429
 3727TIP3   OH261648   3.545   3.828  14.267
 3727TIP3    H161649   3.453   3.841  14.296
 3727TIP3    H261650   3.563   3.914  14.225
 3728TIP3   OH261651   3.683   5.269  14.150
 3728TIP3    H161652   3.666   5.353  14.107
 3728TIP3    H261653   3.750   5.231  14.091
 3729TIP3   OH261654   3.750   5.289  15.595
 3729TIP3    H161655   3.746   5.193  15.599
 3729TIP3    H261656   3.666   5.314  15.638
 3730TIP3   OH261657   3.191   5.552  14.171
 3730TIP3    H161658   3.236   5.477  14.123
 3730TIP3    H261659   3.198   5.512  14.259
 3731TIP3   OH261660   3.168   5.531  14.442
 3731TIP3    H161661   3.073   5.540  14.458
 3731TIP3    H261662   3.194   5.458  14.499
 3732TIP3   OH261663   3.467   4.438  15.647
 3732TIP3    H161664   3.421   4.484  15.576
 3732TIP3    H261665   3.468   4.347  15.615
 3733TIP3   OH261666   2.177   5.080  15.449
 3733TIP3    H161667   2.201   5.043  15.534
 3733TIP3    H261668   2.094   5.038  15.426
 3734TIP3   OH261669   2.448   3.923  15.044
 3734TIP3    H161670   2.358   3.913  15.004
 3734TIP3    H261671   2.437   4.009  15.088
 3735TIP3   OH261672   2.910   3.899  15.382
 3735TIP3    H161673   2.952   3.850  15.454
 3735TIP3    H261674   2.815   3.878  15.392
 3736TIP3   OH261675   3.235   4.273  15.467
 3736TIP3    H161676   3.187   4.262  15.550
 3736TIP3    H261677   3.226   4.368  15.445
 3737TIP3   OH261678   2.448   4.420  15.158
 3737TIP3    H161679   2.385   4.420  15.233
 3737TIP3    H261680   2.455   4.512  15.135
 3738TIP3   OH261681   2.455   4.431  14.650
 3738TIP3    H161682   2.361   4.408  14.637
 3738TIP3    H261683   2.493   4.406  14.566
 3739TIP3   OH261684   2.224   4.451  15.337
 3739TIP3    H161685   2.228   4.491  15.425
 3739TIP3    H261686   2.180   4.367  15.356
 3740TIP3   OH261687   2.022   4.239  14.275
 3740TIP3    H161688   2.062   4.294  14.207
 3740TIP3    H261689   1.943   4.292  14.300
 3741TIP3   OH261690   2.713   4.189  14.755
 3741TIP3    H161691   2.620   4.189  14.786
 3741TIP3    H261692   2.762   4.176  14.838
 3742TIP3   OH261693   2.193   4.345  14.638
 3742TIP3    H161694   2.103   4.361  14.601
 3742TIP3    H261695   2.218   4.260  14.600
 3743TIP3   OH261696   3.477   5.673  15.713
 3743TIP3    H161697   3.502   5.712  15.626
 3743TIP3    H261698   3.546   5.710  15.770
 3744TIP3   OH261699   2.341   4.080  14.585
 3744TIP3    H161700   2.309   3.988  14.588
 3744TIP3    H261701   2.421   4.073  14.532
 3745TIP3   OH261702   3.480   4.839  15.233
 3745TIP3    H161703   3.536   4.889  15.173
 3745TIP3    H261704   3.394   4.846  15.187
 3746TIP3   OH261705   1.975   4.700  15.464
 3746TIP3    H161706   1.987   4.652  15.546
 3746TIP3    H261707   1.909   4.646  15.416
 3747TIP3   OH261708   3.135   5.191  15.470
 3747TIP3    H161709   3.042   5.207  15.452
 3747TIP3    H261710   3.138   5.219  15.564
 3748TIP3   OH261711   3.706   4.993  15.592
 3748TIP3    H161712   3.619   5.016  15.553
 3748TIP3    H261713   3.764   4.990  15.513
 3749TIP3   OH261714   3.538   5.292  14.359
 3749TIP3    H161715   3.500   5.208  14.387
 3749TIP3    H261716   3.570   5.274  14.267
 3750TIP3   OH261717   3.260   4.773  15.064
 3750TIP3    H161718   3.167   4.754  15.049
 3750TIP3    H261719   3.302   4.697  15.020
 3751TIP3   OH261720   3.330   5.445  15.477
 3751TIP3    H161721   3.261   5.397  15.429
 3751TIP3    H261722   3.349   5.518  15.413
 3752TIP3   OH261723   2.134   4.172  15.416
 3752TIP3    H161724   2.044   4.208  15.413
 3752TIP3    H261725   2.125   4.089  15.465
 3753TIP3   OH261726   3.363   4.961  14.362
 3753TIP3    H161727   3.339   4.881  14.414
 3753TIP3    H261728   3.458   4.965  14.377
 3754TIP3   OH261729   2.101   5.355  15.258
 3754TIP3    H161730   2.125   5.262  15.259
 3754TIP3    H261731   2.125   5.384  15.347
 3755TIP3   OH261732   2.223   4.884  14.274
 3755TIP3    H161733   2.159   4.918  14.339
 3755TIP3    H261734   2.277   4.960  14.256
 3756TIP3   OH261735   3.009   4.153  15.312
 3756TIP3    H161736   3.081   4.156  15.374
 3756TIP3    H261737   2.973   4.062  15.327
 3757TIP3   OH261738   3.090   4.111  14.414
 3757TIP3    H161739   3.108   4.164  14.337
 3757TIP3    H261740   3.141   4.153  14.485
 3758TIP3   OH261741   2.860   5.320  14.305
 3758TIP3    H161742   2.778   5.371  14.311
 3758TIP3    H261743   2.910   5.371  14.240
 3759TIP3   OH261744   2.804   4.290  14.501
 3759TIP3    H161745   2.889   4.336  14.508
 3759TIP3    H261746   2.782   4.267  14.593
 3760TIP3   OH261747   2.895   3.993  14.593
 3760TIP3    H161748   2.860   4.056  14.658
 3760TIP3    H261749   2.964   4.045  14.546
 3761TIP3   OH261750   3.479   4.173  15.502
 3761TIP3    H161751   3.386   4.202  15.491
 3761TIP3    H261752   3.510   4.171  15.411
 3762TIP3   OH261753   3.338   4.552  14.913
 3762TIP3    H161754   3.262   4.506  14.878
 3762TIP3    H261755   3.391   4.482  14.959
 3763TIP3   OH261756   3.449   5.479  15.076
 3763TIP3    H161757   3.438   5.544  15.004
 3763TIP3    H261758   3.546   5.483  15.091
 3764TIP3   OH261759   2.197   3.889  14.953
 3764TIP3    H161760   2.177   3.893  14.857
 3764TIP3    H261761   2.156   3.804  14.977
 3765TIP3   OH261762   2.470   5.419  15.872
 3765TIP3    H161763   2.559   5.391  15.898
 3765TIP3    H261764   2.478   5.413  15.776
 3766TIP3   OH261765   3.137   5.271  15.727
 3766TIP3    H161766   3.102   5.188  15.761
 3766TIP3    H261767   3.209   5.292  15.789
 3767TIP3   OH261768   3.321   5.380  14.040
 3767TIP3    H161769   3.367   5.298  14.066
 3767TIP3    H261770   3.394   5.400  13.977
 3768TIP3   OH261771   2.010   4.924  15.791
 3768TIP3    H161772   2.024   4.832  15.765
 3768TIP3    H261773   1.933   4.952  15.740
 3769TIP3   OH261774   3.246   4.911  15.469
 3769TIP3    H161775   3.327   4.967  15.467
 3769TIP3    H261776   3.176   4.978  15.482
 3770TIP3   OH261777   2.569   4.114  15.328
 3770TIP3    H161778   2.618   4.164  15.261
 3770TIP3    H261779   2.479   4.110  15.292
 3771TIP3   OH261780   3.163   4.436  15.850
 3771TIP3    H161781   3.189   4.345  15.843
 3771TIP3    H261782   3.246   4.486  15.855
 3772TIP3   OH261783   3.296   4.722  15.666
 3772TIP3    H161784   3.266   4.793  15.606
 3772TIP3    H261785   3.391   4.719  15.645
 3773TIP3   OH261786   2.372   4.405  15.766
 3773TIP3    H161787   2.299   4.344  15.751
 3773TIP3    H261788   2.444   4.367  15.714
 3774TIP3   OH261789   2.645   3.861  15.374
 3774TIP3    H161790   2.632   3.958  15.361
 3774TIP3    H261791   2.570   3.826  15.324
 3775TIP3   OH261792   3.207   4.074  15.838
 3775TIP3    H161793   3.195   3.977  15.832
 3775TIP3    H261794   3.173   4.098  15.924
 3776TIP3   OH261795   2.175   4.194  15.740
 3776TIP3    H161796   2.209   4.122  15.684
 3776TIP3    H261797   2.181   4.155  15.830
 3777TIP3   OH261798   2.666   3.795  15.640
 3777TIP3    H161799   2.736   3.728  15.639
 3777TIP3    H261800   2.657   3.819  15.546
 3778TIP3   OH261801   1.878   5.649  14.613
 3778TIP3    H161802   1.815   5.600  14.561
 3778TIP3    H261803   1.916   5.585  14.674
 3779TIP3   OH261804   3.711   5.544  15.095
 3779TIP3    H161805   3.718   5.555  15.192
 3779TIP3    H261806   3.784   5.598  15.064
 3780TIP3   OH261807   3.676   5.500  15.388
 3780TIP3    H161808   3.629   5.423  15.352
 3780TIP3    H261809   3.731   5.458  15.457
 3781TIP3   OH261810   3.524   5.076  15.851
 3781TIP3    H161811   3.437   5.067  15.892
 3781TIP3    H261812   3.563   5.153  15.898
 3782TIP3   OH261813   3.651   4.904  14.399
 3782TIP3    H161814   3.737   4.945  14.419
 3782TIP3    H261815   3.654   4.832  14.466
 3783TIP3   OH261816   3.696   4.713  14.586
 3783TIP3    H161817   3.618   4.665  14.622
 3783TIP3    H261818   3.751   4.728  14.664
 3784TIP3   OH261819   3.667   4.983  15.084
 3784TIP3    H161820   3.749   4.948  15.048
 3784TIP3    H261821   3.679   5.079  15.068
 3785TIP3   OH261822   3.520   5.273  15.314
 3785TIP3    H161823   3.452   5.309  15.373
 3785TIP3    H261824   3.466   5.235  15.241
 3786TIP3   OH261825   3.727   4.702  14.220
 3786TIP3    H161826   3.663   4.729  14.154
 3786TIP3    H261827   3.713   4.766  14.292
 3787TIP3   OH261828   3.472   4.561  14.646
 3787TIP3    H161829   3.458   4.465  14.638
 3787TIP3    H261830   3.438   4.582  14.734
 3788TIP3   OH261831   1.973   4.773  15.045
 3788TIP3    H161832   1.992   4.759  14.950
 3788TIP3    H261833   2.059   4.751  15.087
 3789TIP3   OH261834   3.558   4.756  15.617
 3789TIP3    H161835   3.617   4.680  15.628
 3789TIP3    H261836   3.616   4.835  15.612
 3790TIP3   OH261837   3.439   4.319  14.496
 3790TIP3    H161838   3.470   4.226  14.499
 3790TIP3    H261839   3.511   4.362  14.449
 3791TIP3   OH261840   3.499   4.376  15.035
 3791TIP3    H161841   3.596   4.395  15.031
 3791TIP3    H261842   3.485   4.385  15.130
 3792TIP3   OH261843   3.507   4.446  15.307
 3792TIP3    H161844   3.421   4.476  15.346
 3792TIP3    H261845   3.552   4.532  15.293
 3793TIP3   OH261846   1.932   4.295  15.662
 3793TIP3    H161847   2.027   4.280  15.684
 3793TIP3    H261848   1.889   4.218  15.698
 3794TIP3   OH261849   3.743   3.851  15.850
 3794TIP3    H161850   3.772   3.784  15.787
 3794TIP3    H261851   3.747   3.933  15.800
 3795TIP3   OH261852   3.506   4.046  14.493
 3795TIP3    H161853   3.524   4.002  14.579
 3795TIP3    H261854   3.442   3.984  14.451
 3796TIP3   OH261855   2.052   4.128  14.954
 3796TIP3    H161856   2.100   4.047  14.977
 3796TIP3    H261857   2.108   4.199  14.988
 3797TIP3   OH261858   1.881   4.427  15.052
 3797TIP3    H161859   1.940   4.403  14.979
 3797TIP3    H261860   1.925   4.507  15.083
 3798TIP3   OH261861   3.691   4.054  14.151
 3798TIP3    H161862   3.730   3.980  14.102
 3798TIP3    H261863   3.757   4.124  14.152
 3799TIP3   OH261864   1.918   4.057  14.458
 3799TIP3    H161865   1.825   4.075  14.445
 3799TIP3    H261866   1.964   4.104  14.387
 3800TIP3   OH261867   3.393   5.550  14.654
 3800TIP3    H161868   3.464   5.521  14.593
 3800TIP3    H261869   3.446   5.600  14.719
 3801TIP3   OH261870   3.092   5.614  15.550
 3801TIP3    H161871   3.161   5.548  15.535
 3801TIP3    H261872   3.123   5.652  15.635
 3802TIP3   OH261873   2.156   5.663  15.325
 3802TIP3    H161874   2.082   5.716  15.294
 3802TIP3    H261875   2.132   5.641  15.417
 3803TIP3   OH261876   3.118   5.496  15.248
 3803TIP3    H161877   3.028   5.523  15.233
 3803TIP3    H261878   3.166   5.581  15.254
 3804TIP3   OH261879   3.375   5.652  15.283
 3804TIP3    H161880   3.367   5.748  15.261
 3804TIP3    H261881   3.398   5.616  15.196
 3805TIP3   OH261882   2.112   5.533  15.029
 3805TIP3    H161883   2.111   5.489  15.117
 3805TIP3    H261884   2.194   5.498  14.989
 3806TIP3   OH261885   2.323   5.401  14.901
 3806TIP3    H161886   2.305   5.308  14.915
 3806TIP3    H261887   2.408   5.412  14.943
 3807TIP3   OH261888   2.929   4.013  14.895
 3807TIP3    H161889   2.861   3.950  14.922
 3807TIP3    H261890   2.983   3.962  14.835
 3808TIP3   OH261891   3.609   3.941  14.729
 3808TIP3    H161892   3.679   3.885  14.689
 3808TIP3    H261893   3.657   4.025  14.744
 3809TIP3   OH261894   2.168   3.879  14.679
 3809TIP3    H161895   2.087   3.861  14.629
 3809TIP3    H261896   2.215   3.794  14.677
 3810TIP3   OH261897   2.613   3.872  14.662
 3810TIP3    H161898   2.703   3.907  14.652
 3810TIP3    H261899   2.613   3.845  14.754
 3811TIP3   OH261900   3.312   3.874  14.391
 3811TIP3    H161901   3.239   3.935  14.372
 3811TIP3    H261902   3.265   3.792  14.408
 3812TIP3   OH261903   2.037   5.449  14.347
 3812TIP3    H161904   1.969   5.450  14.280
 3812TIP3    H261905   2.036   5.540  14.379
 3813TIP3   OH261906   2.228   4.041  14.101
 3813TIP3    H161907   2.285   3.985  14.049
 3813TIP3    H261908   2.289   4.080  14.163
 3814TIP3   OH261909   3.592   5.531  14.461
 3814TIP3    H161910   3.576   5.451  14.405
 3814TIP3    H261911   3.590   5.600  14.394
 3815TIP3   OH261912   2.153   3.929  15.623
 3815TIP3    H161913   2.122   3.853  15.673
 3815TIP3    H261914   2.245   3.929  15.658
 3816TIP3   OH261915   2.350   3.864  15.787
 3816TIP3    H161916   2.441   3.835  15.763
 3816TIP3    H261917   2.316   3.785  15.832
 3817TIP3   OH261918   3.204   3.806  15.807
 3817TIP3    H161919   3.206   3.746  15.883
 3817TIP3    H261920   3.291   3.793  15.767
 3818TIP3   OH261921   3.515   5.400  15.674
 3818TIP3    H161922   3.437   5.389  15.615
 3818TIP3    H261923   3.506   5.497  15.688
 3819TIP3   OH261924   4.173   5.128  15.031
 3819TIP3    H161925   4.141   5.047  14.992
 3819TIP3    H261926   4.268   5.112  15.035
 3820TIP3   OH261927   3.840   4.483  14.570
 3820TIP3    H161928   3.796   4.571  14.565
 3820TIP3    H261929   3.780   4.433  14.515
 3821TIP3   OH261930   3.915   4.712  14.787
 3821TIP3    H161931   3.933   4.625  14.824
 3821TIP3    H261932   3.978   4.718  14.714
 3822TIP3   OH261933   4.689   4.965  15.052
 3822TIP3    H161934   4.716   4.891  14.998
 3822TIP3    H261935   4.756   4.970  15.120
 3823TIP3   OH261936   5.548   4.117  15.143
 3823TIP3    H161937   5.561   4.184  15.214
 3823TIP3    H261938   5.598   4.160  15.071
 3824TIP3   OH261939   4.999   4.400  15.091
 3824TIP3    H161940   5.016   4.305  15.093
 3824TIP3    H261941   4.990   4.419  14.997
 3825TIP3   OH261942   5.087   4.225  14.657
 3825TIP3    H161943   5.153   4.186  14.715
 3825TIP3    H261944   5.141   4.272  14.592
 3826TIP3   OH261945   5.586   4.262  15.366
 3826TIP3    H161946   5.524   4.337  15.352
 3826TIP3    H261947   5.591   4.256  15.462
 3827TIP3   OH261948   4.300   5.065  15.325
 3827TIP3    H161949   4.299   5.156  15.297
 3827TIP3    H261950   4.214   5.059  15.371
 3828TIP3   OH261951   3.899   5.031  14.407
 3828TIP3    H161952   3.881   5.061  14.316
 3828TIP3    H261953   3.915   5.114  14.456
 3829TIP3   OH261954   4.857   4.578  14.122
 3829TIP3    H161955   4.912   4.559  14.197
 3829TIP3    H261956   4.858   4.499  14.066
 3830TIP3   OH261957   5.562   4.651  15.242
 3830TIP3    H161958   5.499   4.724  15.254
 3830TIP3    H261959   5.615   4.680  15.165
 3831TIP3   OH261960   5.168   4.554  15.418
 3831TIP3    H161961   5.167   4.632  15.475
 3831TIP3    H261962   5.097   4.579  15.356
 3832TIP3   OH261963   4.834   5.328  14.621
 3832TIP3    H161964   4.876   5.356  14.704
 3832TIP3    H261965   4.769   5.397  14.603
 3833TIP3   OH261966   3.834   4.946  15.348
 3833TIP3    H161967   3.791   4.938  15.261
 3833TIP3    H261968   3.846   4.852  15.374
 3834TIP3   OH261969   3.819   5.217  15.035
 3834TIP3    H161970   3.914   5.212  15.027
 3834TIP3    H261971   3.803   5.301  15.081
 3835TIP3   OH261972   5.054   5.534  14.443
 3835TIP3    H161973   4.960   5.540  14.461
 3835TIP3    H261974   5.080   5.463  14.503
 3836TIP3   OH261975   5.351   4.434  15.647
 3836TIP3    H161976   5.308   4.482  15.575
 3836TIP3    H261977   5.348   4.345  15.614
 3837TIP3   OH261978   4.066   5.075  15.447
 3837TIP3    H161979   4.089   5.041  15.534
 3837TIP3    H261980   3.980   5.035  15.425
 3838TIP3   OH261981   4.325   3.909  15.042
 3838TIP3    H161982   4.238   3.908  15.001
 3838TIP3    H261983   4.331   3.997  15.081
 3839TIP3   OH261984   3.772   4.158  14.736
 3839TIP3    H161985   3.840   4.154  14.805
 3839TIP3    H261986   3.816   4.122  14.657
 3840TIP3   OH261987   4.921   4.592  15.278
 3840TIP3    H161988   4.945   4.526  15.210
 3840TIP3    H261989   4.874   4.540  15.343
 3841TIP3   OH261990   4.443   4.343  14.402
 3841TIP3    H161991   4.535   4.359  14.426
 3841TIP3    H261992   4.422   4.414  14.343
 3842TIP3   OH261993   5.359   5.681  15.713
 3842TIP3    H161994   5.386   5.718  15.626
 3842TIP3    H261995   5.432   5.707  15.772
 3843TIP3   OH261996   4.735   4.463  14.947
 3843TIP3    H161997   4.776   4.404  14.884
 3843TIP3    H261998   4.710   4.409  15.021
 3844TIP3   OH261999   5.365   4.830  15.228
 3844TIP3    H162000   5.423   4.888  15.179
 3844TIP3    H262001   5.278   4.847  15.192
 3845TIP3   OH262002   5.106   4.392  14.335
 3845TIP3    H162003   5.194   4.379  14.376
 3845TIP3    H262004   5.115   4.473  14.286
 3846TIP3   OH262005   3.856   4.700  15.462
 3846TIP3    H162006   3.877   4.654  15.544
 3846TIP3    H262007   3.794   4.637  15.421
 3847TIP3   OH262008   5.586   4.409  14.316
 3847TIP3    H162009   5.535   4.381  14.238
 3847TIP3    H262010   5.599   4.502  14.288
 3848TIP3   OH262011   5.425   5.292  14.360
 3848TIP3    H162012   5.388   5.209  14.389
 3848TIP3    H262013   5.452   5.277  14.268
 3849TIP3   OH262014   4.459   5.151  14.231
 3849TIP3    H162015   4.479   5.103  14.312
 3849TIP3    H262016   4.462   5.243  14.260
 3850TIP3   OH262017   5.229   4.552  14.906
 3850TIP3    H162018   5.149   4.506  14.882
 3850TIP3    H262019   5.277   4.483  14.960
 3851TIP3   OH262020   3.973   5.277  14.558
 3851TIP3    H162021   3.894   5.331  14.568
 3851TIP3    H262022   4.033   5.332  14.508
 3852TIP3   OH262023   3.899   5.546  15.701
 3852TIP3    H162024   3.960   5.523  15.772
 3852TIP3    H262025   3.861   5.460  15.677
 3853TIP3   OH262026   3.879   4.922  15.796
 3853TIP3    H162027   3.910   4.838  15.761
 3853TIP3    H262028   3.814   4.952  15.733
 3854TIP3   OH262029   4.559   4.927  15.756
 3854TIP3    H162030   4.529   4.954  15.667
 3854TIP3    H262031   4.579   4.835  15.735
 3855TIP3   OH262032   4.525   3.850  15.364
 3855TIP3    H162033   4.520   3.946  15.364
 3855TIP3    H262034   4.446   3.820  15.318
 3856TIP3   OH262035   4.077   4.195  15.739
 3856TIP3    H162036   4.094   4.120  15.681
 3856TIP3    H262037   4.065   4.154  15.825
 3857TIP3   OH262038   3.898   5.110  14.116
 3857TIP3    H162039   3.993   5.120  14.133
 3857TIP3    H262040   3.897   5.048  14.042
 3858TIP3   OH262041   5.578   4.714  14.586
 3858TIP3    H162042   5.502   4.664  14.623
 3858TIP3    H262043   5.635   4.729  14.663
 3859TIP3   OH262044   5.363   4.561  14.646
 3859TIP3    H162045   5.341   4.467  14.638
 3859TIP3    H262046   5.321   4.585  14.730
 3860TIP3   OH262047   3.862   4.766  15.047
 3860TIP3    H162048   3.878   4.760  14.950
 3860TIP3    H262049   3.949   4.755  15.086
 3861TIP3   OH262050   5.595   4.545  15.677
 3861TIP3    H162051   5.505   4.511  15.662
 3861TIP3    H262052   5.648   4.466  15.669
 3862TIP3   OH262053   5.327   4.316  14.487
 3862TIP3    H162054   5.354   4.224  14.503
 3862TIP3    H262055   5.405   4.363  14.454
 3863TIP3   OH262056   5.387   4.377  15.035
 3863TIP3    H162057   5.484   4.394  15.032
 3863TIP3    H262058   5.371   4.383  15.130
 3864TIP3   OH262059   5.392   4.448  15.311
 3864TIP3    H162060   5.306   4.478  15.347
 3864TIP3    H262061   5.438   4.533  15.289
 3865TIP3   OH262062   5.623   3.849  15.844
 3865TIP3    H162063   5.659   3.783  15.784
 3865TIP3    H262064   5.632   3.933  15.796
 3866TIP3   OH262065   5.396   4.045  14.486
 3866TIP3    H162066   5.405   4.010  14.577
 3866TIP3    H262067   5.325   3.986  14.450
 3867TIP3   OH262068   3.768   4.430  15.048
 3867TIP3    H162069   3.824   4.400  14.975
 3867TIP3    H262070   3.812   4.509  15.082
 3868TIP3   OH262071   5.572   4.062  15.681
 3868TIP3    H162072   5.479   4.087  15.678
 3868TIP3    H262073   5.583   4.009  15.601
 3869TIP3   OH262074   3.806   4.056  14.457
 3869TIP3    H162075   3.710   4.072  14.447
 3869TIP3    H262076   3.847   4.103  14.387
 3870TIP3   OH262077   3.799   3.921  15.288
 3870TIP3    H162078   3.733   3.903  15.355
 3870TIP3    H262079   3.752   3.989  15.234
 3871TIP3   OH262080   4.052   3.879  14.679
 3871TIP3    H162081   3.973   3.857  14.628
 3871TIP3    H262082   4.099   3.794  14.676
 3872TIP3   OH262083   3.932   3.852  14.255
 3872TIP3    H162084   3.978   3.916  14.199
 3872TIP3    H262085   3.870   3.904  14.307
 3873TIP3   OH262086   5.201   3.875  14.392
 3873TIP3    H162087   5.128   3.937  14.376
 3873TIP3    H262088   5.156   3.792  14.409
 3874TIP3   OH262089   5.488   5.532  14.453
 3874TIP3    H162090   5.458   5.450  14.406
 3874TIP3    H262091   5.461   5.598  14.391
 3875TIP3   OH262092   4.038   3.926  15.630
 3875TIP3    H162093   4.006   3.848  15.675
 3875TIP3    H262094   4.131   3.926  15.661
 3876TIP3   OH262095   4.242   3.864  15.782
 3876TIP3    H162096   4.332   3.835  15.764
 3876TIP3    H262097   4.203   3.789  15.831
 3877TIP3   OH262098   5.405   5.408  15.664
 3877TIP3    H162099   5.322   5.385  15.622
 3877TIP3    H262100   5.390   5.501  15.691
 3878TIP3   OH262101   5.969   4.682  15.174
 3878TIP3    H162102   5.977   4.615  15.244
 3878TIP3    H262103   6.042   4.742  15.195
 3879TIP3   OH262104   6.061   5.128  15.023
 3879TIP3    H162105   6.027   5.043  14.989
 3879TIP3    H262106   6.156   5.108  15.026
 3880TIP3   OH262107   5.728   4.487  14.556
 3880TIP3    H162108   5.683   4.575  14.568
 3880TIP3    H262109   5.658   4.438  14.516
 3881TIP3   OH262110   5.795   4.708  14.784
 3881TIP3    H162111   5.821   4.626  14.830
 3881TIP3    H262112   5.865   4.718  14.719
 3882TIP3   OH262113   6.803   5.513  14.862
 3882TIP3    H162114   6.883   5.459  14.845
 3882TIP3    H262115   6.795   5.500  14.958
 3883TIP3   OH262116   6.568   4.956  15.063
 3883TIP3    H162117   6.603   4.897  14.995
 3883TIP3    H262118   6.648   4.974  15.116
 3884TIP3   OH262119   7.430   4.124  15.145
 3884TIP3    H162120   7.446   4.183  15.219
 3884TIP3    H262121   7.482   4.168  15.076
 3885TIP3   OH262122   5.862   4.455  14.892
 3885TIP3    H162123   5.928   4.397  14.935
 3885TIP3    H262124   5.871   4.423  14.802
 3886TIP3   OH262125   6.377   4.609  14.818
 3886TIP3    H162126   6.443   4.552  14.861
 3886TIP3    H262127   6.326   4.541  14.771
 3887TIP3   OH262128   6.088   4.104  15.220
 3887TIP3    H162129   6.058   4.159  15.146
 3887TIP3    H262130   6.019   4.124  15.289
 3888TIP3   OH262131   6.818   5.050  14.578
 3888TIP3    H162132   6.790   5.019  14.491
 3888TIP3    H262133   6.788   5.140  14.585
 3889TIP3   OH262134   6.340   4.866  15.245
 3889TIP3    H162135   6.269   4.930  15.266
 3889TIP3    H262136   6.411   4.926  15.216
 3890TIP3   OH262137   7.150   4.152  14.857
 3890TIP3    H162138   7.128   4.075  14.910
 3890TIP3    H262139   7.215   4.204  14.907
 3891TIP3   OH262140   6.045   4.288  15.019
 3891TIP3    H162141   6.108   4.355  15.055
 3891TIP3    H262142   6.096   4.246  14.948
 3892TIP3   OH262143   6.181   5.067  15.327
 3892TIP3    H162144   6.178   5.158  15.292
 3892TIP3    H262145   6.095   5.055  15.369
 3893TIP3   OH262146   7.185   4.023  15.229
 3893TIP3    H162147   7.111   4.081  15.213
 3893TIP3    H262148   7.254   4.061  15.172
 3894TIP3   OH262149   6.979   5.373  14.733
 3894TIP3    H162150   7.031   5.301  14.694
 3894TIP3    H262151   7.022   5.453  14.703
 3895TIP3   OH262152   6.218   4.803  14.700
 3895TIP3    H162153   6.188   4.764  14.614
 3895TIP3    H262154   6.278   4.734  14.736
 3896TIP3   OH262155   6.350   5.140  14.972
 3896TIP3    H162156   6.346   5.086  14.892
 3896TIP3    H262157   6.430   5.105  15.014
 3897TIP3   OH262158   6.254   4.674  15.069
 3897TIP3    H162159   6.308   4.689  14.989
 3897TIP3    H262160   6.289   4.743  15.130
 3898TIP3   OH262161   6.889   5.232  15.136
 3898TIP3    H162162   6.868   5.298  15.204
 3898TIP3    H262163   6.868   5.147  15.180
 3899TIP3   OH262164   6.346   5.120  15.538
 3899TIP3    H162165   6.307   5.194  15.587
 3899TIP3    H262166   6.280   5.099  15.468
 3900TIP3   OH262167   6.040   4.740  15.456
 3900TIP3    H162168   6.040   4.804  15.527
 3900TIP3    H262169   5.945   4.744  15.431
 3901TIP3   OH262170   6.728   5.317  14.660
 3901TIP3    H162171   6.788   5.349  14.730
 3901TIP3    H262172   6.666   5.386  14.679
 3902TIP3   OH262173   6.168   5.318  15.612
 3902TIP3    H162174   6.167   5.315  15.515
 3902TIP3    H262175   6.075   5.314  15.638
 3903TIP3   OH262176   6.119   4.706  14.463
 3903TIP3    H162177   6.089   4.783  14.411
 3903TIP3    H262178   6.051   4.641  14.442
 3904TIP3   OH262179   5.731   4.948  15.342
 3904TIP3    H162180   5.681   4.937  15.261
 3904TIP3    H262181   5.729   4.856  15.377
 3905TIP3   OH262182   6.618   5.249  15.482
 3905TIP3    H162183   6.625   5.329  15.538
 3905TIP3    H262184   6.535   5.207  15.511
 3906TIP3   OH262185   6.659   5.616  14.461
 3906TIP3    H162186   6.656   5.626  14.363
 3906TIP3    H262187   6.665   5.714  14.484
 3907TIP3   OH262188   6.030   5.506  14.646
 3907TIP3    H162189   6.044   5.466  14.735
 3907TIP3    H262190   5.944   5.465  14.624
 3908TIP3   OH262191   6.932   5.526  14.434
 3908TIP3    H162192   6.847   5.553  14.467
 3908TIP3    H262193   6.971   5.465  14.499
 3909TIP3   OH262194   6.221   3.931  15.039
 3909TIP3    H162195   6.130   3.913  15.006
 3909TIP3    H262196   6.206   4.009  15.094
 3910TIP3   OH262197   6.225   4.420  15.162
 3910TIP3    H162198   6.156   4.420  15.231
 3910TIP3    H262199   6.226   4.513  15.131
 3911TIP3   OH262200   6.766   4.479  14.523
 3911TIP3    H162201   6.736   4.567  14.501
 3911TIP3    H262202   6.845   4.465  14.470
 3912TIP3   OH262203   5.991   4.450  15.337
 3912TIP3    H162204   5.998   4.489  15.426
 3912TIP3    H262205   5.949   4.365  15.356
 3913TIP3   OH262206   5.665   4.172  14.728
 3913TIP3    H162207   5.718   4.155  14.808
 3913TIP3    H262208   5.701   4.109  14.665
 3914TIP3   OH262209   5.782   4.292  14.205
 3914TIP3    H162210   5.863   4.343  14.191
 3914TIP3    H262211   5.726   4.346  14.268
 3915TIP3   OH262212   5.961   4.345  14.639
 3915TIP3    H162213   5.873   4.361  14.603
 3915TIP3    H262214   5.997   4.262  14.605
 3916TIP3   OH262215   6.331   4.344  14.396
 3916TIP3    H162216   6.421   4.363  14.424
 3916TIP3    H262217   6.304   4.418  14.340
 3917TIP3   OH262218   6.922   4.113  15.081
 3917TIP3    H162219   6.853   4.117  15.148
 3917TIP3    H262220   6.872   4.092  15.001
 3918TIP3   OH262221   6.196   4.460  14.163
 3918TIP3    H162222   6.140   4.434  14.088
 3918TIP3    H262223   6.275   4.485  14.114
 3919TIP3   OH262224   6.106   4.081  14.577
 3919TIP3    H162225   6.083   3.987  14.591
 3919TIP3    H262226   6.192   4.075  14.533
 3920TIP3   OH262227   6.472   4.301  15.187
 3920TIP3    H162228   6.390   4.352  15.197
 3920TIP3    H262229   6.527   4.331  15.260
 3921TIP3   OH262230   6.046   4.858  14.936
 3921TIP3    H162231   6.114   4.851  14.865
 3921TIP3    H262232   6.051   4.771  14.980
 3922TIP3   OH262233   5.751   4.693  15.455
 3922TIP3    H162234   5.757   4.662  15.547
 3922TIP3    H262235   5.677   4.640  15.420
 3923TIP3   OH262236   6.908   5.186  15.475
 3923TIP3    H162237   6.816   5.208  15.451
 3923TIP3    H262238   6.911   5.210  15.567
 3924TIP3   OH262239   7.310   5.287  14.361
 3924TIP3    H162240   7.271   5.205  14.390
 3924TIP3    H262241   7.334   5.272  14.269
 3925TIP3   OH262242   6.280   5.204  14.669
 3925TIP3    H162243   6.325   5.287  14.655
 3925TIP3    H262244   6.189   5.226  14.644
 3926TIP3   OH262245   5.853   4.681  14.141
 3926TIP3    H162246   5.915   4.752  14.162
 3926TIP3    H262247   5.771   4.727  14.156
 3927TIP3   OH262248   6.426   4.974  14.632
 3927TIP3    H162249   6.388   5.062  14.634
 3927TIP3    H262250   6.351   4.922  14.666
 3928TIP3   OH262251   6.468   5.391  15.266
 3928TIP3    H162252   6.515   5.471  15.237
 3928TIP3    H262253   6.529   5.354  15.333
 3929TIP3   OH262254   6.296   5.473  14.578
 3929TIP3    H162255   6.198   5.481  14.591
 3929TIP3    H262256   6.322   5.558  14.618
 3930TIP3   OH262257   6.823   4.988  15.226
 3930TIP3    H162258   6.790   4.975  15.316
 3930TIP3    H262259   6.887   4.918  15.214
 3931TIP3   OH262260   5.908   4.173  15.415
 3931TIP3    H162261   5.817   4.208  15.413
 3931TIP3    H262262   5.899   4.089  15.462
 3932TIP3   OH262263   5.873   5.357  15.259
 3932TIP3    H162264   5.895   5.263  15.254
 3932TIP3    H262265   5.896   5.383  15.348
 3933TIP3   OH262266   6.344   5.162  14.228
 3933TIP3    H162267   6.366   5.102  14.301
 3933TIP3    H262268   6.347   5.251  14.263
 3934TIP3   OH262269   6.001   4.881  14.281
 3934TIP3    H162270   5.930   4.922  14.332
 3934TIP3    H262271   6.048   4.960  14.251
 3935TIP3   OH262272   6.628   5.335  14.300
 3935TIP3    H162273   6.535   5.365  14.281
 3935TIP3    H262274   6.677   5.369  14.222
 3936TIP3   OH262275   6.376   5.432  14.313
 3936TIP3    H162276   6.374   5.511  14.252
 3936TIP3    H262277   6.327   5.464  14.392
 3937TIP3   OH262278   6.222   4.098  14.276
 3937TIP3    H162279   6.231   4.193  14.298
 3937TIP3    H262280   6.315   4.074  14.287
 3938TIP3   OH262281   7.254   4.179  15.504
 3938TIP3    H162282   7.158   4.197  15.497
 3938TIP3    H262283   7.283   4.169  15.414
 3939TIP3   OH262284   6.055   5.149  14.165
 3939TIP3    H162285   6.124   5.207  14.199
 3939TIP3    H262286   6.103   5.097  14.098
 3940TIP3   OH262287   7.223   5.473  15.067
 3940TIP3    H162288   7.207   5.548  15.010
 3940TIP3    H262289   7.314   5.482  15.097
 3941TIP3   OH262290   5.972   3.889  14.952
 3941TIP3    H162291   5.948   3.893  14.857
 3941TIP3    H262292   5.926   3.806  14.978
 3942TIP3   OH262293   5.868   5.284  14.571
 3942TIP3    H162294   5.782   5.326  14.562
 3942TIP3    H262295   5.913   5.328  14.497
 3943TIP3   OH262296   5.787   5.545  15.695
 3943TIP3    H162297   5.845   5.528  15.773
 3943TIP3    H262298   5.744   5.460  15.681
 3944TIP3   OH262299   6.252   5.436  15.857
 3944TIP3    H162300   6.328   5.387  15.890
 3944TIP3    H262301   6.251   5.412  15.763
 3945TIP3   OH262302   5.876   4.649  15.736
 3945TIP3    H162303   5.907   4.559  15.726
 3945TIP3    H262304   5.837   4.650  15.824
 3946TIP3   OH262305   6.333   4.756  14.237
 3946TIP3    H162306   6.285   4.707  14.306
 3946TIP3    H262307   6.359   4.690  14.174
 3947TIP3   OH262308   6.257   4.540  15.470
 3947TIP3    H162309   6.200   4.613  15.500
 3947TIP3    H262310   6.298   4.579  15.391
 3948TIP3   OH262311   6.301   4.280  15.575
 3948TIP3    H162312   6.311   4.208  15.511
 3948TIP3    H262313   6.293   4.361  15.521
 3949TIP3   OH262314   6.341   4.116  15.328
 3949TIP3    H162315   6.391   4.164  15.260
 3949TIP3    H262316   6.250   4.109  15.293
 3950TIP3   OH262317   6.489   4.660  15.346
 3950TIP3    H162318   6.569   4.647  15.295
 3950TIP3    H262319   6.458   4.749  15.320
 3951TIP3   OH262320   6.933   4.438  15.858
 3951TIP3    H162321   6.959   4.348  15.844
 3951TIP3    H262322   7.018   4.484  15.856
 3952TIP3   OH262323   6.146   4.405  15.769
 3952TIP3    H162324   6.070   4.346  15.752
 3952TIP3    H262325   6.212   4.364  15.708
 3953TIP3   OH262326   6.418   3.859  15.363
 3953TIP3    H162327   6.402   3.956  15.362
 3953TIP3    H262328   6.337   3.825  15.323
 3954TIP3   OH262329   6.543   4.306  15.735
 3954TIP3    H162330   6.517   4.272  15.820
 3954TIP3    H262331   6.469   4.278  15.678
 3955TIP3   OH262332   5.956   4.199  15.745
 3955TIP3    H162333   5.977   4.126  15.684
 3955TIP3    H262334   5.948   4.151  15.830
 3956TIP3   OH262335   6.428   5.650  14.162
 3956TIP3    H162336   6.523   5.667  14.172
 3956TIP3    H262337   6.403   5.720  14.101
 3957TIP3   OH262338   5.657   5.654  14.608
 3957TIP3    H162339   5.585   5.598  14.571
 3957TIP3    H262340   5.687   5.591  14.678
 3958TIP3   OH262341   5.737   5.463  14.796
 3958TIP3    H162342   5.705   5.374  14.819
 3958TIP3    H262343   5.764   5.495  14.885
 3959TIP3   OH262344   7.288   5.278  15.313
 3959TIP3    H162345   7.220   5.309  15.373
 3959TIP3    H262346   7.238   5.230  15.246
 3960TIP3   OH262347   5.742   4.764  15.051
 3960TIP3    H162348   5.761   4.765  14.954
 3960TIP3    H262349   5.832   4.756  15.087
 3961TIP3   OH262350   7.210   4.316  14.475
 3961TIP3    H162351   7.241   4.228  14.505
 3961TIP3    H262352   7.292   4.361  14.454
 3962TIP3   OH262353   7.276   4.362  15.033
 3962TIP3    H162354   7.367   4.400  15.027
 3962TIP3    H262355   7.250   4.388  15.121
 3963TIP3   OH262356   5.707   4.295  15.661
 3963TIP3    H162357   5.801   4.280  15.684
 3963TIP3    H262358   5.662   4.215  15.697
 3964TIP3   OH262359   7.276   4.040  14.491
 3964TIP3    H162360   7.293   4.002  14.578
 3964TIP3    H262361   7.213   3.982  14.450
 3965TIP3   OH262362   5.824   4.127  14.950
 3965TIP3    H162363   5.873   4.047  14.977
 3965TIP3    H262364   5.876   4.197  14.991
 3966TIP3   OH262365   5.654   4.426  15.056
 3966TIP3    H162366   5.710   4.405  14.979
 3966TIP3    H262367   5.697   4.509  15.082
 3967TIP3   OH262368   5.656   4.044  14.503
 3967TIP3    H162369   5.565   4.059  14.466
 3967TIP3    H262370   5.722   4.020  14.444
 3968TIP3   OH262371   5.683   3.923  15.293
 3968TIP3    H162372   5.616   3.900  15.356
 3968TIP3    H262373   5.639   3.989  15.236
 3969TIP3   OH262374   6.195   5.340  15.333
 3969TIP3    H162375   6.162   5.428  15.306
 3969TIP3    H262376   6.289   5.350  15.305
 3970TIP3   OH262377   6.631   5.482  15.628
 3970TIP3    H162378   6.646   5.450  15.720
 3970TIP3    H262379   6.719   5.511  15.600
 3971TIP3   OH262380   7.361   3.871  15.460
 3971TIP3    H162381   7.275   3.899  15.426
 3971TIP3    H262382   7.379   3.788  15.413
 3972TIP3   OH262383   5.941   5.663  15.341
 3972TIP3    H162384   5.869   5.710  15.294
 3972TIP3    H262385   5.904   5.642  15.427
 3973TIP3   OH262386   6.190   5.624  15.241
 3973TIP3    H162387   6.102   5.639  15.281
 3973TIP3    H262388   6.180   5.682  15.164
 3974TIP3   OH262389   6.654   5.613  15.163
 3974TIP3    H162390   6.615   5.667  15.094
 3974TIP3    H262391   6.674   5.678  15.234
 3975TIP3   OH262392   6.888   5.501  15.260
 3975TIP3    H162393   6.801   5.522  15.226
 3975TIP3    H262394   6.935   5.584  15.247
 3976TIP3   OH262395   5.886   5.530  15.026
 3976TIP3    H162396   5.880   5.484  15.113
 3976TIP3    H262397   5.968   5.492  14.990
 3977TIP3   OH262398   6.095   5.400  14.892
 3977TIP3    H162399   6.076   5.307  14.915
 3977TIP3    H262400   6.179   5.416  14.940
 3978TIP3   OH262401   6.354   5.448  14.977
 3978TIP3    H162402   6.368   5.354  14.958
 3978TIP3    H262403   6.360   5.447  15.074
 3979TIP3   OH262404   7.212   3.824  14.904
 3979TIP3    H162405   7.274   3.877  14.853
 3979TIP3    H262406   7.125   3.854  14.875
 3980TIP3   OH262407   5.938   3.879  14.673
 3980TIP3    H162408   5.855   3.850  14.633
 3980TIP3    H262409   5.986   3.793  14.676
 3981TIP3   OH262410   5.830   3.865  14.271
 3981TIP3    H162411   5.860   3.909  14.188
 3981TIP3    H262412   5.742   3.890  14.295
 3982TIP3   OH262413   5.808   5.449  14.351
 3982TIP3    H162414   5.739   5.444  14.282
 3982TIP3    H262415   5.810   5.542  14.372
 3983TIP3   OH262416   5.999   4.044  14.115
 3983TIP3    H162417   6.048   3.988  14.052
 3983TIP3    H262418   6.077   4.079  14.164
 3984TIP3   OH262419   6.698   5.567  14.192
 3984TIP3    H162420   6.780   5.613  14.167
 3984TIP3    H262421   6.672   5.531  14.105
 3985TIP3   OH262422   5.926   3.929  15.627
 3985TIP3    H162423   5.889   3.850  15.669
 3985TIP3    H262424   6.018   3.926  15.662
 3986TIP3   OH262425   6.127   3.867  15.789
 3986TIP3    H162426   6.215   3.835  15.759
 3986TIP3    H262427   6.089   3.786  15.829
 3987TIP3   OH262428   5.989   5.548  14.050
 3987TIP3    H162429   5.961   5.569  14.139
 3987TIP3    H262430   6.063   5.488  14.066
 3988TIP3   OH262431   7.856   4.682  15.172
 3988TIP3    H162432   7.859   4.619  15.246
 3988TIP3    H262433   7.931   4.740  15.192
 3989TIP3   OH262434   7.942   5.125  15.027
 3989TIP3    H162435   7.913   5.040  14.989
 3989TIP3    H262436   8.038   5.111  15.030
 3990TIP3   OH262437   7.685   4.705  14.780
 3990TIP3    H162438   7.708   4.626  14.830
 3990TIP3    H262439   7.758   4.718  14.719
 3991TIP3   OH262440   8.049   5.074  15.308
 3991TIP3    H162441   8.059   5.170  15.298
 3991TIP3    H262442   7.977   5.069  15.373
 3992TIP3   OH262443   8.084   4.804  14.700
 3992TIP3    H162444   8.071   4.767  14.610
 3992TIP3    H262445   8.157   4.748  14.735
 3993TIP3   OH262446   8.051   5.328  15.614
 3993TIP3    H162447   8.055   5.310  15.519
 3993TIP3    H262448   7.959   5.307  15.636
 3994TIP3   OH262449   8.005   4.706  14.463
 3994TIP3    H162450   7.975   4.783  14.411
 3994TIP3    H262451   7.934   4.645  14.441
 3995TIP3   OH262452   7.588   5.221  15.029
 3995TIP3    H162453   7.684   5.206  15.027
 3995TIP3    H262454   7.580   5.298  15.085
 3996TIP3   OH262455   7.833   5.086  15.455
 3996TIP3    H162456   7.863   5.036  15.534
 3996TIP3    H262457   7.755   5.035  15.427
 3997TIP3   OH262458   7.893   4.925  15.671
 3997TIP3    H162459   7.971   4.948  15.725
 3997TIP3    H262460   7.819   4.942  15.729
 3998TIP3   OH262461   7.929   4.854  14.935
 3998TIP3    H162462   8.002   4.853  14.870
 3998TIP3    H262463   7.941   4.769  14.980
 3999TIP3   OH262464   7.754   5.351  15.262
 3999TIP3    H162465   7.785   5.259  15.259
 3999TIP3    H262466   7.786   5.380  15.347
 4000TIP3   OH262467   7.882   4.882  14.283
 4000TIP3    H162468   7.813   4.924  14.335
 4000TIP3    H262469   7.932   4.960  14.254
 4001TIP3   OH262470   7.941   5.139  14.171
 4001TIP3    H162471   8.000   5.210  14.199
 4001TIP3    H262472   7.990   5.100  14.097
 4002TIP3   OH262473   7.751   5.280  14.566
 4002TIP3    H162474   7.667   5.327  14.567
 4002TIP3    H262475   7.799   5.333  14.502
 4003TIP3   OH262476   7.685   5.542  15.697
 4003TIP3    H162477   7.735   5.523  15.777
 4003TIP3    H262478   7.630   5.465  15.681
 4004TIP3   OH262479   7.624   4.763  15.043
 4004TIP3    H162480   7.648   4.765  14.948
 4004TIP3    H262481   7.711   4.754  15.086
 4005TIP3   OH262482   7.540   4.431  15.052
 4005TIP3    H162483   7.597   4.407  14.977
 4005TIP3    H262484   7.582   4.512  15.085
 4006TIP3   OH262485   7.572   3.918  15.289
 4006TIP3    H162486   7.507   3.902  15.361
 4006TIP3    H262487   7.526   3.988  15.240
 4007TIP3   OH262488   7.791   5.240  15.710
 4007TIP3    H162489   7.708   5.258  15.664
 4007TIP3    H262490   7.766   5.238  15.803
 4008TIP3   OH262491   8.082   5.341  15.332
 4008TIP3    H162492   8.048   5.429  15.304
 4008TIP3    H262493   8.177   5.352  15.309
 4009TIP3   OH262494   7.826   5.670  15.339
 4009TIP3    H162495   7.752   5.711  15.295
 4009TIP3    H262496   7.790   5.643  15.425
 4010TIP3   OH262497   8.057   5.599  15.228
 4010TIP3    H162498   7.983   5.632  15.283
 4010TIP3    H262499   8.072   5.677  15.170
 4011TIP3   OH262500   7.981   5.403  14.892
 4011TIP3    H162501   7.958   5.311  14.914
 4011TIP3    H262502   8.062   5.412  14.942
 4012TIP3   OH262503   7.699   5.452  14.341
 4012TIP3    H162504   7.624   5.449  14.281
 4012TIP3    H262505   7.690   5.540  14.378
 4013TIP3   OH262506   7.873   5.541  14.049
 4013TIP3    H162507   7.848   5.572  14.136
 4013TIP3    H262508   7.954   5.494  14.066
 4014TIP3   OH262509   1.448   6.899  14.847
 4014TIP3    H162510   1.407   6.825  14.893
 4014TIP3    H262511   1.446   6.969  14.914
 4015TIP3   OH262512   0.404   7.017  15.020
 4015TIP3    H162513   0.367   6.931  14.996
 4015TIP3    H262514   0.499   6.997  15.030
 4016TIP3   OH262515   0.084   6.399  14.496
 4016TIP3    H162516   0.035   6.459  14.556
 4016TIP3    H262517   0.021   6.328  14.492
 4017TIP3   OH262518   1.158   7.403  14.863
 4017TIP3    H162519   1.225   7.338  14.842
 4017TIP3    H262520   1.136   7.381  14.954
 4018TIP3   OH262521   1.775   6.005  15.138
 4018TIP3    H162522   1.789   6.066  15.213
 4018TIP3    H262523   1.828   6.049  15.071
 4019TIP3   OH262524   1.233   6.290  15.092
 4019TIP3    H162525   1.242   6.193  15.093
 4019TIP3    H262526   1.218   6.302  14.996
 4020TIP3   OH262527   0.540   6.097  14.819
 4020TIP3    H162528   0.549   6.181  14.771
 4020TIP3    H262529   0.502   6.042  14.748
 4021TIP3   OH262530   1.314   6.103  14.656
 4021TIP3    H162531   1.382   6.075  14.720
 4021TIP3    H262532   1.368   6.159  14.596
 4022TIP3   OH262533   1.817   6.151  15.361
 4022TIP3    H162534   1.754   6.225  15.354
 4022TIP3    H262535   1.822   6.137  15.457
 4023TIP3   OH262536   0.431   5.989  15.214
 4023TIP3    H162537   0.400   6.046  15.142
 4023TIP3    H262538   0.365   6.005  15.284
 4024TIP3   OH262539   1.160   6.936  14.578
 4024TIP3    H162540   1.136   6.906  14.490
 4024TIP3    H262541   1.129   7.029  14.578
 4025TIP3   OH262542   1.494   6.041  14.853
 4025TIP3    H162543   1.472   5.963  14.906
 4025TIP3    H262544   1.561   6.084  14.908
 4026TIP3   OH262545   0.386   6.172  15.024
 4026TIP3    H162546   0.448   6.241  15.051
 4026TIP3    H262547   0.436   6.132  14.949
 4027TIP3   OH262548   0.523   6.949  15.326
 4027TIP3    H162549   0.525   7.041  15.296
 4027TIP3    H262550   0.440   6.943  15.375
 4028TIP3   OH262551   0.140   6.918  14.408
 4028TIP3    H162552   0.109   6.938  14.320
 4028TIP3    H262553   0.138   7.000  14.457
 4029TIP3   OH262554   1.495   7.081  15.077
 4029TIP3    H162555   1.399   7.090  15.096
 4029TIP3    H262556   1.523   7.172  15.063
 4030TIP3   OH262557   1.530   5.911  15.224
 4030TIP3    H162558   1.455   5.972  15.210
 4030TIP3    H262559   1.601   5.951  15.170
 4031TIP3   OH262560   0.827   5.722  14.958
 4031TIP3    H162561   0.816   5.626  14.962
 4031TIP3    H262562   0.744   5.753  14.999
 4032TIP3   OH262563   1.444   7.051  14.591
 4032TIP3    H162564   1.411   6.982  14.531
 4032TIP3    H262565   1.447   7.003  14.676
 4033TIP3   OH262566   1.604   6.912  15.438
 4033TIP3    H162567   1.621   6.845  15.368
 4033TIP3    H262568   1.629   6.997  15.398
 4034TIP3   OH262569   1.791   6.539  15.242
 4034TIP3    H162570   1.730   6.615  15.252
 4034TIP3    H262571   1.843   6.565  15.164
 4035TIP3   OH262572   1.402   6.625  14.514
 4035TIP3    H162573   1.324   6.644  14.569
 4035TIP3    H262574   1.444   6.551  14.561
 4036TIP3   OH262575   1.392   6.439  15.420
 4036TIP3    H162576   1.392   6.518  15.477
 4036TIP3    H262577   1.329   6.466  15.352
 4037TIP3   OH262578   0.695   7.025  14.970
 4037TIP3    H162579   0.692   6.973  14.888
 4037TIP3    H262580   0.772   6.992  15.017
 4038TIP3   OH262581   1.232   7.116  15.136
 4038TIP3    H162582   1.207   7.180  15.204
 4038TIP3    H262583   1.208   7.031  15.180
 4039TIP3   OH262584   1.284   6.540  14.280
 4039TIP3    H162585   1.340   6.559  14.357
 4039TIP3    H262586   1.325   6.588  14.207
 4040TIP3   OH262587   1.059   7.213  14.625
 4040TIP3    H162588   1.100   7.246  14.705
 4040TIP3    H262589   1.002   7.286  14.599
 4041TIP3   OH262590   0.047   7.115  15.024
 4041TIP3    H162591   0.140   7.088  15.028
 4041TIP3    H262592   0.034   7.185  15.089
 4042TIP3   OH262593   0.966   7.129  15.486
 4042TIP3    H162594   0.970   7.214  15.536
 4042TIP3    H262595   0.877   7.098  15.508
 4043TIP3   OH262596   1.004   7.504  14.466
 4043TIP3    H162597   0.997   7.496  14.369
 4043TIP3    H262598   1.008   7.601  14.481
 4044TIP3   OH262599   0.381   7.364  14.644
 4044TIP3    H162600   0.386   7.345  14.738
 4044TIP3    H262601   0.286   7.351  14.627
 4045TIP3   OH262602   1.305   7.421  14.162
 4045TIP3    H162603   1.358   7.351  14.120
 4045TIP3    H262604   1.318   7.400  14.256
 4046TIP3   OH262605   1.281   7.418  14.442
 4046TIP3    H162606   1.186   7.426  14.461
 4046TIP3    H262607   1.309   7.345  14.499
 4047TIP3   OH262608   1.579   6.321  15.648
 4047TIP3    H162609   1.534   6.368  15.575
 4047TIP3    H262610   1.582   6.230  15.614
 4048TIP3   OH262611   0.564   5.814  15.036
 4048TIP3    H162612   0.473   5.798  15.010
 4048TIP3    H262613   0.554   5.891  15.094
 4049TIP3   OH262614   1.021   5.786  15.382
 4049TIP3    H162615   1.063   5.738  15.454
 4049TIP3    H262616   0.928   5.765  15.393
 4050TIP3   OH262617   1.351   6.160  15.470
 4050TIP3    H162618   1.302   6.146  15.553
 4050TIP3    H262619   1.337   6.253  15.445
 4051TIP3   OH262620   1.430   6.648  14.052
 4051TIP3    H162621   1.429   6.623  13.958
 4051TIP3    H262622   1.514   6.690  14.064
 4052TIP3   OH262623   1.233   6.317  14.811
 4052TIP3    H162624   1.198   6.373  14.740
 4052TIP3    H262625   1.235   6.231  14.766
 4053TIP3   OH262626   0.079   6.059  14.684
 4053TIP3    H162627   0.075   6.034  14.779
 4053TIP3    H262628   0.076   5.973  14.638
 4054TIP3   OH262629   0.149   6.136  14.286
 4054TIP3    H162630   0.181   6.186  14.213
 4054TIP3    H262631   0.067   6.186  14.301
 4055TIP3   OH262632   0.824   6.072  14.756
 4055TIP3    H162633   0.731   6.076  14.785
 4055TIP3    H262634   0.873   6.063  14.839
 4056TIP3   OH262635   1.266   5.998  15.081
 4056TIP3    H162636   1.196   6.005  15.150
 4056TIP3    H262637   1.217   5.973  15.001
 4057TIP3   OH262638   1.574   7.574  15.722
 4057TIP3    H162639   1.604   7.595  15.632
 4057TIP3    H262640   1.654   7.594  15.772
 4058TIP3   OH262641   0.818   6.187  15.180
 4058TIP3    H162642   0.737   6.235  15.198
 4058TIP3    H262643   0.875   6.210  15.255
 4059TIP3   OH262644   1.592   6.725  15.233
 4059TIP3    H162645   1.651   6.775  15.173
 4059TIP3    H262646   1.506   6.731  15.186
 4060TIP3   OH262647   1.032   6.836  15.475
 4060TIP3    H162648   0.986   6.792  15.548
 4060TIP3    H262649   1.001   6.927  15.483
 4061TIP3   OH262650   1.335   6.273  14.340
 4061TIP3    H162651   1.425   6.264  14.375
 4061TIP3    H262652   1.335   6.355  14.288
 4062TIP3   OH262653   1.085   6.952  14.262
 4062TIP3    H162654   1.050   7.038  14.293
 4062TIP3    H262655   1.013   6.891  14.278
 4063TIP3   OH262656   1.251   7.070  15.473
 4063TIP3    H162657   1.161   7.095  15.450
 4063TIP3    H262658   1.256   7.107  15.564
 4064TIP3   OH262659   1.827   6.294  14.306
 4064TIP3    H162660   1.758   6.262  14.247
 4064TIP3    H262661   1.827   6.391  14.288
 4065TIP3   OH262662   1.818   6.876  15.594
 4065TIP3    H162663   1.733   6.905  15.555
 4065TIP3    H262664   1.880   6.877  15.518
 4066TIP3   OH262665   1.652   7.175  14.354
 4066TIP3    H162666   1.614   7.094  14.389
 4066TIP3    H262667   1.679   7.157  14.265
 4067TIP3   OH262668   1.372   6.659  15.060
 4067TIP3    H162669   1.279   6.634  15.052
 4067TIP3    H262670   1.416   6.581  15.021
 4068TIP3   OH262671   0.623   7.092  14.677
 4068TIP3    H162672   0.674   7.170  14.650
 4068TIP3    H262673   0.538   7.115  14.637
 4069TIP3   OH262674   0.812   7.277  15.263
 4069TIP3    H162675   0.858   7.358  15.236
 4069TIP3    H262676   0.872   7.243  15.331
 4070TIP3   OH262677   0.636   7.358  14.574
 4070TIP3    H162678   0.540   7.366  14.599
 4070TIP3    H262679   0.671   7.440  14.614
 4071TIP3   OH262680   1.166   6.877  15.226
 4071TIP3    H162681   1.129   6.858  15.315
 4071TIP3    H262682   1.231   6.807  15.215
 4072TIP3   OH262683   1.394   6.979  14.139
 4072TIP3    H162684   1.425   6.937  14.222
 4072TIP3    H262685   1.299   6.966  14.150
 4073TIP3   OH262686   1.441   7.334  15.477
 4073TIP3    H162687   1.375   7.284  15.427
 4073TIP3    H262688   1.463   7.404  15.413
 4074TIP3   OH262689   1.478   6.848  14.363
 4074TIP3    H162690   1.451   6.768  14.415
 4074TIP3    H262691   1.573   6.852  14.384
 4075TIP3   OH262692   0.215   7.246  15.261
 4075TIP3    H162693   0.240   7.152  15.255
 4075TIP3    H262694   0.242   7.265  15.351
 4076TIP3   OH262695   1.124   6.035  15.311
 4076TIP3    H162696   1.196   6.042  15.375
 4076TIP3    H262697   1.086   5.946  15.327
 4077TIP3   OH262698   0.971   7.215  14.308
 4077TIP3    H162699   0.885   7.260  14.307
 4077TIP3    H262700   1.020   7.260  14.239
 4078TIP3   OH262701   1.009   5.880  14.588
 4078TIP3    H162702   0.975   5.940  14.658
 4078TIP3    H262703   1.078   5.935  14.548
 4079TIP3   OH262704   0.698   7.317  14.301
 4079TIP3    H162705   0.726   7.398  14.255
 4079TIP3    H262706   0.682   7.347  14.394
 4080TIP3   OH262707   1.597   6.061  15.505
 4080TIP3    H162708   1.503   6.087  15.492
 4080TIP3    H262709   1.627   6.055  15.413
 4081TIP3   OH262710   1.455   6.438  14.908
 4081TIP3    H162711   1.373   6.391  14.880
 4081TIP3    H262712   1.503   6.369  14.960
 4082TIP3   OH262713   0.205   7.167  14.565
 4082TIP3    H162714   0.122   7.215  14.574
 4082TIP3    H262715   0.259   7.218  14.504
 4083TIP3   OH262716   0.136   7.418  15.703
 4083TIP3    H162717   0.196   7.403  15.778
 4083TIP3    H262718   0.092   7.335  15.684
 4084TIP3   OH262719   0.595   7.321  15.861
 4084TIP3    H162720   0.671   7.272  15.893
 4084TIP3    H262721   0.595   7.298  15.767
 4085TIP3   OH262722   1.244   7.163  15.733
 4085TIP3    H162723   1.222   7.073  15.758
 4085TIP3    H262724   1.324   7.179  15.789
 4086TIP3   OH262725   1.463   7.254  14.018
 4086TIP3    H162726   1.489   7.174  14.068
 4086TIP3    H262727   1.545   7.274  13.973
 4087TIP3   OH262728   0.146   6.801  15.774
 4087TIP3    H162729   0.151   6.706  15.754
 4087TIP3    H262730   0.069   6.832  15.726
 4088TIP3   OH262731   1.360   6.794  15.474
 4088TIP3    H162732   1.439   6.852  15.467
 4088TIP3    H262733   1.289   6.861  15.478
 4089TIP3   OH262734   0.210   6.530  15.733
 4089TIP3    H162735   0.250   6.443  15.720
 4089TIP3    H262736   0.188   6.529  15.826
 4090TIP3   OH262737   0.681   6.001  15.326
 4090TIP3    H162738   0.735   6.049  15.261
 4090TIP3    H262739   0.593   5.991  15.286
 4091TIP3   OH262740   1.277   6.328  15.848
 4091TIP3    H162741   1.298   6.234  15.852
 4091TIP3    H262742   1.363   6.371  15.857
 4092TIP3   OH262743   1.411   6.605  15.667
 4092TIP3    H162744   1.383   6.678  15.607
 4092TIP3    H262745   1.507   6.603  15.650
 4093TIP3   OH262746   0.296   6.077  15.746
 4093TIP3    H162747   0.325   6.010  15.684
 4093TIP3    H262748   0.293   6.034  15.832
 4094TIP3   OH262749   0.813   5.837  15.849
 4094TIP3    H162750   0.806   5.802  15.759
 4094TIP3    H262751   0.766   5.923  15.843
 4095TIP3   OH262752   0.765   7.539  14.161
 4095TIP3    H162753   0.862   7.546  14.177
 4095TIP3    H262754   0.754   7.610  14.097
 4096TIP3   OH262755   8.183   7.501  14.637
 4096TIP3    H162756   8.094   7.491  14.597
 4096TIP3    H262757   8.178   7.431  14.703
 4097TIP3   OH262758   0.098   7.331  14.806
 4097TIP3    H162759   0.043   7.252  14.818
 4097TIP3    H262760   0.103   7.380  14.889
 4098TIP3   OH262761   1.630   6.946  15.868
 4098TIP3    H162762   1.538   6.953  15.896
 4098TIP3    H262763   1.667   7.031  15.890
 4099TIP3   OH262764   1.769   6.787  14.398
 4099TIP3    H162765   1.850   6.834  14.419
 4099TIP3    H262766   1.767   6.719  14.468
 4100TIP3   OH262767   1.805   6.598  14.584
 4100TIP3    H162768   1.730   6.549  14.624
 4100TIP3    H262769   1.863   6.613  14.662
 4101TIP3   OH262770   1.780   6.873  15.081
 4101TIP3    H162771   1.863   6.832  15.049
 4101TIP3    H262772   1.794   6.967  15.068
 4102TIP3   OH262773   1.634   7.158  15.307
 4102TIP3    H162774   1.572   7.195  15.373
 4102TIP3    H262775   1.576   7.114  15.244
 4103TIP3   OH262776   1.833   6.581  14.222
 4103TIP3    H162777   1.774   6.620  14.158
 4103TIP3    H262778   1.827   6.649  14.293
 4104TIP3   OH262779   1.587   6.447  14.643
 4104TIP3    H162780   1.569   6.352  14.639
 4104TIP3    H262781   1.552   6.469  14.732
 4105TIP3   OH262782   1.670   6.643  15.612
 4105TIP3    H162783   1.734   6.570  15.626
 4105TIP3    H262784   1.731   6.721  15.612
 4106TIP3   OH262785   1.821   6.431  15.676
 4106TIP3    H162786   1.733   6.392  15.662
 4106TIP3    H262787   1.879   6.352  15.671
 4107TIP3   OH262788   1.600   6.056  13.992
 4107TIP3    H162789   1.650   6.004  14.059
 4107TIP3    H262790   1.511   6.015  14.007
 4108TIP3   OH262791   1.556   6.205  14.498
 4108TIP3    H162792   1.584   6.111  14.502
 4108TIP3    H262793   1.632   6.245  14.455
 4109TIP3   OH262794   1.616   6.260  15.035
 4109TIP3    H162795   1.712   6.283  15.033
 4109TIP3    H262796   1.597   6.274  15.129
 4110TIP3   OH262797   1.623   6.333  15.312
 4110TIP3    H162798   1.536   6.361  15.344
 4110TIP3    H262799   1.668   6.418  15.290
 4111TIP3   OH262800   0.057   6.170  15.647
 4111TIP3    H162801   0.148   6.162  15.679
 4111TIP3    H262802   0.010   6.102  15.695
 4112TIP3   OH262803   1.618   5.933  14.494
 4112TIP3    H162804   1.639   5.889  14.579
 4112TIP3    H262805   1.559   5.872  14.447
 4113TIP3   OH262806   0.167   6.015  14.949
 4113TIP3    H162807   0.212   5.936  14.979
 4113TIP3    H262808   0.222   6.085  14.987
 4114TIP3   OH262809   0.013   6.350  14.979
 4114TIP3    H162810   0.070   6.274  14.962
 4114TIP3    H262811   0.049   6.380  15.063
 4115TIP3   OH262812   1.806   5.948  15.682
 4115TIP3    H162813   1.710   5.970  15.680
 4115TIP3    H262814   1.809   5.890  15.604
 4116TIP3   OH262815   1.806   5.948  14.133
 4116TIP3    H162816   1.846   5.863  14.108
 4116TIP3    H262817   1.881   5.997  14.166
 4117TIP3   OH262818   0.049   5.928  14.466
 4117TIP3    H162819  -0.042   5.944  14.435
 4117TIP3    H262820   0.096   5.987  14.404
 4118TIP3   OH262821   8.182   5.828  15.307
 4118TIP3    H162822   8.114   5.785  15.360
 4118TIP3    H262823   8.128   5.876  15.243
 4119TIP3   OH262824   0.541   7.225  15.331
 4119TIP3    H162825   0.507   7.312  15.310
 4119TIP3    H262826   0.635   7.235  15.305
 4120TIP3   OH262827   0.975   7.364  15.625
 4120TIP3    H162828   0.990   7.335  15.719
 4120TIP3    H262829   1.063   7.399  15.601
 4121TIP3   OH262830   1.205   7.499  15.552
 4121TIP3    H162831   1.276   7.436  15.533
 4121TIP3    H262832   1.242   7.536  15.635
 4122TIP3   OH262833   1.708   5.758  15.460
 4122TIP3    H162834   1.619   5.785  15.430
 4122TIP3    H262835   1.719   5.674  15.413
 4123TIP3   OH262836   0.323   7.537  15.390
 4123TIP3    H162837   0.260   7.603  15.356
 4123TIP3    H262838   0.254   7.504  15.451
 4124TIP3   OH262839   0.527   7.501  15.233
 4124TIP3    H162840   0.457   7.526  15.296
 4124TIP3    H262841   0.535   7.571  15.165
 4125TIP3   OH262842   1.004   7.499  15.158
 4125TIP3    H162843   0.957   7.555  15.095
 4125TIP3    H262844   1.018   7.563  15.231
 4126TIP3   OH262845   1.235   7.381  15.255
 4126TIP3    H162846   1.146   7.407  15.227
 4126TIP3    H262847   1.278   7.468  15.254
 4127TIP3   OH262848   1.477   7.534  15.280
 4127TIP3    H162849   1.483   7.632  15.269
 4127TIP3    H262850   1.516   7.506  15.197
 4128TIP3   OH262851   0.225   7.408  15.038
 4128TIP3    H162852   0.222   7.350  15.115
 4128TIP3    H262853   0.306   7.376  14.988
 4129TIP3   OH262854   0.433   7.289  14.905
 4129TIP3    H162855   0.422   7.193  14.914
 4129TIP3    H262856   0.524   7.300  14.939
 4130TIP3   OH262857   0.695   7.335  14.981
 4130TIP3    H162858   0.715   7.244  14.954
 4130TIP3    H262859   0.705   7.327  15.077
 4131TIP3   OH262860   1.042   5.904  14.892
 4131TIP3    H162861   0.980   5.837  14.926
 4131TIP3    H262862   1.100   5.849  14.839
 4132TIP3   OH262863   1.558   5.705  14.904
 4132TIP3    H162864   1.619   5.762  14.852
 4132TIP3    H262865   1.470   5.741  14.882
 4133TIP3   OH262866   1.724   5.832  14.731
 4133TIP3    H162867   1.792   5.773  14.689
 4133TIP3    H262868   1.774   5.916  14.742
 4134TIP3   OH262869   0.731   5.760  14.657
 4134TIP3    H162870   0.823   5.792  14.654
 4134TIP3    H262871   0.725   5.731  14.749
 4135TIP3   OH262872   1.298   5.755  14.820
 4135TIP3    H162873   1.294   5.769  14.725
 4135TIP3    H262874   1.261   5.668  14.837
 4136TIP3   OH262875   0.172   7.351  14.330
 4136TIP3    H162876   0.082   7.323  14.304
 4136TIP3    H262877   0.147   7.423  14.392
 4137TIP3   OH262878   0.842   5.959  14.347
 4137TIP3    H162879   0.866   5.898  14.417
 4137TIP3    H262880   0.843   6.044  14.393
 4138TIP3   OH262881   1.031   7.465  14.183
 4138TIP3    H162882   1.126   7.485  14.171
 4138TIP3    H262883   1.018   7.410  14.105
 4139TIP3   OH262884   0.360   7.404  13.994
 4139TIP3    H162885   0.280   7.376  14.036
 4139TIP3    H262886   0.431   7.348  14.030
 4140TIP3   OH262887   3.070   6.677  14.669
 4140TIP3    H162888   3.079   6.776  14.665
 4140TIP3    H262889   3.008   6.658  14.600
 4141TIP3   OH262890   2.957   6.602  15.014
 4141TIP3    H162891   2.961   6.538  15.086
 4141TIP3    H262892   2.930   6.552  14.938
 4142TIP3   OH262893   2.193   6.568  15.174
 4142TIP3    H162894   2.204   6.500  15.244
 4142TIP3    H262895   2.271   6.624  15.191
 4143TIP3   OH262896   3.331   6.899  14.842
 4143TIP3    H162897   3.291   6.825  14.892
 4143TIP3    H262898   3.333   6.968  14.911
 4144TIP3   OH262899   1.956   6.372  14.563
 4144TIP3    H162900   1.909   6.458  14.566
 4144TIP3    H262901   1.893   6.319  14.512
 4145TIP3   OH262902   2.024   6.593  14.783
 4145TIP3    H162903   2.049   6.511  14.830
 4145TIP3    H262904   2.096   6.601  14.720
 4146TIP3   OH262905   3.035   7.408  14.862
 4146TIP3    H162906   3.106   7.344  14.841
 4146TIP3    H262907   3.021   7.385  14.955
 4147TIP3   OH262908   2.799   6.841  15.066
 4147TIP3    H162909   2.833   6.779  15.000
 4147TIP3    H262910   2.879   6.861  15.117
 4148TIP3   OH262911   3.116   6.289  15.094
 4148TIP3    H162912   3.128   6.192  15.096
 4148TIP3    H262913   3.102   6.301  14.998
 4149TIP3   OH262914   3.201   6.102  14.652
 4149TIP3    H162915   3.264   6.075  14.722
 4149TIP3    H262916   3.252   6.163  14.598
 4150TIP3   OH262917   2.089   6.340  14.891
 4150TIP3    H162918   2.157   6.286  14.937
 4150TIP3    H262919   2.099   6.309  14.799
 4151TIP3   OH262920   2.619   6.489  14.803
 4151TIP3    H162921   2.664   6.435  14.871
 4151TIP3    H262922   2.548   6.427  14.776
 4152TIP3   OH262923   3.704   6.150  15.365
 4152TIP3    H162924   3.641   6.223  15.352
 4152TIP3    H262925   3.707   6.135  15.459
 4153TIP3   OH262926   3.043   6.934  14.574
 4153TIP3    H162927   3.022   6.910  14.484
 4153TIP3    H262928   3.018   7.028  14.581
 4154TIP3   OH262929   2.570   6.751  15.248
 4154TIP3    H162930   2.498   6.816  15.264
 4154TIP3    H262931   2.638   6.811  15.213
 4155TIP3   OH262932   3.386   6.037  14.844
 4155TIP3    H162933   3.356   5.967  14.905
 4155TIP3    H262934   3.446   6.086  14.903
 4156TIP3   OH262935   2.269   6.184  15.007
 4156TIP3    H162936   2.331   6.243  15.055
 4156TIP3    H262937   2.323   6.130  14.949
 4157TIP3   OH262938   2.411   6.955  15.334
 4157TIP3    H162939   2.411   7.037  15.284
 4157TIP3    H262940   2.321   6.943  15.369
 4158TIP3   OH262941   3.379   7.077  15.078
 4158TIP3    H162942   3.283   7.089  15.097
 4158TIP3    H262943   3.411   7.167  15.065
 4159TIP3   OH262944   3.414   5.911  15.220
 4159TIP3    H162945   3.340   5.973  15.212
 4159TIP3    H262946   3.484   5.953  15.169
 4160TIP3   OH262947   3.207   7.259  14.733
 4160TIP3    H162948   3.255   7.184  14.690
 4160TIP3    H262949   3.253   7.338  14.704
 4161TIP3   OH262950   3.322   7.054  14.590
 4161TIP3    H162951   3.298   6.980  14.532
 4161TIP3    H262952   3.332   7.004  14.674
 4162TIP3   OH262953   2.934   6.602  14.414
 4162TIP3    H162954   2.884   6.676  14.370
 4162TIP3    H262955   3.015   6.606  14.354
 4163TIP3   OH262956   2.941   6.445  14.132
 4163TIP3    H162957   3.023   6.453  14.184
 4163TIP3    H262958   2.980   6.397  14.058
 4164TIP3   OH262959   3.677   6.537  15.245
 4164TIP3    H162960   3.615   6.613  15.252
 4164TIP3    H262961   3.728   6.560  15.167
 4165TIP3   OH262962   3.278   6.612  14.508
 4165TIP3    H162963   3.215   6.648  14.574
 4165TIP3    H262964   3.336   6.555  14.563
 4166TIP3   OH262965   3.278   6.439  15.421
 4166TIP3    H162966   3.278   6.520  15.474
 4166TIP3    H262967   3.214   6.466  15.352
 4167TIP3   OH262968   2.454   6.686  14.696
 4167TIP3    H162969   2.409   6.646  14.618
 4167TIP3    H262970   2.505   6.615  14.740
 4168TIP3   OH262971   2.482   6.558  15.068
 4168TIP3    H162972   2.536   6.577  14.992
 4168TIP3    H262973   2.516   6.626  15.131
 4169TIP3   OH262974   3.119   7.119  15.140
 4169TIP3    H162975   3.091   7.182  15.207
 4169TIP3    H262976   3.094   7.033  15.181
 4170TIP3   OH262977   3.166   6.546  14.281
 4170TIP3    H162978   3.229   6.560  14.356
 4170TIP3    H262979   3.213   6.590  14.208
 4171TIP3   OH262980   2.268   6.622  15.457
 4171TIP3    H162981   2.269   6.686  15.530
 4171TIP3    H262982   2.175   6.632  15.431
 4172TIP3   OH262983   2.954   7.235  14.612
 4172TIP3    H162984   2.988   7.238  14.705
 4172TIP3    H262985   2.871   7.279  14.618
 4173TIP3   OH262986   2.400   7.205  15.613
 4173TIP3    H162987   2.397   7.196  15.518
 4173TIP3    H262988   2.308   7.194  15.642
 4174TIP3   OH262989   3.544   5.722  14.276
 4174TIP3    H162990   3.446   5.719  14.288
 4174TIP3    H262991   3.569   5.787  14.213
 4175TIP3   OH262992   2.351   6.590  14.452
 4175TIP3    H162993   2.315   6.669  14.411
 4175TIP3    H262994   2.277   6.527  14.443
 4176TIP3   OH262995   1.953   6.833  15.347
 4176TIP3    H162996   1.907   6.821  15.263
 4176TIP3    H262997   1.960   6.740  15.376
 4177TIP3   OH262998   2.852   7.126  15.491
 4177TIP3    H162999   2.853   7.216  15.531
 4177TIP3    H263000   2.760   7.100  15.506
 4178TIP3   OH263001   2.800   7.563  14.486
 4178TIP3    H163002   2.790   7.551  14.390
 4178TIP3    H263003   2.862   7.640  14.504
 4179TIP3   OH263004   3.165   7.413  14.445
 4179TIP3    H163005   3.098   7.410  14.509
 4179TIP3    H263006   3.216   7.342  14.489
 4180TIP3   OH263007   3.465   6.322  15.646
 4180TIP3    H163008   3.420   6.366  15.572
 4180TIP3    H263009   3.469   6.230  15.615
 4181TIP3   OH263010   2.914   5.781  15.380
 4181TIP3    H163011   2.956   5.737  15.457
 4181TIP3    H263012   2.821   5.765  15.398
 4182TIP3   OH263013   3.240   6.161  15.469
 4182TIP3    H163014   3.188   6.143  15.550
 4182TIP3    H263015   3.224   6.254  15.445
 4183TIP3   OH263016   2.455   6.330  14.647
 4183TIP3    H163017   2.362   6.296  14.644
 4183TIP3    H263018   2.489   6.285  14.567
 4184TIP3   OH263019   2.996   6.369  14.524
 4184TIP3    H163020   2.984   6.459  14.492
 4184TIP3    H263021   3.076   6.348  14.470
 4185TIP3   OH263022   3.108   6.319  14.813
 4185TIP3    H163023   3.086   6.374  14.738
 4185TIP3    H263024   3.123   6.233  14.769
 4186TIP3   OH263025   2.220   6.337  15.340
 4186TIP3    H163026   2.229   6.376  15.429
 4186TIP3    H263027   2.176   6.253  15.355
 4187TIP3   OH263028   1.888   6.050  14.730
 4187TIP3    H163029   1.954   6.042  14.801
 4187TIP3    H263030   1.931   6.007  14.654
 4188TIP3   OH263031   2.009   6.118  14.260
 4188TIP3    H163032   2.068   6.183  14.221
 4188TIP3    H263033   1.947   6.177  14.308
 4189TIP3   OH263034   3.035   6.478  15.274
 4189TIP3    H163035   3.067   6.409  15.212
 4189TIP3    H263036   2.987   6.426  15.340
 4190TIP3   OH263037   2.192   6.233  14.639
 4190TIP3    H163038   2.103   6.246  14.602
 4190TIP3    H263039   2.220   6.149  14.601
 4191TIP3   OH263040   2.557   6.257  14.415
 4191TIP3    H163041   2.651   6.229  14.409
 4191TIP3    H263042   2.532   6.290  14.327
 4192TIP3   OH263043   3.150   5.996  15.080
 4192TIP3    H163044   3.082   6.006  15.150
 4192TIP3    H263045   3.098   5.976  15.001
 4193TIP3   OH263046   2.764   6.784  14.365
 4193TIP3    H163047   2.679   6.769  14.317
 4193TIP3    H263048   2.737   6.830  14.447
 4194TIP3   OH263049   3.479   6.720  15.231
 4194TIP3    H163050   3.536   6.776  15.178
 4194TIP3    H263051   3.393   6.732  15.187
 4195TIP3   OH263052   2.913   6.832  15.477
 4195TIP3    H163053   2.880   6.790  15.558
 4195TIP3    H263054   2.888   6.925  15.487
 4196TIP3   OH263055   3.218   6.279  14.340
 4196TIP3    H163056   3.306   6.273  14.379
 4196TIP3    H263057   3.225   6.357  14.283
 4197TIP3   OH263058   2.268   6.741  14.931
 4197TIP3    H163059   2.343   6.740  14.870
 4197TIP3    H263060   2.281   6.659  14.981
 4198TIP3   OH263061   2.973   6.954  14.267
 4198TIP3    H163062   2.937   7.039  14.294
 4198TIP3    H263063   2.900   6.892  14.273
 4199TIP3   OH263064   1.973   6.583  15.459
 4199TIP3    H163065   1.989   6.545  15.548
 4199TIP3    H263066   1.909   6.523  15.418
 4200TIP3   OH263067   2.674   6.537  15.682
 4200TIP3    H163068   2.640   6.516  15.594
 4200TIP3    H263069   2.767   6.515  15.677
 4201TIP3   OH263070   3.137   7.075  15.473
 4201TIP3    H163071   3.044   7.095  15.451
 4201TIP3    H263072   3.142   7.103  15.566
 4202TIP3   OH263073   3.695   6.291  14.316
 4202TIP3    H163074   3.662   6.270  14.229
 4202TIP3    H263075   3.725   6.383  14.291
 4203TIP3   OH263076   3.255   6.657  15.063
 4203TIP3    H163077   3.162   6.635  15.050
 4203TIP3    H263078   3.301   6.582  15.020
 4204TIP3   OH263079   2.513   7.076  14.666
 4204TIP3    H163080   2.560   7.160  14.658
 4204TIP3    H263081   2.425   7.103  14.640
 4205TIP3   OH263082   2.082   6.575  14.126
 4205TIP3    H163083   2.145   6.640  14.161
 4205TIP3    H263084   1.997   6.608  14.160
 4206TIP3   OH263085   2.652   6.850  14.619
 4206TIP3    H163086   2.628   6.945  14.634
 4206TIP3    H263087   2.578   6.814  14.672
 4207TIP3   OH263088   3.048   6.877  15.228
 4207TIP3    H163089   3.016   6.857  15.319
 4207TIP3    H263090   3.113   6.807  15.212
 4208TIP3   OH263091   3.325   7.336  15.478
 4208TIP3    H163092   3.262   7.283  15.428
 4208TIP3    H263093   3.353   7.403  15.414
 4209TIP3   OH263094   3.009   6.034  15.310
 4209TIP3    H163095   3.079   6.041  15.377
 4209TIP3    H263096   2.970   5.947  15.329
 4210TIP3   OH263097   2.864   7.242  14.319
 4210TIP3    H163098   2.768   7.250  14.299
 4210TIP3    H263099   2.904   7.247  14.230
 4211TIP3   OH263100   2.800   6.186  14.501
 4211TIP3    H163101   2.891   6.220  14.505
 4211TIP3    H263102   2.784   6.150  14.589
 4212TIP3   OH263103   2.894   5.878  14.592
 4212TIP3    H163104   2.864   5.942  14.657
 4212TIP3    H263105   2.963   5.928  14.546
 4213TIP3   OH263106   3.483   6.058  15.506
 4213TIP3    H163107   3.390   6.087  15.492
 4213TIP3    H263108   3.515   6.056  15.414
 4214TIP3   OH263109   3.342   6.437  14.909
 4214TIP3    H163110   3.261   6.392  14.880
 4214TIP3    H263111   3.390   6.367  14.959
 4215TIP3   OH263112   2.488   7.326  15.860
 4215TIP3    H163113   2.559   7.272  15.893
 4215TIP3    H263114   2.481   7.300  15.767
 4216TIP3   OH263115   3.128   7.168  15.743
 4216TIP3    H163116   3.105   7.074  15.755
 4216TIP3    H263117   3.216   7.168  15.784
 4217TIP3   OH263118   3.249   6.796  15.476
 4217TIP3    H163119   3.322   6.858  15.464
 4217TIP3    H263120   3.176   6.860  15.477
 4218TIP3   OH263121   2.095   6.531  15.732
 4218TIP3    H163122   2.139   6.446  15.724
 4218TIP3    H263123   2.072   6.535  15.826
 4219TIP3   OH263124   2.576   6.638  14.253
 4219TIP3    H163125   2.501   6.595  14.296
 4219TIP3    H263126   2.587   6.579  14.173
 4220TIP3   OH263127   2.488   6.429  15.474
 4220TIP3    H163128   2.427   6.499  15.499
 4220TIP3    H263129   2.524   6.463  15.390
 4221TIP3   OH263130   2.670   6.470  14.068
 4221TIP3    H163131   2.651   6.453  13.974
 4221TIP3    H263132   2.767   6.477  14.068
 4222TIP3   OH263133   2.988   6.683  15.805
 4222TIP3    H163134   3.084   6.682  15.793
 4222TIP3    H263135   2.975   6.608  15.864
 4223TIP3   OH263136   2.525   6.168  15.578
 4223TIP3    H163137   2.537   6.097  15.516
 4223TIP3    H263138   2.523   6.248  15.522
 4224TIP3   OH263139   2.724   6.549  15.357
 4224TIP3    H163140   2.797   6.536  15.297
 4224TIP3    H263141   2.684   6.632  15.323
 4225TIP3   OH263142   3.166   6.332  15.847
 4225TIP3    H163143   3.185   6.238  15.854
 4225TIP3    H263144   3.253   6.372  15.857
 4226TIP3   OH263145   3.288   6.599  15.666
 4226TIP3    H163146   3.265   6.676  15.609
 4226TIP3    H263147   3.384   6.599  15.657
 4227TIP3   OH263148   2.372   6.292  15.770
 4227TIP3    H163149   2.299   6.230  15.755
 4227TIP3    H263150   2.441   6.254  15.712
 4228TIP3   OH263151   2.177   6.078  15.740
 4228TIP3    H163152   2.211   6.008  15.683
 4228TIP3    H263153   2.180   6.039  15.829
 4229TIP3   OH263154   3.659   6.787  14.397
 4229TIP3    H163155   3.740   6.832  14.424
 4229TIP3    H263156   3.653   6.718  14.467
 4230TIP3   OH263157   3.690   6.599  14.587
 4230TIP3    H163158   3.616   6.549  14.626
 4230TIP3    H263159   3.751   6.612  14.663
 4231TIP3   OH263160   3.518   7.158  15.314
 4231TIP3    H163161   3.453   7.191  15.377
 4231TIP3    H263162   3.467   7.112  15.246
 4232TIP3   OH263163   3.714   6.577  14.227
 4232TIP3    H163164   3.661   6.616  14.156
 4232TIP3    H263165   3.713   6.649  14.293
 4233TIP3   OH263166   3.470   6.445  14.640
 4233TIP3    H163167   3.457   6.351  14.645
 4233TIP3    H263168   3.438   6.469  14.729
 4234TIP3   OH263169   1.972   6.659  15.051
 4234TIP3    H163170   1.992   6.647  14.955
 4234TIP3    H263171   2.061   6.641  15.087
 4235TIP3   OH263172   3.706   6.434  15.677
 4235TIP3    H163173   3.618   6.395  15.661
 4235TIP3    H263174   3.765   6.359  15.672
 4236TIP3   OH263175   3.478   6.054  14.013
 4236TIP3    H163176   3.549   5.994  14.036
 4236TIP3    H263177   3.394   6.005  13.997
 4237TIP3   OH263178   3.444   6.192  14.463
 4237TIP3    H163179   3.472   6.117  14.520
 4237TIP3    H263180   3.520   6.254  14.464
 4238TIP3   OH263181   3.501   6.259  15.034
 4238TIP3    H163182   3.598   6.280  15.032
 4238TIP3    H263183   3.485   6.274  15.129
 4239TIP3   OH263184   3.508   6.332  15.313
 4239TIP3    H163185   3.422   6.364  15.345
 4239TIP3    H263186   3.555   6.417  15.290
 4240TIP3   OH263187   1.931   6.189  15.666
 4240TIP3    H163188   2.024   6.166  15.684
 4240TIP3    H263189   1.886   6.106  15.693
 4241TIP3   OH263190   3.736   5.733  15.845
 4241TIP3    H163191   3.772   5.668  15.783
 4241TIP3    H263192   3.747   5.816  15.794
 4242TIP3   OH263193   3.503   5.933  14.479
 4242TIP3    H163194   3.525   5.899  14.571
 4242TIP3    H263195   3.440   5.858  14.458
 4243TIP3   OH263196   2.054   6.013  14.948
 4243TIP3    H163197   2.100   5.932  14.976
 4243TIP3    H263198   2.108   6.082  14.990
 4244TIP3   OH263199   1.883   6.314  15.054
 4244TIP3    H163200   1.938   6.292  14.976
 4244TIP3    H263201   1.928   6.395  15.081
 4245TIP3   OH263202   3.690   5.945  15.684
 4245TIP3    H163203   3.597   5.973  15.678
 4245TIP3    H263204   3.696   5.895  15.601
 4246TIP3   OH263205   3.681   5.945  14.154
 4246TIP3    H163206   3.725   5.868  14.109
 4246TIP3    H263207   3.760   6.003  14.149
 4247TIP3   OH263208   1.917   5.941  14.467
 4247TIP3    H163209   1.823   5.957  14.447
 4247TIP3    H263210   1.965   5.982  14.394
 4248TIP3   OH263211   1.917   5.810  15.293
 4248TIP3    H163212   1.848   5.789  15.359
 4248TIP3    H263213   1.870   5.873  15.235
 4249TIP3   OH263214   2.859   7.368  15.628
 4249TIP3    H163215   2.876   7.333  15.717
 4249TIP3    H263216   2.947   7.399  15.599
 4250TIP3   OH263217   3.090   7.495  15.559
 4250TIP3    H163218   3.162   7.435  15.533
 4250TIP3    H263219   3.129   7.540  15.634
 4251TIP3   OH263220   3.584   5.756  15.471
 4251TIP3    H163221   3.507   5.786  15.422
 4251TIP3    H263222   3.611   5.679  15.417
 4252TIP3   OH263223   2.893   7.499  15.156
 4252TIP3    H163224   2.841   7.552  15.094
 4252TIP3    H263225   2.902   7.561  15.232
 4253TIP3   OH263226   3.120   7.381  15.259
 4253TIP3    H163227   3.030   7.405  15.228
 4253TIP3    H263228   3.160   7.469  15.251
 4254TIP3   OH263229   2.931   5.902  14.894
 4254TIP3    H163230   2.863   5.841  14.922
 4254TIP3    H263231   2.989   5.849  14.837
 4255TIP3   OH263232   3.445   5.706  14.904
 4255TIP3    H163233   3.502   5.765  14.850
 4255TIP3    H263234   3.356   5.738  14.882
 4256TIP3   OH263235   3.611   5.827  14.729
 4256TIP3    H163236   3.678   5.769  14.690
 4256TIP3    H263237   3.659   5.912  14.743
 4257TIP3   OH263238   3.180   5.759  14.819
 4257TIP3    H163239   3.186   5.766  14.723
 4257TIP3    H263240   3.148   5.667  14.834
 4258TIP3   OH263241   3.311   5.765  14.383
 4258TIP3    H163242   3.231   5.817  14.373
 4258TIP3    H263243   3.269   5.678  14.408
 4259TIP3   OH263244   2.930   7.459  14.196
 4259TIP3    H163245   3.010   7.497  14.156
 4259TIP3    H263246   2.894   7.421  14.112
 4260TIP3   OH263247   3.197   5.686  15.803
 4260TIP3    H163248   3.205   5.639  15.888
 4260TIP3    H263249   3.287   5.682  15.769
 4261TIP3   OH263250   4.959   6.676  14.668
 4261TIP3    H163251   4.959   6.773  14.661
 4261TIP3    H263252   4.888   6.652  14.606
 4262TIP3   OH263253   4.084   6.563  15.168
 4262TIP3    H163254   4.090   6.501  15.243
 4262TIP3    H263255   4.151   6.627  15.193
 4263TIP3   OH263256   4.180   7.012  15.020
 4263TIP3    H163257   4.145   6.926  14.991
 4263TIP3    H263258   4.274   6.992  15.028
 4264TIP3   OH263259   3.835   6.366  14.570
 4264TIP3    H163260   3.796   6.456  14.565
 4264TIP3    H263261   3.781   6.317  14.509
 4265TIP3   OH263262   3.907   6.592  14.780
 4265TIP3    H163263   3.935   6.516  14.835
 4265TIP3    H263264   3.981   6.602  14.720
 4266TIP3   OH263265   5.547   6.006  15.137
 4266TIP3    H163266   5.561   6.068  15.212
 4266TIP3    H263267   5.601   6.049  15.070
 4267TIP3   OH263268   5.002   6.284  15.095
 4267TIP3    H163269   5.018   6.188  15.092
 4267TIP3    H263270   4.990   6.307  15.001
 4268TIP3   OH263271   4.318   6.098  14.813
 4268TIP3    H163272   4.321   6.185  14.767
 4268TIP3    H263273   4.270   6.043  14.748
 4269TIP3   OH263274   5.090   6.105  14.651
 4269TIP3    H163275   5.153   6.076  14.720
 4269TIP3    H263276   5.143   6.164  14.599
 4270TIP3   OH263277   3.972   6.339  14.892
 4270TIP3    H163278   4.040   6.284  14.938
 4270TIP3    H263279   3.985   6.310  14.800
 4271TIP3   OH263280   4.488   6.493  14.821
 4271TIP3    H163281   4.559   6.439  14.860
 4271TIP3    H263282   4.440   6.426  14.769
 4272TIP3   OH263283   5.591   6.150  15.362
 4272TIP3    H163284   5.526   6.223  15.351
 4272TIP3    H263285   5.593   6.140  15.458
 4273TIP3   OH263286   4.913   6.937  14.573
 4273TIP3    H163287   4.897   6.909  14.483
 4273TIP3    H263288   4.891   7.032  14.576
 4274TIP3   OH263289   4.457   6.753  15.244
 4274TIP3    H163290   4.384   6.815  15.267
 4274TIP3    H263291   4.528   6.814  15.219
 4275TIP3   OH263292   5.267   6.041  14.852
 4275TIP3    H163293   5.247   5.964  14.906
 4275TIP3    H263294   5.333   6.086  14.908
 4276TIP3   OH263295   4.155   6.181  15.014
 4276TIP3    H163296   4.221   6.239  15.055
 4276TIP3    H263297   4.209   6.129  14.952
 4277TIP3   OH263298   4.296   6.948  15.325
 4277TIP3    H163299   4.295   7.041  15.296
 4277TIP3    H263300   4.213   6.943  15.375
 4278TIP3   OH263301   3.903   6.918  14.406
 4278TIP3    H163302   3.884   6.947  14.315
 4278TIP3    H263303   3.912   7.001  14.454
 4279TIP3   OH263304   5.302   5.910  15.224
 4279TIP3    H163305   5.228   5.971  15.213
 4279TIP3    H263306   5.371   5.950  15.167
 4280TIP3   OH263307   4.827   6.600  14.420
 4280TIP3    H163308   4.752   6.650  14.384
 4280TIP3    H263309   4.894   6.611  14.352
 4281TIP3   OH263310   4.833   6.447  14.126
 4281TIP3    H163311   4.904   6.453  14.190
 4281TIP3    H263312   4.863   6.387  14.058
 4282TIP3   OH263313   5.560   6.540  15.244
 4282TIP3    H163314   5.502   6.616  15.254
 4282TIP3    H263315   5.610   6.565  15.165
 4283TIP3   OH263316   5.164   6.610  14.507
 4283TIP3    H163317   5.098   6.646  14.571
 4283TIP3    H263318   5.220   6.558  14.566
 4284TIP3   OH263319   5.165   6.439  15.419
 4284TIP3    H163320   5.164   6.517  15.478
 4284TIP3    H263321   5.099   6.467  15.352
 4285TIP3   OH263322   4.331   6.688  14.703
 4285TIP3    H163323   4.298   6.647  14.619
 4285TIP3    H263324   4.393   6.619  14.736
 4286TIP3   OH263325   4.461   7.024  14.974
 4286TIP3    H163326   4.462   6.975  14.890
 4286TIP3    H263327   4.542   6.993  15.015
 4287TIP3   OH263328   4.365   6.563  15.066
 4287TIP3    H163329   4.422   6.572  14.987
 4287TIP3    H263330   4.404   6.627  15.129
 4288TIP3   OH263331   5.070   6.526  14.273
 4288TIP3    H163332   5.110   6.560  14.360
 4288TIP3    H263333   5.095   6.600  14.214
 4289TIP3   OH263334   4.155   6.620  15.455
 4289TIP3    H163335   4.156   6.685  15.529
 4289TIP3    H263336   4.061   6.632  15.431
 4290TIP3   OH263337   4.821   7.205  14.627
 4290TIP3    H163338   4.868   7.243  14.701
 4290TIP3    H263339   4.772   7.283  14.595
 4291TIP3   OH263340   4.286   7.214  15.613
 4291TIP3    H163341   4.284   7.196  15.517
 4291TIP3    H263342   4.193   7.199  15.638
 4292TIP3   OH263343   5.411   5.711  14.260
 4292TIP3    H163344   5.318   5.713  14.296
 4292TIP3    H263345   5.403   5.779  14.193
 4293TIP3   OH263346   4.230   6.593  14.465
 4293TIP3    H163347   4.203   6.668  14.408
 4293TIP3    H263348   4.166   6.525  14.440
 4294TIP3   OH263349   4.768   7.510  14.468
 4294TIP3    H163350   4.771   7.497  14.373
 4294TIP3    H263351   4.782   7.605  14.480
 4295TIP3   OH263352   5.352   6.324  15.644
 4295TIP3    H163353   5.304   6.368  15.573
 4295TIP3    H263354   5.352   6.231  15.615
 4296TIP3   OH263355   4.792   5.786  15.382
 4296TIP3    H163356   4.835   5.737  15.453
 4296TIP3    H263357   4.700   5.761  15.396
 4297TIP3   OH263358   5.127   6.158  15.467
 4297TIP3    H163359   5.072   6.141  15.547
 4297TIP3    H263360   5.109   6.251  15.443
 4298TIP3   OH263361   4.344   6.308  15.165
 4298TIP3    H163362   4.271   6.304  15.229
 4298TIP3    H263363   4.338   6.400  15.130
 4299TIP3   OH263364   4.340   6.319  14.654
 4299TIP3    H163365   4.246   6.298  14.639
 4299TIP3    H263366   4.380   6.292  14.568
 4300TIP3   OH263367   4.893   6.364  14.527
 4300TIP3    H163368   4.851   6.448  14.499
 4300TIP3    H263369   4.963   6.356  14.464
 4301TIP3   OH263370   4.799   6.392  15.676
 4301TIP3    H163371   4.744   6.314  15.703
 4301TIP3    H263372   4.882   6.374  15.723
 4302TIP3   OH263373   4.997   6.315  14.814
 4302TIP3    H163374   4.968   6.375  14.743
 4302TIP3    H263375   5.006   6.232  14.764
 4303TIP3   OH263376   4.108   6.334  15.337
 4303TIP3    H163377   4.113   6.375  15.425
 4303TIP3    H263378   4.062   6.251  15.352
 4304TIP3   OH263379   4.457   6.084  14.024
 4304TIP3    H163380   4.415   6.032  14.094
 4304TIP3    H263381   4.383   6.117  13.973
 4305TIP3   OH263382   3.771   6.042  14.727
 4305TIP3    H163383   3.835   6.048  14.799
 4305TIP3    H263384   3.823   6.007  14.654
 4306TIP3   OH263385   4.921   6.477  15.275
 4306TIP3    H163386   4.951   6.412  15.209
 4306TIP3    H263387   4.868   6.424  15.337
 4307TIP3   OH263388   4.597   6.074  14.755
 4307TIP3    H163389   4.503   6.077  14.783
 4307TIP3    H263390   4.644   6.063  14.837
 4308TIP3   OH263391   4.078   6.232  14.638
 4308TIP3    H163392   3.987   6.247  14.602
 4308TIP3    H263393   4.107   6.147  14.602
 4309TIP3   OH263394   4.439   6.236  14.407
 4309TIP3    H163395   4.536   6.241  14.420
 4309TIP3    H263396   4.418   6.300  14.336
 4310TIP3   OH263397   5.038   5.993  15.077
 4310TIP3    H163398   4.971   6.007  15.148
 4310TIP3    H263399   4.987   5.975  14.998
 4311TIP3   OH263400   4.316   6.358  14.164
 4311TIP3    H163401   4.255   6.320  14.097
 4311TIP3    H263402   4.397   6.373  14.114
 4312TIP3   OH263403   4.129   6.808  15.669
 4312TIP3    H163404   4.199   6.838  15.730
 4312TIP3    H263405   4.050   6.827  15.723
 4313TIP3   OH263406   4.720   6.347  14.941
 4313TIP3    H163407   4.785   6.298  14.889
 4313TIP3    H263408   4.711   6.298  15.023
 4314TIP3   OH263409   4.226   5.962  14.587
 4314TIP3    H163410   4.196   5.872  14.580
 4314TIP3    H263411   4.307   5.963  14.532
 4315TIP3   OH263412   4.590   6.186  15.183
 4315TIP3    H163413   4.506   6.235  15.195
 4315TIP3    H263414   4.643   6.218  15.260
 4316TIP3   OH263415   5.034   6.102  14.159
 4316TIP3    H163416   4.936   6.095  14.160
 4316TIP3    H263417   5.043   6.174  14.225
 4317TIP3   OH263418   5.122   6.274  14.315
 4317TIP3    H163419   5.189   6.273  14.388
 4317TIP3    H263420   5.108   6.370  14.301
 4318TIP3   OH263421   4.161   6.747  14.934
 4318TIP3    H163422   4.229   6.734  14.865
 4318TIP3    H263423   4.160   6.660  14.979
 4319TIP3   OH263424   3.859   6.582  15.462
 4319TIP3    H163425   3.876   6.541  15.548
 4319TIP3    H263426   3.794   6.524  15.418
 4320TIP3   OH263427   4.556   6.535  15.682
 4320TIP3    H163428   4.528   6.515  15.592
 4320TIP3    H263429   4.651   6.512  15.678
 4321TIP3   OH263430   5.581   6.291  14.315
 4321TIP3    H163431   5.547   6.265  14.231
 4321TIP3    H263432   5.609   6.384  14.290
 4322TIP3   OH263433   5.589   6.869  15.590
 4322TIP3    H163434   5.509   6.910  15.555
 4322TIP3    H263435   5.651   6.879  15.515
 4323TIP3   OH263436   4.394   7.090  14.675
 4323TIP3    H163437   4.445   7.170  14.651
 4323TIP3    H263438   4.307   7.114  14.642
 4324TIP3   OH263439   3.969   6.578  14.126
 4324TIP3    H163440   4.033   6.638  14.168
 4324TIP3    H263441   3.883   6.602  14.162
 4325TIP3   OH263442   4.542   6.858  14.632
 4325TIP3    H163443   4.507   6.949  14.634
 4325TIP3    H263444   4.465   6.809  14.666
 4326TIP3   OH263445   4.587   7.274  15.263
 4326TIP3    H163446   4.630   7.358  15.239
 4326TIP3    H263447   4.645   7.243  15.334
 4327TIP3   OH263448   4.405   7.354  14.584
 4327TIP3    H163449   4.310   7.369  14.593
 4327TIP3    H263450   4.441   7.439  14.615
 4328TIP3   OH263451   4.108   6.769  14.278
 4328TIP3    H163452   4.043   6.811  14.337
 4328TIP3    H263453   4.166   6.842  14.253
 4329TIP3   OH263454   4.899   6.032  15.305
 4329TIP3    H163455   4.965   6.043  15.375
 4329TIP3    H263456   4.856   5.948  15.331
 4330TIP3   OH263457   4.988   5.988  14.416
 4330TIP3    H163458   4.987   6.047  14.343
 4330TIP3    H263459   5.023   6.040  14.489
 4331TIP3   OH263460   4.691   6.173  14.499
 4331TIP3    H163461   4.773   6.225  14.505
 4331TIP3    H263462   4.668   6.152  14.592
 4332TIP3   OH263463   4.751   6.272  15.418
 4332TIP3    H163464   4.755   6.325  15.501
 4332TIP3    H263465   4.813   6.199  15.432
 4333TIP3   OH263466   4.471   7.314  14.304
 4333TIP3    H163467   4.490   7.394  14.253
 4333TIP3    H263468   4.453   7.348  14.393
 4334TIP3   OH263469   5.367   6.059  15.506
 4334TIP3    H163470   5.273   6.088  15.493
 4334TIP3    H263471   5.396   6.057  15.413
 4335TIP3   OH263472   5.231   6.435  14.902
 4335TIP3    H163473   5.144   6.396  14.881
 4335TIP3    H263474   5.273   6.368  14.960
 4336TIP3   OH263475   4.370   7.324  15.858
 4336TIP3    H163476   4.445   7.276  15.892
 4336TIP3    H263477   4.363   7.294  15.766
 4337TIP3   OH263478   3.888   6.805  15.800
 4337TIP3    H163479   3.911   6.717  15.764
 4337TIP3    H263480   3.820   6.836  15.740
 4338TIP3   OH263481   3.982   6.532  15.735
 4338TIP3    H163482   4.024   6.447  15.725
 4338TIP3    H263483   3.959   6.532  15.831
 4339TIP3   OH263484   4.448   6.644  14.238
 4339TIP3    H163485   4.398   6.593  14.303
 4339TIP3    H263486   4.474   6.573  14.177
 4340TIP3   OH263487   4.375   6.431  15.473
 4340TIP3    H163488   4.313   6.501  15.496
 4340TIP3    H263489   4.411   6.464  15.389
 4341TIP3   OH263490   4.555   6.461  14.062
 4341TIP3    H163491   4.538   6.452  13.967
 4341TIP3    H263492   4.651   6.477  14.070
 4342TIP3   OH263493   4.881   6.679  15.808
 4342TIP3    H163494   4.976   6.685  15.799
 4342TIP3    H263495   4.863   6.604  15.866
 4343TIP3   OH263496   4.454   5.998  15.329
 4343TIP3    H163497   4.507   6.050  15.266
 4343TIP3    H263498   4.368   5.993  15.287
 4344TIP3   OH263499   4.610   6.554  15.359
 4344TIP3    H163500   4.682   6.533  15.298
 4344TIP3    H263501   4.573   6.636  15.322
 4345TIP3   OH263502   5.046   6.325  15.853
 4345TIP3    H163503   5.071   6.231  15.847
 4345TIP3    H263504   5.133   6.369  15.855
 4346TIP3   OH263505   5.181   6.608  15.663
 4346TIP3    H163506   5.155   6.682  15.609
 4346TIP3    H263507   5.278   6.605  15.648
 4347TIP3   OH263508   4.659   6.177  15.732
 4347TIP3    H163509   4.627   6.158  15.822
 4347TIP3    H263510   4.580   6.159  15.679
 4348TIP3   OH263511   4.930   6.094  15.643
 4348TIP3    H163512   4.834   6.098  15.654
 4348TIP3    H263513   4.959   6.029  15.709
 4349TIP3   OH263514   5.087   5.960  15.832
 4349TIP3    H163515   5.087   5.861  15.835
 4349TIP3    H263516   5.064   5.985  15.925
 4350TIP3   OH263517   4.547   7.533  14.155
 4350TIP3    H163518   4.636   7.556  14.182
 4350TIP3    H263519   4.516   7.606  14.102
 4351TIP3   OH263520   5.606   7.425  15.092
 4351TIP3    H163521   5.603   7.444  15.186
 4351TIP3    H263522   5.674   7.488  15.064
 4352TIP3   OH263523   5.540   6.791  14.401
 4352TIP3    H163524   5.627   6.831  14.419
 4352TIP3    H263525   5.539   6.719  14.467
 4353TIP3   OH263526   5.575   6.601  14.585
 4353TIP3    H163527   5.501   6.548  14.623
 4353TIP3    H263528   5.632   6.613  14.661
 4354TIP3   OH263529   5.553   6.871  15.087
 4354TIP3    H163530   5.635   6.835  15.050
 4354TIP3    H263531   5.564   6.967  15.069
 4355TIP3   OH263532   5.601   6.575  14.227
 4355TIP3    H163533   5.555   6.618  14.155
 4355TIP3    H263534   5.601   6.647  14.293
 4356TIP3   OH263535   5.359   6.446  14.644
 4356TIP3    H163536   5.344   6.351  14.646
 4356TIP3    H263537   5.323   6.471  14.731
 4357TIP3   OH263538   5.440   6.646  15.613
 4357TIP3    H163539   5.503   6.572  15.627
 4357TIP3    H263540   5.504   6.721  15.610
 4358TIP3   OH263541   5.595   6.436  15.677
 4358TIP3    H163542   5.508   6.392  15.664
 4358TIP3    H263543   5.653   6.357  15.671
 4359TIP3   OH263544   5.352   6.051  14.012
 4359TIP3    H163545   5.434   6.003  14.039
 4359TIP3    H263546   5.286   5.981  13.994
 4360TIP3   OH263547   5.325   6.201  14.473
 4360TIP3    H163548   5.357   6.118  14.511
 4360TIP3    H263549   5.407   6.252  14.460
 4361TIP3   OH263550   5.388   6.261  15.034
 4361TIP3    H163551   5.484   6.283  15.032
 4361TIP3    H263552   5.369   6.273  15.128
 4362TIP3   OH263553   5.393   6.333  15.314
 4362TIP3    H163554   5.304   6.361  15.344
 4362TIP3    H263555   5.437   6.418  15.290
 4363TIP3   OH263556   5.623   5.736  15.845
 4363TIP3    H163557   5.660   5.670  15.786
 4363TIP3    H263558   5.633   5.819  15.796
 4364TIP3   OH263559   5.403   5.917  14.478
 4364TIP3    H163560   5.408   5.895  14.576
 4364TIP3    H263561   5.320   5.866  14.457
 4365TIP3   OH263562   3.765   6.316  15.051
 4365TIP3    H163563   3.825   6.291  14.978
 4365TIP3    H263564   3.815   6.393  15.081
 4366TIP3   OH263565   5.574   5.946  15.682
 4366TIP3    H163566   5.480   5.974  15.679
 4366TIP3    H263567   5.577   5.892  15.602
 4367TIP3   OH263568   5.577   5.954  14.129
 4367TIP3    H163569   5.619   5.884  14.072
 4367TIP3    H263570   5.651   6.019  14.133
 4368TIP3   OH263571   3.809   5.943  14.464
 4368TIP3    H163572   3.714   5.955  14.454
 4368TIP3    H263573   3.849   5.984  14.387
 4369TIP3   OH263574   4.020   7.130  15.705
 4369TIP3    H163575   3.936   7.149  15.664
 4369TIP3    H263576   3.998   7.122  15.798
 4370TIP3   OH263577   4.311   7.227  15.327
 4370TIP3    H163578   4.281   7.315  15.307
 4370TIP3    H263579   4.406   7.236  15.307
 4371TIP3   OH263580   5.473   5.753  15.466
 4371TIP3    H163581   5.393   5.790  15.425
 4371TIP3    H263582   5.492   5.676  15.410
 4372TIP3   OH263583   4.301   7.507  15.242
 4372TIP3    H163584   4.215   7.524  15.282
 4372TIP3    H263585   4.298   7.566  15.165
 4373TIP3   OH263586   4.774   7.502  15.157
 4373TIP3    H163587   4.725   7.558  15.095
 4373TIP3    H263588   4.791   7.563  15.233
 4374TIP3   OH263589   4.211   7.286  14.891
 4374TIP3    H163590   4.191   7.194  14.915
 4374TIP3    H263591   4.294   7.302  14.939
 4375TIP3   OH263592   4.471   7.336  14.983
 4375TIP3    H163593   4.484   7.242  14.956
 4375TIP3    H263594   4.472   7.330  15.079
 4376TIP3   OH263595   5.328   5.710  14.906
 4376TIP3    H163596   5.391   5.762  14.852
 4376TIP3    H263597   5.242   5.740  14.877
 4377TIP3   OH263598   5.493   5.833  14.721
 4377TIP3    H163599   5.564   5.770  14.692
 4377TIP3    H263600   5.545   5.912  14.748
 4378TIP3   OH263601   5.198   5.767  14.383
 4378TIP3    H163602   5.117   5.820  14.377
 4378TIP3    H263603   5.156   5.681  14.409
 4379TIP3   OH263604   3.908   7.336  14.366
 4379TIP3    H163605   3.853   7.332  14.287
 4379TIP3    H263606   3.923   7.430  14.377
 4380TIP3   OH263607   4.040   5.814  15.631
 4380TIP3    H163608   4.004   5.733  15.671
 4380TIP3    H263609   4.131   5.818  15.661
 4381TIP3   OH263610   5.083   5.691  15.805
 4381TIP3    H163611   5.090   5.633  15.883
 4381TIP3    H263612   5.172   5.679  15.767
 4382TIP3   OH263613   6.737   6.600  15.017
 4382TIP3    H163614   6.727   6.535  15.087
 4382TIP3    H263615   6.701   6.557  14.938
 4383TIP3   OH263616   6.062   7.015  15.027
 4383TIP3    H163617   6.029   6.931  14.994
 4383TIP3    H263618   6.158   6.998  15.031
 4384TIP3   OH263619   5.722   6.371  14.570
 4384TIP3    H163620   5.680   6.459  14.563
 4384TIP3    H263621   5.666   6.320  14.511
 4385TIP3   OH263622   6.816   7.404  14.863
 4385TIP3    H163623   6.881   7.337  14.844
 4385TIP3    H263624   6.793   7.386  14.956
 4386TIP3   OH263625   5.862   6.338  14.893
 4386TIP3    H163626   5.930   6.282  14.933
 4386TIP3    H263627   5.870   6.310  14.800
 4387TIP3   OH263628   7.495   6.169  15.368
 4387TIP3    H163629   7.419   6.225  15.349
 4387TIP3    H263630   7.480   6.137  15.457
 4388TIP3   OH263631   6.086   5.986  15.225
 4388TIP3    H163632   6.064   6.037  15.147
 4388TIP3    H263633   6.017   6.011  15.290
 4389TIP3   OH263634   5.783   6.916  14.404
 4389TIP3    H163635   5.770   6.946  14.314
 4389TIP3    H263636   5.802   6.998  14.454
 4390TIP3   OH263637   6.717   6.605  14.417
 4390TIP3    H163638   6.644   6.657  14.382
 4390TIP3    H263639   6.784   6.611  14.348
 4391TIP3   OH263640   7.453   6.539  15.248
 4391TIP3    H163641   7.389   6.611  15.253
 4391TIP3    H263642   7.498   6.566  15.167
 4392TIP3   OH263643   7.055   6.620  14.509
 4392TIP3    H163644   6.982   6.643  14.567
 4392TIP3    H263645   7.105   6.555  14.559
 4393TIP3   OH263646   6.348   7.025  14.974
 4393TIP3    H163647   6.349   6.973  14.891
 4393TIP3    H263648   6.431   6.995  15.017
 4394TIP3   OH263649   6.719   7.215  14.624
 4394TIP3    H163650   6.755   7.245  14.707
 4394TIP3    H263651   6.657   7.285  14.603
 4395TIP3   OH263652   6.167   7.210  15.613
 4395TIP3    H163653   6.166   7.195  15.517
 4395TIP3    H263654   6.073   7.194  15.638
 4396TIP3   OH263655   5.720   6.834  15.347
 4396TIP3    H163656   5.678   6.823  15.261
 4396TIP3    H263657   5.733   6.742  15.375
 4397TIP3   OH263658   5.701   7.103  15.034
 4397TIP3    H163659   5.797   7.095  15.029
 4397TIP3    H263660   5.690   7.189  15.080
 4398TIP3   OH263661   6.027   7.395  14.650
 4398TIP3    H163662   6.040   7.351  14.736
 4398TIP3    H263663   5.943   7.354  14.624
 4399TIP3   OH263664   6.683   5.769  15.377
 4399TIP3    H163665   6.721   5.743  15.461
 4399TIP3    H263666   6.586   5.767  15.395
 4400TIP3   OH263667   6.777   6.367  14.529
 4400TIP3    H163668   6.737   6.452  14.502
 4400TIP3    H263669   6.846   6.356  14.464
 4401TIP3   OH263670   5.991   6.336  15.337
 4401TIP3    H163671   5.995   6.377  15.424
 4401TIP3    H263672   5.952   6.250  15.356
 4402TIP3   OH263673   5.657   6.044  14.728
 4402TIP3    H163674   5.720   6.043  14.805
 4402TIP3    H263675   5.711   6.007  14.658
 4403TIP3   OH263676   5.959   6.229  14.647
 4403TIP3    H163677   5.876   6.247  14.599
 4403TIP3    H263678   5.994   6.148  14.605
 4404TIP3   OH263679   6.329   6.230  14.402
 4404TIP3    H163680   6.421   6.246  14.423
 4404TIP3    H263681   6.309   6.300  14.341
 4405TIP3   OH263682   6.110   5.966  14.578
 4405TIP3    H163683   6.087   5.873  14.591
 4405TIP3    H263684   6.194   5.961  14.532
 4406TIP3   OH263685   5.745   6.584  15.462
 4406TIP3    H163686   5.764   6.540  15.546
 4406TIP3    H263687   5.683   6.524  15.419
 4407TIP3   OH263688   6.279   7.091  14.678
 4407TIP3    H163689   6.332   7.168  14.651
 4407TIP3    H263690   6.193   7.112  14.640
 4408TIP3   OH263691   6.466   7.281  15.266
 4408TIP3    H163692   6.517   7.356  15.234
 4408TIP3    H263693   6.528   7.242  15.329
 4409TIP3   OH263694   6.291   7.359  14.580
 4409TIP3    H163695   6.194   7.372  14.593
 4409TIP3    H263696   6.326   7.439  14.619
 4410TIP3   OH263697   7.472   7.421  14.196
 4410TIP3    H163698   7.546   7.467  14.155
 4410TIP3    H263699   7.403   7.489  14.200
 4411TIP3   OH263700   5.904   6.063  15.415
 4411TIP3    H163701   5.813   6.093  15.411
 4411TIP3    H263702   5.897   5.978  15.461
 4412TIP3   OH263703   5.868   7.238  15.257
 4412TIP3    H163704   5.894   7.146  15.260
 4412TIP3    H263705   5.897   7.268  15.345
 4413TIP3   OH263706   6.860   5.995  14.417
 4413TIP3    H163707   6.876   6.047  14.338
 4413TIP3    H263708   6.914   6.037  14.484
 4414TIP3   OH263709   6.666   5.875  14.595
 4414TIP3    H163710   6.635   5.943  14.657
 4414TIP3    H263711   6.733   5.929  14.546
 4415TIP3   OH263712   6.362   7.315  14.301
 4415TIP3    H163713   6.377   7.397  14.253
 4415TIP3    H263714   6.339   7.344  14.391
 4416TIP3   OH263715   5.967   5.777  14.955
 4416TIP3    H163716   5.952   5.779  14.859
 4416TIP3    H263717   5.929   5.691  14.979
 4417TIP3   OH263718   5.865   7.169  14.569
 4417TIP3    H163719   5.781   7.216  14.567
 4417TIP3    H263720   5.916   7.215  14.500
 4418TIP3   OH263721   6.250   7.319  15.862
 4418TIP3    H163722   6.330   7.279  15.893
 4418TIP3    H263723   6.248   7.296  15.766
 4419TIP3   OH263724   6.938   6.331  15.862
 4419TIP3    H163725   6.953   6.238  15.841
 4419TIP3    H263726   7.024   6.372  15.851
 4420TIP3   OH263727   7.061   6.609  15.664
 4420TIP3    H163728   7.037   6.680  15.605
 4420TIP3    H263729   7.156   6.604  15.650
 4421TIP3   OH263730   6.414   5.750  15.373
 4421TIP3    H163731   6.400   5.845  15.357
 4421TIP3    H263732   6.341   5.711  15.321
 4422TIP3   OH263733   6.547   6.174  15.729
 4422TIP3    H163734   6.521   6.163  15.821
 4422TIP3    H263735   6.466   6.163  15.679
 4423TIP3   OH263736   6.815   6.086  15.634
 4423TIP3    H163737   6.721   6.103  15.652
 4423TIP3    H263738   6.843   6.030  15.705
 4424TIP3   OH263739   6.444   5.687  15.638
 4424TIP3    H163740   6.508   5.613  15.637
 4424TIP3    H263741   6.426   5.701  15.543
 4425TIP3   OH263742   6.475   5.848  15.848
 4425TIP3    H163743   6.460   5.796  15.765
 4425TIP3    H263744   6.415   5.922  15.837
 4426TIP3   OH263745   5.656   7.535  14.611
 4426TIP3    H163746   5.584   7.488  14.567
 4426TIP3    H263747   5.684   7.471  14.680
 4427TIP3   OH263748   5.735   7.347  14.796
 4427TIP3    H163749   5.701   7.260  14.819
 4427TIP3    H263750   5.759   7.382  14.884
 4428TIP3   OH263751   7.428   6.790  14.399
 4428TIP3    H163752   7.514   6.830  14.420
 4428TIP3    H263753   7.425   6.718  14.464
 4429TIP3   OH263754   7.464   6.595  14.586
 4429TIP3    H163755   7.387   6.549  14.626
 4429TIP3    H263756   7.520   6.616  14.663
 4430TIP3   OH263757   7.434   6.873  15.076
 4430TIP3    H163758   7.518   6.830  15.055
 4430TIP3    H263759   7.456   6.967  15.071
 4431TIP3   OH263760   7.242   6.446  14.646
 4431TIP3    H163761   7.226   6.352  14.643
 4431TIP3    H263762   7.208   6.477  14.732
 4432TIP3   OH263763   5.748   6.655  15.048
 4432TIP3    H163764   5.764   6.643  14.954
 4432TIP3    H263765   5.834   6.641  15.088
 4433TIP3   OH263766   5.705   6.186  15.663
 4433TIP3    H163767   5.798   6.164  15.679
 4433TIP3    H263768   5.660   6.105  15.694
 4434TIP3   OH263769   5.825   6.014  14.948
 4434TIP3    H163770   5.873   5.931  14.974
 4434TIP3    H263771   5.877   6.081  14.990
 4435TIP3   OH263772   5.654   6.313  15.053
 4435TIP3    H163773   5.710   6.289  14.977
 4435TIP3    H263774   5.696   6.395  15.080
 4436TIP3   OH263775   5.683   5.932  14.434
 4436TIP3    H163776   5.604   5.977  14.474
 4436TIP3    H263777   5.740   6.004  14.404
 4437TIP3   OH263778   5.689   5.812  15.294
 4437TIP3    H163779   5.619   5.789  15.357
 4437TIP3    H263780   5.640   5.873  15.235
 4438TIP3   OH263781   5.908   7.127  15.707
 4438TIP3    H163782   5.823   7.146  15.666
 4438TIP3    H263783   5.883   7.121  15.800
 4439TIP3   OH263784   6.201   7.227  15.339
 4439TIP3    H163785   6.160   7.308  15.308
 4439TIP3    H263786   6.292   7.235  15.305
 4440TIP3   OH263787   6.658   7.497  15.160
 4440TIP3    H163788   6.615   7.552  15.091
 4440TIP3    H263789   6.677   7.564  15.230
 4441TIP3   OH263790   6.890   7.385  15.255
 4441TIP3    H163791   6.802   7.409  15.224
 4441TIP3    H263792   6.938   7.469  15.251
 4442TIP3   OH263793   7.144   7.538  15.283
 4442TIP3    H163794   7.139   7.635  15.264
 4442TIP3    H263795   7.169   7.504  15.197
 4443TIP3   OH263796   5.885   7.410  15.027
 4443TIP3    H163797   5.881   7.368  15.115
 4443TIP3    H263798   5.968   7.379  14.988
 4444TIP3   OH263799   6.094   7.286  14.898
 4444TIP3    H163800   6.079   7.192  14.915
 4444TIP3    H263801   6.181   7.300  14.939
 4445TIP3   OH263802   6.351   7.333  14.984
 4445TIP3    H163803   6.371   7.242  14.954
 4445TIP3    H263804   6.361   7.322  15.080
 4446TIP3   OH263805   6.701   5.896  14.894
 4446TIP3    H163806   6.635   5.832  14.920
 4446TIP3    H263807   6.761   5.847  14.837
 4447TIP3   OH263808   5.934   5.763  14.677
 4447TIP3    H163809   5.854   5.736  14.631
 4447TIP3    H263810   5.986   5.680  14.677
 4448TIP3   OH263811   5.791   5.750  14.242
 4448TIP3    H163812   5.868   5.795  14.196
 4448TIP3    H263813   5.787   5.799  14.324
 4449TIP3   OH263814   6.390   5.747  14.659
 4449TIP3    H163815   6.474   5.795  14.654
 4449TIP3    H263816   6.375   5.737  14.753
 4450TIP3   OH263817   7.068   5.760  14.430
 4450TIP3    H163818   7.014   5.820  14.378
 4450TIP3    H263819   7.036   5.671  14.409
 4451TIP3   OH263820   5.803   7.334  14.355
 4451TIP3    H163821   5.741   7.332  14.283
 4451TIP3    H263822   5.810   7.428  14.374
 4452TIP3   OH263823   7.859   6.568  15.168
 4452TIP3    H163824   7.860   6.502  15.242
 4452TIP3    H263825   7.927   6.630  15.198
 4453TIP3   OH263826   7.944   7.011  15.025
 4453TIP3    H163827   7.913   6.926  14.989
 4453TIP3    H263828   8.041   6.996  15.029
 4454TIP3   OH263829   7.610   6.370  14.568
 4454TIP3    H163830   7.568   6.459  14.563
 4454TIP3    H263831   7.554   6.317  14.511
 4455TIP3   OH263832   7.680   6.590  14.779
 4455TIP3    H163833   7.704   6.512  14.833
 4455TIP3    H263834   7.756   6.600  14.720
 4456TIP3   OH263835   8.038   6.111  14.837
 4456TIP3    H163836   8.083   6.185  14.788
 4456TIP3    H263837   8.043   6.046  14.767
 4457TIP3   OH263838   7.749   6.340  14.889
 4457TIP3    H163839   7.815   6.285  14.937
 4457TIP3    H263840   7.758   6.308  14.798
 4458TIP3   OH263841   7.969   5.983  15.220
 4458TIP3    H163842   7.947   6.047  15.150
 4458TIP3    H263843   7.907   6.012  15.290
 4459TIP3   OH263844   7.920   6.176  15.044
 4459TIP3    H163845   7.987   6.244  15.058
 4459TIP3    H263846   7.966   6.137  14.965
 4460TIP3   OH263847   8.074   6.950  15.325
 4460TIP3    H163848   8.068   7.042  15.296
 4460TIP3    H263849   7.987   6.943  15.371
 4461TIP3   OH263850   7.688   6.910  14.419
 4461TIP3    H163851   7.655   6.934  14.331
 4461TIP3    H263852   7.684   6.998  14.464
 4462TIP3   OH263853   8.102   6.683  14.709
 4462TIP3    H163854   8.072   6.654  14.619
 4462TIP3    H263855   8.164   6.616  14.734
 4463TIP3   OH263856   7.917   6.621  15.456
 4463TIP3    H163857   7.928   6.688  15.525
 4463TIP3    H263858   7.825   6.632  15.430
 4464TIP3   OH263859   8.056   7.178  15.621
 4464TIP3    H163860   8.055   7.191  15.523
 4464TIP3    H263861   7.961   7.190  15.639
 4465TIP3   OH263862   8.000   6.594  14.468
 4465TIP3    H163863   7.975   6.667  14.408
 4465TIP3    H263864   7.937   6.526  14.440
 4466TIP3   OH263865   7.589   7.102  15.034
 4466TIP3    H163866   7.685   7.094  15.030
 4466TIP3    H263867   7.578   7.186  15.082
 4467TIP3   OH263868   7.926   7.361  14.640
 4467TIP3    H163869   7.927   7.350  14.736
 4467TIP3    H263870   7.830   7.353  14.624
 4468TIP3   OH263871   7.833   6.960  15.445
 4468TIP3    H163872   7.858   6.926  15.534
 4468TIP3    H263873   7.747   6.920  15.430
 4469TIP3   OH263874   8.087   5.812  15.047
 4469TIP3    H163875   8.005   5.806  15.000
 4469TIP3    H263876   8.090   5.902  15.084
 4470TIP3   OH263877   8.111   6.319  15.224
 4470TIP3    H163878   8.018   6.301  15.248
 4470TIP3    H263879   8.095   6.381  15.153
 4471TIP3   OH263880   8.083   6.311  14.680
 4471TIP3    H163881   7.995   6.287  14.645
 4471TIP3    H263882   8.145   6.280  14.613
 4472TIP3   OH263883   7.874   6.338  15.340
 4472TIP3    H163884   7.882   6.377  15.428
 4472TIP3    H263885   7.835   6.251  15.356
 4473TIP3   OH263886   7.842   6.228  14.644
 4473TIP3    H163887   7.756   6.243  14.600
 4473TIP3    H263888   7.876   6.145  14.606
 4474TIP3   OH263889   8.086   6.343  14.163
 4474TIP3    H163890   8.025   6.320  14.090
 4474TIP3    H263891   8.163   6.378  14.115
 4475TIP3   OH263892   7.894   6.814  15.669
 4475TIP3    H163893   7.967   6.835  15.730
 4475TIP3    H263894   7.819   6.823  15.728
 4476TIP3   OH263895   7.970   5.960  14.585
 4476TIP3    H163896   7.961   5.865  14.583
 4476TIP3    H263897   8.064   5.967  14.560
 4477TIP3   OH263898   7.931   6.743  14.934
 4477TIP3    H163899   8.000   6.738  14.865
 4477TIP3    H263900   7.933   6.657  14.978
 4478TIP3   OH263901   7.630   6.584  15.464
 4478TIP3    H163902   7.648   6.535  15.545
 4478TIP3    H263903   7.566   6.528  15.416
 4479TIP3   OH263904   7.744   6.572  14.132
 4479TIP3    H163905   7.803   6.640  14.166
 4479TIP3    H263906   7.655   6.604  14.155
 4480TIP3   OH263907   7.791   6.061  15.415
 4480TIP3    H163908   7.701   6.096  15.412
 4480TIP3    H263909   7.781   5.976  15.462
 4481TIP3   OH263910   7.759   7.238  15.255
 4481TIP3    H163911   7.784   7.145  15.257
 4481TIP3    H263912   7.785   7.267  15.343
 4482TIP3   OH263913   7.882   6.768  14.276
 4482TIP3    H163914   7.813   6.804  14.336
 4482TIP3    H263915   7.929   6.848  14.252
 4483TIP3   OH263916  -0.053   5.983  14.247
 4483TIP3    H163917  -0.047   6.072  14.282
 4483TIP3    H263918   0.040   5.954  14.262
 4484TIP3   OH263919   7.940   7.040  14.152
 4484TIP3    H163920   8.004   7.088  14.205
 4484TIP3    H263921   7.992   6.978  14.101
 4485TIP3   OH263922   7.778   6.294  14.081
 4485TIP3    H163923   7.772   6.391  14.098
 4485TIP3    H263924   7.689   6.274  14.054
 4486TIP3   OH263925   7.750   7.163  14.563
 4486TIP3    H163926   7.666   7.210  14.564
 4486TIP3    H263927   7.803   7.218  14.504
 4487TIP3   OH263928   7.640   7.394  15.749
 4487TIP3    H163929   7.733   7.393  15.774
 4487TIP3    H263930   7.634   7.340  15.671
 4488TIP3   OH263931   8.020   6.291  15.780
 4488TIP3    H163932   7.947   6.236  15.749
 4488TIP3    H263933   8.090   6.264  15.716
 4489TIP3   OH263934   7.630   6.657  15.048
 4489TIP3    H163935   7.647   6.646  14.953
 4489TIP3    H263936   7.717   6.638  15.088
 4490TIP3   OH263937   7.712   6.018  14.970
 4490TIP3    H163938   7.767   5.940  14.980
 4490TIP3    H263939   7.769   6.092  14.996
 4491TIP3   OH263940   7.543   6.310  15.055
 4491TIP3    H163941   7.599   6.292  14.979
 4491TIP3    H263942   7.581   6.393  15.083
 4492TIP3   OH263943   7.787   7.126  15.711
 4492TIP3    H163944   7.705   7.147  15.667
 4492TIP3    H263945   7.763   7.128  15.804
 4493TIP3   OH263946   8.086   7.224  15.342
 4493TIP3    H163947   8.045   7.305  15.302
 4493TIP3    H263948   8.175   7.235  15.305
 4494TIP3   OH263949   7.788   7.513  15.285
 4494TIP3    H163950   7.756   7.603  15.275
 4494TIP3    H263951   7.791   7.507  15.383
 4495TIP3   OH263952   8.064   7.449  15.232
 4495TIP3    H163953   7.989   7.492  15.277
 4495TIP3    H263954   8.075   7.528  15.173
 4496TIP3   OH263955   7.760   7.400  15.027
 4496TIP3    H163956   7.766   7.368  15.119
 4496TIP3    H263957   7.848   7.381  14.991
 4497TIP3   OH263958   7.980   7.284  14.893
 4497TIP3    H163959   7.961   7.192  14.918
 4497TIP3    H263960   8.062   7.298  14.941
 4498TIP3   OH263961   7.701   7.337  14.336
 4498TIP3    H163962   7.617   7.332  14.286
 4498TIP3    H263963   7.693   7.425  14.376
 4499TIP3   OH263964   8.013   5.753  15.789
 4499TIP3    H163965   8.098   5.719  15.760
 4499TIP3    H263966   7.969   5.676  15.828
 4500TIP3   OH263967   7.903   7.380  14.024
 4500TIP3    H163968   7.850   7.429  14.096
 4500TIP3    H263969   7.969   7.357  14.088
 4501TIP3   OH263970   1.834   7.871  15.172
 4501TIP3    H163971   1.796   7.943  15.225
 4501TIP3    H263972   1.835   7.914  15.085
 4502TIP3   OH263973   0.549   7.982  14.817
 4502TIP3    H163974   0.560   8.065  14.769
 4502TIP3    H263975   0.512   7.926  14.746
 4503TIP3   OH263976   1.311   8.000  14.648
 4503TIP3    H163977   1.372   7.963  14.717
 4503TIP3    H263978   1.377   8.047  14.596
 4504TIP3   OH263979   1.872   8.030  15.402
 4504TIP3    H163980   1.800   8.090  15.369
 4504TIP3    H263981   1.830   8.008  15.485
 4505TIP3   OH263982   0.433   7.865  15.221
 4505TIP3    H163983   0.401   7.927  15.150
 4505TIP3    H263984   0.366   7.897  15.287
 4506TIP3   OH263985   1.469   7.906  14.834
 4506TIP3    H163986   1.459   7.834  14.898
 4506TIP3    H263987   1.528   7.956  14.892
 4507TIP3   OH263988   0.424   8.054  15.033
 4507TIP3    H163989   0.459   8.142  15.049
 4507TIP3    H263990   0.453   8.025  14.946
 4508TIP3   OH263991   1.518   7.794  15.256
 4508TIP3    H163992   1.447   7.850  15.219
 4508TIP3    H263993   1.583   7.812  15.187
 4509TIP3   OH263994   0.825   7.607  14.966
 4509TIP3    H163995   0.814   7.510  14.959
 4509TIP3    H263996   0.738   7.638  14.997
 4510TIP3   OH263997   0.569   7.697  15.051
 4510TIP3    H163998   0.484   7.683  15.003
 4510TIP3    H263999   0.555   7.785  15.090
 4511TIP3   OH264000   1.027   7.664  15.380
 4511TIP3    H164001   1.068   7.623  15.459
 4511TIP3    H264002   0.931   7.650  15.394
 4512TIP3   OH264003   1.353   8.062  15.448
 4512TIP3    H164004   1.309   8.036  15.533
 4512TIP3    H264005   1.329   8.154  15.443
 4513TIP3   OH264006   0.988   7.926  14.115
 4513TIP3    H164007   0.959   7.917  14.208
 4513TIP3    H264008   0.967   7.838  14.082
 4514TIP3   OH264009   0.204   8.042  14.734
 4514TIP3    H164010   0.125   8.012  14.778
 4514TIP3    H264011   0.199   7.957  14.681
 4515TIP3   OH264012   0.192   8.070  14.302
 4515TIP3    H164013   0.198   8.081  14.207
 4515TIP3    H264014   0.097   8.071  14.312
 4516TIP3   OH264015   0.827   7.962  14.754
 4516TIP3    H164016   0.733   7.960  14.781
 4516TIP3    H264017   0.877   7.946  14.836
 4517TIP3   OH264018   0.313   8.097  14.531
 4517TIP3    H164019   0.233   8.114  14.585
 4517TIP3    H264020   0.344   8.022  14.583
 4518TIP3   OH264021   0.673  -0.030  14.390
 4518TIP3    H164022   0.762  -0.010  14.423
 4518TIP3    H264023   0.650   0.047  14.337
 4519TIP3   OH264024   1.268   7.878  15.080
 4519TIP3    H164025   1.198   7.891  15.147
 4519TIP3    H264026   1.217   7.862  14.999
 4520TIP3   OH264027   0.470   7.856  14.574
 4520TIP3    H164028   0.429   7.766  14.579
 4520TIP3    H264029   0.548   7.842  14.520
 4521TIP3   OH264030   0.817   8.062  15.180
 4521TIP3    H164031   0.740   8.117  15.193
 4521TIP3    H264032   0.871   8.097  15.254
 4522TIP3   OH264033   1.236   7.893  14.208
 4522TIP3    H164034   1.165   7.935  14.155
 4522TIP3    H264035   1.283   7.979  14.200
 4523TIP3   OH264036   0.250   7.941  15.417
 4523TIP3    H164037   0.163   7.983  15.415
 4523TIP3    H264038   0.234   7.858  15.465
 4524TIP3   OH264039   1.122   7.925  15.307
 4524TIP3    H164040   1.190   7.928  15.376
 4524TIP3    H264041   1.083   7.837  15.328
 4525TIP3   OH264042   1.200   7.859  14.450
 4525TIP3    H164043   1.206   7.891  14.357
 4525TIP3    H264044   1.258   7.921  14.498
 4526TIP3   OH264045   0.923   8.054  14.501
 4526TIP3    H164046   1.001   8.111  14.507
 4526TIP3    H264047   0.896   8.041  14.594
 4527TIP3   OH264048   0.952  -0.048  15.456
 4527TIP3    H164049   0.968   0.039  15.497
 4527TIP3    H264050   1.041  -0.075  15.428
 4528TIP3   OH264051   1.005   7.762  14.595
 4528TIP3    H164052   0.976   7.828  14.660
 4528TIP3    H264053   1.075   7.813  14.546
 4529TIP3   OH264054   0.575   7.872  14.260
 4529TIP3    H164055   0.566   7.960  14.304
 4529TIP3    H264056   0.665   7.848  14.289
 4530TIP3   OH264057   1.599   7.950  15.503
 4530TIP3    H164058   1.504   7.972  15.494
 4530TIP3    H264059   1.626   7.940  15.411
 4531TIP3   OH264060   0.347   7.610  14.956
 4531TIP3    H164061   0.322   7.648  14.870
 4531TIP3    H264062   0.263   7.563  14.973
 4532TIP3   OH264063   0.605   8.038  15.568
 4532TIP3    H164064   0.651   7.973  15.513
 4532TIP3    H264065   0.631   8.122  15.530
 4533TIP3   OH264066   0.681   7.889  15.332
 4533TIP3    H164067   0.736   7.934  15.263
 4533TIP3    H264068   0.593   7.882  15.288
 4534TIP3   OH264069   0.761   7.635  15.377
 4534TIP3    H164070   0.743   7.731  15.365
 4534TIP3    H264071   0.690   7.597  15.323
 4535TIP3   OH264072   0.903   8.026  15.747
 4535TIP3    H164073   0.867   8.038  15.837
 4535TIP3    H264074   0.821   8.033  15.697
 4536TIP3   OH264075   1.092   7.929  15.598
 4536TIP3    H164076   1.038   7.990  15.652
 4536TIP3    H264077   1.156   7.916  15.670
 4537TIP3   OH264078   1.328   7.756  15.911
 4537TIP3    H164079   1.289   7.713  15.833
 4537TIP3    H264080   1.275   7.838  15.916
 4538TIP3   OH264081   0.391   7.961  15.737
 4538TIP3    H164082   0.344   7.901  15.675
 4538TIP3    H264083   0.331   7.936  15.811
 4539TIP3   OH264084   0.780   7.564  15.640
 4539TIP3    H164085   0.850   7.497  15.637
 4539TIP3    H264086   0.773   7.590  15.546
 4540TIP3   OH264087   0.813   7.726  15.851
 4540TIP3    H164088   0.803   7.684  15.764
 4540TIP3    H264089   0.764   7.811  15.841
 4541TIP3   OH264090   1.606   7.845  14.129
 4541TIP3    H164091   1.674   7.870  14.063
 4541TIP3    H264092   1.537   7.867  14.062
 4542TIP3   OH264093   1.548   8.090  14.480
 4542TIP3    H164094   1.580   7.998  14.500
 4542TIP3    H264095   1.631   8.128  14.451
 4543TIP3   OH264096   1.517   0.033  14.902
 4543TIP3    H164097   1.614   0.033  14.923
 4543TIP3    H264098   1.511   0.014  15.000
 4544TIP3   OH264099   0.062   8.129  15.607
 4544TIP3    H164100   0.141   8.091  15.650
 4544TIP3    H264101   0.016   8.056  15.656
 4545TIP3   OH264102   1.850   7.624  15.852
 4545TIP3    H164103   1.879   7.556  15.791
 4545TIP3    H264104   1.857   7.705  15.801
 4546TIP3   OH264105   1.613   7.824  14.495
 4546TIP3    H164106   1.637   7.773  14.574
 4546TIP3    H264107   1.561   7.756  14.447
 4547TIP3   OH264108   0.224   7.926  15.061
 4547TIP3    H164109   0.209   7.847  15.006
 4547TIP3    H264110   0.245   7.991  14.992
 4548TIP3   OH264111   0.117   7.769  14.535
 4548TIP3    H164112   0.028   7.796  14.513
 4548TIP3    H264113   0.144   7.831  14.464
 4549TIP3   OH264114   8.217   7.704  15.245
 4549TIP3    H164115   8.156   7.684  15.323
 4549TIP3    H264116   8.150   7.772  15.221
 4550TIP3   OH264117   1.038   7.788  14.894
 4550TIP3    H164118   0.976   7.719  14.923
 4550TIP3    H264119   1.100   7.737  14.838
 4551TIP3   OH264120   1.726   7.710  14.736
 4551TIP3    H164121   1.790   7.658  14.685
 4551TIP3    H264122   1.772   7.796  14.741
 4552TIP3   OH264123   0.292   7.592  14.602
 4552TIP3    H164124   0.198   7.617  14.625
 4552TIP3    H264125   0.325   7.546  14.680
 4553TIP3   OH264126   0.229   7.625  14.306
 4553TIP3    H164127   0.217   7.693  14.233
 4553TIP3    H264128   0.146   7.655  14.352
 4554TIP3   OH264129   0.729   7.645  14.660
 4554TIP3    H164130   0.821   7.676  14.651
 4554TIP3    H264131   0.724   7.619  14.752
 4555TIP3   OH264132   1.293   7.643  14.824
 4555TIP3    H164133   1.299   7.655  14.728
 4555TIP3    H264134   1.262   7.551  14.834
 4556TIP3   OH264135   1.427   7.647  14.393
 4556TIP3    H164136   1.354   7.706  14.372
 4556TIP3    H264137   1.383   7.561  14.409
 4557TIP3   OH264138   0.346   7.787  14.112
 4557TIP3    H164139   0.410   7.764  14.044
 4557TIP3    H264140   0.404   7.851  14.163
 4558TIP3   OH264141   0.845   7.845  14.343
 4558TIP3    H164142   0.870   7.786  14.416
 4558TIP3    H264143   0.847   7.931  14.393
 4559TIP3   OH264144   0.272   7.715  15.643
 4559TIP3    H164145   0.239   7.627  15.669
 4559TIP3    H264146   0.366   7.701  15.667
 4560TIP3   OH264147   0.472   7.638  15.785
 4560TIP3    H164148   0.560   7.602  15.765
 4560TIP3    H264149   0.430   7.562  15.832
 4561TIP3   OH264150   1.308   7.540  15.789
 4561TIP3    H164151   1.319   7.524  15.886
 4561TIP3    H264152   1.401   7.564  15.767
 4562TIP3   OH264153   3.673   7.884  15.144
 4562TIP3    H164154   3.673   7.950  15.214
 4562TIP3    H264155   3.705   7.933  15.068
 4563TIP3   OH264156   2.428   7.986  14.818
 4563TIP3    H164157   2.439   8.066  14.766
 4563TIP3    H264158   2.390   7.927  14.750
 4564TIP3   OH264159   2.316   7.871  15.222
 4564TIP3    H164160   2.289   7.927  15.147
 4564TIP3    H264161   2.248   7.898  15.289
 4565TIP3   OH264162   2.280   8.045  15.031
 4565TIP3    H164163   2.329   8.126  15.053
 4565TIP3    H264164   2.327   8.017  14.949
 4566TIP3   OH264165   3.409   7.793  15.220
 4566TIP3    H164166   3.339   7.859  15.215
 4566TIP3    H264167   3.483   7.834  15.170
 4567TIP3   OH264168   2.714   7.607  14.963
 4567TIP3    H164169   2.701   7.512  14.961
 4567TIP3    H264170   2.628   7.640  14.994
 4568TIP3   OH264171   2.449   7.697  15.043
 4568TIP3    H164172   2.361   7.686  15.004
 4568TIP3    H264173   2.438   7.780  15.090
 4569TIP3   OH264174   2.911   7.663  15.381
 4569TIP3    H164175   2.952   7.622  15.459
 4569TIP3    H264176   2.814   7.650  15.394
 4570TIP3   OH264177   3.245   8.045  15.466
 4570TIP3    H164178   3.190   8.028  15.546
 4570TIP3    H264179   3.224   8.135  15.444
 4571TIP3   OH264180   2.893   7.918  14.125
 4571TIP3    H164181   2.835   7.916  14.204
 4571TIP3    H264182   2.847   7.843  14.079
 4572TIP3   OH264183   2.545   7.925  14.011
 4572TIP3    H164184   2.512   7.916  14.101
 4572TIP3    H264185   2.493   7.997  13.976
 4573TIP3   OH264186   1.890   7.914  14.733
 4573TIP3    H164187   1.959   7.927  14.800
 4573TIP3    H264188   1.939   7.896  14.652
 4574TIP3   OH264189   2.024   8.012  14.285
 4574TIP3    H164190   2.060   8.061  14.210
 4574TIP3    H264191   1.940   8.056  14.298
 4575TIP3   OH264192   2.713   7.956  14.754
 4575TIP3    H164193   2.620   7.959  14.781
 4575TIP3    H264194   2.761   7.947  14.837
 4576TIP3   OH264195   2.177   8.054  14.638
 4576TIP3    H164196   2.111   8.101  14.586
 4576TIP3    H264197   2.230   8.003  14.573
 4577TIP3   OH264198   2.546  -0.031  14.407
 4577TIP3    H164199   2.640  -0.019  14.428
 4577TIP3    H264200   2.532   0.037  14.339
 4578TIP3   OH264201   3.154   7.872  15.079
 4578TIP3    H164202   3.086   7.893  15.147
 4578TIP3    H264203   3.100   7.866  15.000
 4579TIP3   OH264204   2.339   7.851  14.583
 4579TIP3    H164205   2.315   7.757  14.587
 4579TIP3    H264206   2.420   7.845  14.531
 4580TIP3   OH264207   2.698   8.056  15.189
 4580TIP3    H164208   2.628   8.120  15.191
 4580TIP3    H264209   2.761   8.101  15.252
 4581TIP3   OH264210   3.151   7.923  14.176
 4581TIP3    H164211   3.061   7.946  14.140
 4581TIP3    H264212   3.224   7.986  14.185
 4582TIP3   OH264213   2.136   7.942  15.417
 4582TIP3    H164214   2.045   7.980  15.413
 4582TIP3    H264215   2.118   7.859  15.463
 4583TIP3   OH264216   3.006   7.919  15.306
 4583TIP3    H164217   3.080   7.929  15.368
 4583TIP3    H264218   2.971   7.832  15.328
 4584TIP3   OH264219   3.083   7.886  14.429
 4584TIP3    H164220   3.113   7.913  14.342
 4584TIP3    H264221   3.149   7.922  14.490
 4585TIP3   OH264222   2.814   8.061  14.501
 4585TIP3    H164223   2.891   8.114  14.519
 4585TIP3    H264224   2.779   8.041  14.592
 4586TIP3   OH264225   2.901   0.022  15.364
 4586TIP3    H164226   2.875   0.072  15.442
 4586TIP3    H264227   2.928  -0.060  15.407
 4587TIP3   OH264228   2.906   7.766  14.597
 4587TIP3    H164229   2.861   7.827  14.660
 4587TIP3    H264230   2.964   7.827  14.548
 4588TIP3   OH264231   2.516   8.050  15.581
 4588TIP3    H164232   2.537   7.980  15.516
 4588TIP3    H264233   2.528   8.131  15.529
 4589TIP3   OH264234   2.564   7.885  15.330
 4589TIP3    H164235   2.622   7.934  15.266
 4589TIP3    H264236   2.477   7.882  15.286
 4590TIP3   OH264237   2.649   7.634  15.372
 4590TIP3    H164238   2.630   7.731  15.363
 4590TIP3    H264239   2.576   7.594  15.324
 4591TIP3   OH264240   2.742   7.954  15.781
 4591TIP3    H164241   2.741   8.028  15.845
 4591TIP3    H264242   2.699   8.007  15.711
 4592TIP3   OH264243   3.055   7.957  15.629
 4592TIP3    H164244   2.963   7.978  15.650
 4592TIP3    H264245   3.083   7.916  15.712
 4593TIP3   OH264246   3.195   7.846  15.836
 4593TIP3    H164247   3.197   7.749  15.836
 4593TIP3    H264248   3.174   7.873  15.928
 4594TIP3   OH264249   2.183   7.966  15.744
 4594TIP3    H164250   2.213   7.896  15.680
 4594TIP3    H264251   2.180   7.920  15.827
 4595TIP3   OH264252   2.670   7.570  15.639
 4595TIP3    H164253   2.736   7.499  15.636
 4595TIP3    H264254   2.655   7.586  15.544
 4596TIP3   OH264255   2.696   7.717  15.859
 4596TIP3    H164256   2.685   7.679  15.768
 4596TIP3    H264257   2.655   7.806  15.844
 4597TIP3   OH264258   3.441   8.084  14.490
 4597TIP3    H164259   3.478   7.996  14.510
 4597TIP3    H264260   3.520   8.127  14.453
 4598TIP3   OH264261   3.521  -0.039  15.083
 4598TIP3    H164262   3.575   0.024  15.030
 4598TIP3    H264263   3.472   0.023  15.137
 4599TIP3   OH264264   1.936   8.065  15.660
 4599TIP3    H164265   2.030   8.048  15.678
 4599TIP3    H264266   1.886   7.992  15.697
 4600TIP3   OH264267   2.054   7.902  14.948
 4600TIP3    H164268   2.097   7.821  14.979
 4600TIP3    H264269   2.108   7.969  14.992
 4601TIP3   OH264270   2.928   7.785  14.888
 4601TIP3    H164271   2.862   7.722  14.924
 4601TIP3    H264272   2.986   7.731  14.836
 4602TIP3   OH264273   2.614   7.647  14.660
 4602TIP3    H164274   2.705   7.677  14.654
 4602TIP3    H264275   2.606   7.620  14.752
 4603TIP3   OH264276   3.306   7.653  14.386
 4603TIP3    H164277   3.235   7.713  14.371
 4603TIP3    H264278   3.271   7.565  14.404
 4604TIP3   OH264279   2.750   7.842  14.345
 4604TIP3    H164280   2.742   7.784  14.420
 4604TIP3    H264281   2.723   7.926  14.389
 4605TIP3   OH264282   5.553   7.885  15.141
 4605TIP3    H164283   5.562   7.952  15.212
 4605TIP3    H264284   5.591   7.937  15.069
 4606TIP3   OH264285   4.367   7.959  14.826
 4606TIP3    H164286   4.342   8.047  14.790
 4606TIP3    H264287   4.297   7.919  14.769
 4607TIP3   OH264288   5.595   8.031  15.362
 4607TIP3    H164289   5.531   8.098  15.345
 4607TIP3    H264290   5.599   8.021  15.458
 4608TIP3   OH264291   4.222   7.838  15.201
 4608TIP3    H164292   4.200   7.905  15.132
 4608TIP3    H264293   4.152   7.866  15.260
 4609TIP3   OH264294   5.269   7.926  14.855
 4609TIP3    H164295   5.246   7.848  14.905
 4609TIP3    H264296   5.330   7.974  14.911
 4610TIP3   OH264297   4.189   8.020  14.996
 4610TIP3    H164298   4.220   8.108  15.029
 4610TIP3    H264299   4.246   8.003  14.921
 4611TIP3   OH264300   5.300   7.802  15.222
 4611TIP3    H164301   5.224   7.859  15.209
 4611TIP3    H264302   5.372   7.839  15.167
 4612TIP3   OH264303   4.600   7.605  14.964
 4612TIP3    H164304   4.583   7.509  14.961
 4612TIP3    H264305   4.513   7.638  14.996
 4613TIP3   OH264306   4.340   7.690  15.036
 4613TIP3    H164307   4.249   7.681  15.002
 4613TIP3    H264308   4.327   7.773  15.086
 4614TIP3   OH264309   4.796   7.664  15.378
 4614TIP3    H164310   4.837   7.625  15.456
 4614TIP3    H264311   4.699   7.649  15.392
 4615TIP3   OH264312   5.126   8.044  15.467
 4615TIP3    H164313   5.073   8.030  15.548
 4615TIP3    H264314   5.106   8.135  15.446
 4616TIP3   OH264315   4.763   7.920  14.115
 4616TIP3    H164316   4.733   7.915  14.208
 4616TIP3    H264317   4.739   7.832  14.084
 4617TIP3   OH264318   3.747   7.907  14.730
 4617TIP3    H164319   3.816   7.921  14.797
 4617TIP3    H264320   3.802   7.891  14.653
 4618TIP3   OH264321   4.607   7.956  14.751
 4618TIP3    H164322   4.511   7.958  14.778
 4618TIP3    H264323   4.647   7.950  14.839
 4619TIP3   OH264324   4.083   8.124  14.489
 4619TIP3    H164325   4.011   8.147  14.553
 4619TIP3    H264326   4.121   8.058  14.554
 4620TIP3   OH264327   4.477  -0.103  14.388
 4620TIP3    H164328   4.545  -0.044  14.430
 4620TIP3    H264329   4.441  -0.032  14.335
 4621TIP3   OH264330   5.038   7.881  15.078
 4621TIP3    H164331   4.969   7.895  15.148
 4621TIP3    H264332   4.986   7.864  14.999
 4622TIP3   OH264333   4.225   7.841  14.575
 4622TIP3    H164334   4.199   7.749  14.578
 4622TIP3    H264335   4.307   7.839  14.523
 4623TIP3   OH264336   4.589   8.070  15.176
 4623TIP3    H164337   4.510   8.123  15.189
 4623TIP3    H264338   4.647   8.098  15.250
 4624TIP3   OH264339   5.031   7.975  14.179
 4624TIP3    H164340   4.938   7.987  14.155
 4624TIP3    H264341   5.065   8.063  14.197
 4625TIP3   OH264342   4.900   7.910  15.298
 4625TIP3    H164343   4.963   7.926  15.370
 4625TIP3    H264344   4.857   7.829  15.329
 4626TIP3   OH264345   4.968   7.887  14.423
 4626TIP3    H164346   4.997   7.927  14.339
 4626TIP3    H264347   5.031   7.923  14.486
 4627TIP3   OH264348   4.711   8.045  14.507
 4627TIP3    H164349   4.775   8.117  14.510
 4627TIP3    H264350   4.670   8.044  14.595
 4628TIP3   OH264351   4.814  -0.005  15.377
 4628TIP3    H164352   4.760   0.038  15.447
 4628TIP3    H264353   4.830  -0.085  15.427
 4629TIP3   OH264354   4.782   7.765  14.599
 4629TIP3    H164355   4.743   7.832  14.658
 4629TIP3    H264356   4.846   7.818  14.546
 4630TIP3   OH264357   4.362   7.827  14.347
 4630TIP3    H164358   4.344   7.921  14.323
 4630TIP3    H264359   4.447   7.831  14.300
 4631TIP3   OH264360   5.368   7.950  15.503
 4631TIP3    H164361   5.273   7.972  15.493
 4631TIP3    H264362   5.396   7.940  15.412
 4632TIP3   OH264363   4.085   7.662  14.951
 4632TIP3    H164364   4.064   7.665  14.854
 4632TIP3    H264365   4.042   7.578  14.972
 4633TIP3   OH264366   4.465   7.975  15.676
 4633TIP3    H164367   4.452   7.953  15.581
 4633TIP3    H264368   4.434   8.069  15.652
 4634TIP3   OH264369   4.460   7.868  15.313
 4634TIP3    H164370   4.509   7.935  15.259
 4634TIP3    H264371   4.367   7.877  15.284
 4635TIP3   OH264372   4.533   7.628  15.371
 4635TIP3    H164373   4.518   7.726  15.361
 4635TIP3    H264374   4.455   7.597  15.323
 4636TIP3   OH264375   4.678   8.092  15.770
 4636TIP3    H164376   4.637   8.041  15.846
 4636TIP3    H264377   4.600   8.069  15.717
 4637TIP3   OH264378   4.928   7.974  15.633
 4637TIP3    H164379   4.836   7.986  15.657
 4637TIP3    H264380   4.964   7.922  15.708
 4638TIP3   OH264381   5.090   7.848  15.835
 4638TIP3    H164382   5.088   7.752  15.836
 4638TIP3    H264383   5.064   7.873  15.927
 4639TIP3   OH264384   4.556   7.567  15.641
 4639TIP3    H164385   4.620   7.495  15.640
 4639TIP3    H264386   4.543   7.586  15.546
 4640TIP3   OH264387   4.592   7.717  15.847
 4640TIP3    H164388   4.572   7.676  15.761
 4640TIP3    H264389   4.542   7.803  15.837
 4641TIP3   OH264390   5.331   8.083  14.501
 4641TIP3    H164391   5.363   7.990  14.502
 4641TIP3    H264392   5.401   8.127  14.450
 4642TIP3   OH264393   5.425  -0.031  15.091
 4642TIP3    H164394   5.474   0.028  15.031
 4642TIP3    H264395   5.360   0.027  15.130
 4643TIP3   OH264396   3.819   8.067  15.659
 4643TIP3    H164397   3.911   8.055  15.683
 4643TIP3    H264398   3.774   7.991  15.695
 4644TIP3   OH264399   5.621   7.617  15.856
 4644TIP3    H164400   5.655   7.555  15.792
 4644TIP3    H264401   5.629   7.699  15.806
 4645TIP3   OH264402   5.390   7.817  14.493
 4645TIP3    H164403   5.407   7.772  14.578
 4645TIP3    H264404   5.328   7.758  14.450
 4646TIP3   OH264405   3.936   7.889  14.965
 4646TIP3    H164406   3.992   7.810  14.978
 4646TIP3    H264407   3.996   7.962  14.986
 4647TIP3   OH264408   4.815   7.781  14.895
 4647TIP3    H164409   4.744   7.720  14.924
 4647TIP3    H264410   4.864   7.728  14.834
 4648TIP3   OH264411   5.496   7.710  14.729
 4648TIP3    H164412   5.565   7.657  14.689
 4648TIP3    H264413   5.539   7.797  14.744
 4649TIP3   OH264414   4.051   7.646  14.677
 4649TIP3    H164415   3.973   7.622  14.627
 4649TIP3    H264416   4.099   7.563  14.678
 4650TIP3   OH264417   4.502   7.639  14.658
 4650TIP3    H164418   4.591   7.676  14.653
 4650TIP3    H264419   4.491   7.624  14.752
 4651TIP3   OH264420   4.129   7.747  14.169
 4651TIP3    H164421   4.157   7.746  14.075
 4651TIP3    H264422   4.178   7.829  14.187
 4652TIP3   OH264423   4.633   7.843  14.341
 4652TIP3    H164424   4.638   7.783  14.416
 4652TIP3    H264425   4.613   7.926  14.392
 4653TIP3   OH264426   4.242   7.637  15.778
 4653TIP3    H164427   4.332   7.606  15.762
 4653TIP3    H264428   4.211   7.557  15.823
 4654TIP3   OH264429   7.360   7.894  15.103
 4654TIP3    H164430   7.391   7.939  15.187
 4654TIP3    H264431   7.437   7.926  15.055
 4655TIP3   OH264432   6.976   7.991  14.652
 4655TIP3    H164433   7.039   7.965  14.722
 4655TIP3    H264434   7.035   8.047  14.599
 4656TIP3   OH264435   7.407   8.021  15.401
 4656TIP3    H164436   7.426   8.102  15.351
 4656TIP3    H264437   7.471   8.031  15.476
 4657TIP3   OH264438   7.155   7.920  14.848
 4657TIP3    H164439   7.125   7.851  14.909
 4657TIP3    H264440   7.212   7.974  14.906
 4658TIP3   OH264441   7.173   7.794  15.234
 4658TIP3    H164442   7.105   7.860  15.213
 4658TIP3    H264443   7.245   7.828  15.175
 4659TIP3   OH264444   6.488   7.599  14.974
 4659TIP3    H164445   6.469   7.505  14.957
 4659TIP3    H264446   6.401   7.638  14.989
 4660TIP3   OH264447   7.309   7.599  14.264
 4660TIP3    H164448   7.218   7.610  14.298
 4660TIP3    H264449   7.325   7.689  14.234
 4661TIP3   OH264450   6.677   7.663  15.378
 4661TIP3    H164451   6.724   7.628  15.456
 4661TIP3    H264452   6.585   7.649  15.401
 4662TIP3   OH264453   7.001   8.045  15.464
 4662TIP3    H164454   6.962   8.032  15.551
 4662TIP3    H264455   6.993   8.138  15.446
 4663TIP3   OH264456   5.659   7.933  14.734
 4663TIP3    H164457   5.721   7.922  14.806
 4663TIP3    H264458   5.701   7.896  14.655
 4664TIP3   OH264459   6.922   7.875  15.079
 4664TIP3    H164460   6.854   7.895  15.146
 4664TIP3    H264461   6.869   7.862  14.999
 4665TIP3   OH264462   6.920   7.984  14.160
 4665TIP3    H164463   6.824   7.987  14.166
 4665TIP3    H264464   6.950   8.061  14.209
 4666TIP3   OH264465   6.776   7.924  15.310
 4666TIP3    H164466   6.853   7.928  15.370
 4666TIP3    H264467   6.743   7.834  15.327
 4667TIP3   OH264468   6.860   7.880  14.419
 4667TIP3    H164469   6.885   7.926  14.338
 4667TIP3    H264470   6.911   7.926  14.488
 4668TIP3   OH264471   6.671   7.764  14.595
 4668TIP3    H164472   6.630   7.828  14.655
 4668TIP3    H264473   6.734   7.819  14.544
 4669TIP3   OH264474   7.220   7.914  15.514
 4669TIP3    H164475   7.146   7.974  15.496
 4669TIP3    H264476   7.281   7.942  15.439
 4670TIP3   OH264477   6.983   7.846  15.837
 4670TIP3    H164478   6.967   7.749  15.831
 4670TIP3    H264479   6.947   7.871  15.924
 4671TIP3   OH264480   6.438   7.560  15.639
 4671TIP3    H164481   6.514   7.502  15.639
 4671TIP3    H264482   6.431   7.593  15.550
 4672TIP3   OH264483   7.244   7.935  13.986
 4672TIP3    H164484   7.305   7.903  14.056
 4672TIP3    H264485   7.162   7.892  14.012
 4673TIP3   OH264486   7.217   8.083  14.506
 4673TIP3    H164487   7.246   7.990  14.501
 4673TIP3    H264488   7.287   8.126  14.453
 4674TIP3   OH264489   7.280  -0.015  15.087
 4674TIP3    H164490   7.346   0.036  15.034
 4674TIP3    H264491   7.237   0.044  15.146
 4675TIP3   OH264492   7.508   7.628  15.842
 4675TIP3    H164493   7.541   7.558  15.784
 4675TIP3    H264494   7.520   7.712  15.793
 4676TIP3   OH264495   7.276   7.823  14.497
 4676TIP3    H164496   7.296   7.772  14.576
 4676TIP3    H264497   7.215   7.761  14.450
 4677TIP3   OH264498   7.460   7.833  15.677
 4677TIP3    H164499   7.367   7.860  15.680
 4677TIP3    H264500   7.460   7.774  15.601
 4678TIP3   OH264501   7.360   7.838  14.214
 4678TIP3    H164502   7.410   7.772  14.158
 4678TIP3    H264503   7.438   7.898  14.195
 4679TIP3   OH264504   5.685   7.697  15.295
 4679TIP3    H164505   5.617   7.675  15.358
 4679TIP3    H264506   5.642   7.761  15.235
 4680TIP3   OH264507   7.367   7.641  15.465
 4680TIP3    H164508   7.280   7.673  15.431
 4680TIP3    H264509   7.371   7.560  15.412
 4681TIP3   OH264510   6.704   7.784  14.900
 4681TIP3    H164511   6.632   7.722  14.916
 4681TIP3    H264512   6.756   7.737  14.835
 4682TIP3   OH264513   7.217   7.603  14.908
 4682TIP3    H164514   7.275   7.656  14.853
 4682TIP3    H264515   7.128   7.633  14.883
 4683TIP3   OH264516   6.955   7.642  14.818
 4683TIP3    H164517   6.950   7.655  14.723
 4683TIP3    H264518   6.915   7.554  14.832
 4684TIP3   OH264519   7.082   7.652  14.393
 4684TIP3    H164520   7.010   7.711  14.370
 4684TIP3    H264521   7.039   7.565  14.405
 4685TIP3   OH264522   5.925   7.706  15.629
 4685TIP3    H164523   5.897   7.624  15.670
 4685TIP3    H264524   6.018   7.704  15.661
 4686TIP3   OH264525   6.125   7.630  15.778
 4686TIP3    H164526   6.218   7.605  15.768
 4686TIP3    H264527   6.090   7.558  15.833
 4687TIP3   OH264528   6.970   7.579  15.808
 4687TIP3    H164529   6.976   7.518  15.882
 4687TIP3    H264530   7.055   7.566  15.762
 4688TIP3   OH264531   8.085   8.084  14.813
 4688TIP3    H164532   8.093   8.112  14.724
 4688TIP3    H264533   8.035   7.998  14.800
 4689TIP3   OH264534   8.066   7.903  15.248
 4689TIP3    H164535   8.022   7.877  15.162
 4689TIP3    H264536   7.978   7.887  15.292
 4690TIP3   OH264537   7.929   8.153  14.984
 4690TIP3    H164538   7.996   8.155  15.057
 4690TIP3    H264539   7.970   8.069  14.955
 4691TIP3   OH264540   8.043   7.635  15.083
 4691TIP3    H164541   7.994   7.662  15.003
 4691TIP3    H264542   8.080   7.725  15.100
 4692TIP3   OH264543   7.506   8.081  14.672
 4692TIP3    H164544   7.542   8.028  14.747
 4692TIP3    H264545   7.526   8.003  14.614
 4693TIP3   OH264546   7.676   8.022  14.310
 4693TIP3    H164547   7.710   8.062  14.229
 4693TIP3    H264548   7.589   8.065  14.308
 4694TIP3   OH264549   7.842   8.106  14.565
 4694TIP3    H164550   7.749   8.110  14.592
 4694TIP3    H264551   7.866   8.012  14.579
 4695TIP3   OH264552   8.027   7.677  14.600
 4695TIP3    H164553   7.938   7.715  14.574
 4695TIP3    H264554   8.071   7.763  14.582
 4696TIP3   OH264555   7.754   7.995  15.478
 4696TIP3    H164556   7.681   7.981  15.420
 4696TIP3    H264557   7.773   7.898  15.467
 4697TIP3   OH264558   0.122   7.849  14.317
 4697TIP3    H164559   0.045   7.914  14.320
 4697TIP3    H264560   0.109   7.831  14.224
 4698TIP3   OH264561   7.836   7.628  14.952
 4698TIP3    H164562   7.814   7.646  14.859
 4698TIP3    H264563   7.792   7.545  14.977
 4699TIP3   OH264564   7.711   7.944  15.715
 4699TIP3    H164565   7.787   7.922  15.661
 4699TIP3    H264566   7.757   7.911  15.793
 4700TIP3   OH264567   7.546   8.093  15.640
 4700TIP3    H164568   7.642   8.079  15.663
 4700TIP3    H264569   7.533   8.006  15.687
 4701TIP3   OH264570   7.731   7.908  14.917
 4701TIP3    H164571   7.760   7.824  14.965
 4701TIP3    H264572   7.762   7.975  14.980
 4702TIP3   OH264573   7.564   7.832  14.451
 4702TIP3    H164574   7.471   7.848  14.438
 4702TIP3    H264575   7.618   7.879  14.385
 4703TIP3   OH264576   7.462   7.654  15.231
 4703TIP3    H164577   7.465   7.660  15.329
 4703TIP3    H264578   7.504   7.739  15.218
 4704TIP3   OH264579   7.810   7.572  14.596
 4704TIP3    H164580   7.730   7.608  14.640
 4704TIP3    H264581   7.865   7.547  14.675
 4705TIP3   OH264582   7.721   7.690  14.335
 4705TIP3    H164583   7.751   7.696  14.244
 4705TIP3    H264584   7.626   7.679  14.326
 4706TIP3   OH264585   7.888   7.775  14.132
 4706TIP3    H164586   7.937   7.761  14.050
 4706TIP3    H264587   7.947   7.842  14.166
 4707TIP3   OH264588   7.726   7.698  15.729
 4707TIP3    H164589   7.735   7.629  15.671
 4707TIP3    H264590   7.827   7.717  15.724
 4708TIP3   OH264591   8.032   7.610  15.847
 4708TIP3    H164592   8.093   7.604  15.773
 4708TIP3    H264593   7.967   7.539  15.837
 4709TIP3   OH264594   1.061   0.793  16.000
 4709TIP3    H164595   1.131   0.801  16.069
 4709TIP3    H264596   1.094   0.723  15.945
 4710TIP3   OH264597   1.285   0.881  16.164
 4710TIP3    H164598   1.343   0.895  16.242
 4710TIP3    H264599   1.330   0.932  16.093
 4711TIP3   OH264600   1.432   0.986  15.937
 4711TIP3    H164601   1.432   0.966  15.840
 4711TIP3    H264602   1.520   1.025  15.948
 4712TIP3   OH264603   0.988   0.376  15.998
 4712TIP3    H164604   0.962   0.376  16.090
 4712TIP3    H264605   0.959   0.289  15.963
 4713TIP3   OH264606   0.676   0.414  15.904
 4713TIP3    H164607   0.634   0.375  15.984
 4713TIP3    H264608   0.608   0.460  15.853
 4714TIP3   OH264609   0.153   0.478  16.164
 4714TIP3    H164610   0.180   0.534  16.091
 4714TIP3    H264611   0.070   0.523  16.188
 4715TIP3   OH264612   0.542   0.683  16.046
 4715TIP3    H164613   0.491   0.670  15.967
 4715TIP3    H264614   0.624   0.719  16.006
 4716TIP3   OH264615   1.088   1.296  16.144
 4716TIP3    H164616   1.051   1.380  16.177
 4716TIP3    H264617   1.015   1.236  16.162
 4717TIP3   OH264618   0.807   1.431  15.865
 4717TIP3    H164619   0.822   1.351  15.814
 4717TIP3    H264620   0.772   1.394  15.950
 4718TIP3   OH264621   0.700   1.383  16.112
 4718TIP3    H164622   0.709   1.336  16.196
 4718TIP3    H264623   0.692   1.474  16.145
 4719TIP3   OH264624   0.970   1.549  16.166
 4719TIP3    H164625   0.891   1.601  16.195
 4719TIP3    H264626   1.018   1.613  16.115
 4720TIP3   OH264627   0.767   1.687  16.237
 4720TIP3    H164628   0.729   1.723  16.152
 4720TIP3    H264629   0.679   1.684  16.278
 4721TIP3   OH264630   0.570   0.332  16.139
 4721TIP3    H164631   0.566   0.416  16.188
 4721TIP3    H264632   0.657   0.303  16.172
 4722TIP3   OH264633   0.399   1.368  16.058
 4722TIP3    H164634   0.455   1.446  16.080
 4722TIP3    H264635   0.450   1.335  15.984
 4723TIP3   OH264636   0.231   0.639  15.966
 4723TIP3    H164637   0.232   0.734  15.984
 4723TIP3    H264638   0.141   0.617  15.937
 4724TIP3   OH264639   1.010   1.619  15.887
 4724TIP3    H164640   0.939   1.554  15.909
 4724TIP3    H264641   1.079   1.559  15.861
 4725TIP3   OH264642   0.669   0.987  16.119
 4725TIP3    H164643   0.631   0.936  16.191
 4725TIP3    H264644   0.704   0.921  16.057
 4726TIP3   OH264645   0.782   0.803  15.948
 4726TIP3    H164646   0.767   0.802  15.852
 4726TIP3    H264647   0.878   0.819  15.954
 4727TIP3   OH264648   1.717   1.045  15.893
 4727TIP3    H164649   1.695   1.007  15.807
 4727TIP3    H264650   1.723   1.141  15.870
 4728TIP3   OH264651   0.776   1.880  16.051
 4728TIP3    H164652   0.869   1.895  16.060
 4728TIP3    H264653   0.747   1.940  15.982
 4729TIP3   OH264654   1.835   0.928  16.107
 4729TIP3    H164655   1.778   0.965  16.038
 4729TIP3    H264656   1.827   0.992  16.179
 4730TIP3   OH264657   1.676   0.651  15.964
 4730TIP3    H164658   1.678   0.719  15.897
 4730TIP3    H264659   1.656   0.569  15.918
 4731TIP3   OH264660   0.164   0.109  16.142
 4731TIP3    H164661   0.207   0.167  16.080
 4731TIP3    H264662   0.094   0.155  16.189
 4732TIP3   OH264663   0.343   0.265  15.990
 4732TIP3    H164664   0.395   0.204  15.933
 4732TIP3    H264665   0.407   0.289  16.061
 4733TIP3   OH264666   0.325   1.783  15.925
 4733TIP3    H164667   0.306   1.796  16.018
 4733TIP3    H264668   0.402   1.725  15.946
 4734TIP3   OH264669   3.658   1.492  15.983
 4734TIP3    H164670   3.667   1.585  16.000
 4734TIP3    H264671   3.750   1.459  15.983
 4735TIP3   OH264672   3.201   1.767  16.057
 4735TIP3    H164673   3.244   1.696  16.005
 4735TIP3    H264674   3.205   1.736  16.147
 4736TIP3   OH264675   2.087   0.919  16.010
 4736TIP3    H164676   2.145   0.980  16.059
 4736TIP3    H264677   1.998   0.947  16.043
 4737TIP3   OH264678   2.222   1.104  16.162
 4737TIP3    H164679   2.157   1.139  16.223
 4737TIP3    H264680   2.275   1.180  16.137
 4738TIP3   OH264681   2.456   0.326  16.154
 4738TIP3    H164682   2.450   0.419  16.176
 4738TIP3    H264683   2.548   0.305  16.170
 4739TIP3   OH264684   2.122   0.642  15.961
 4739TIP3    H164685   2.115   0.734  15.990
 4739TIP3    H264686   2.031   0.618  15.941
 4740TIP3   OH264687   3.366   1.605  15.916
 4740TIP3    H164688   3.386   1.516  15.946
 4740TIP3    H264689   3.428   1.619  15.842
 4741TIP3   OH264690   2.442   1.189  15.892
 4741TIP3    H164691   2.452   1.109  15.945
 4741TIP3    H264692   2.508   1.175  15.824
 4742TIP3   OH264693   2.556   0.988  16.113
 4742TIP3    H164694   2.518   0.945  16.192
 4742TIP3    H264695   2.591   0.916  16.061
 4743TIP3   OH264696   3.608   1.046  15.894
 4743TIP3    H164697   3.580   1.006  15.810
 4743TIP3    H264698   3.607   1.141  15.869
 4744TIP3   OH264699   2.014   1.334  16.006
 4744TIP3    H164700   2.108   1.350  16.016
 4744TIP3    H264701   2.013   1.274  15.927
 4745TIP3   OH264702   3.717   0.927  16.114
 4745TIP3    H164703   3.668   0.963  16.036
 4745TIP3    H264704   3.712   0.998  16.178
 4746TIP3   OH264705   2.221   1.783  15.933
 4746TIP3    H164706   2.188   1.795  16.024
 4746TIP3    H264707   2.292   1.716  15.947
 4747TIP3   OH264708   5.428   0.060  16.155
 4747TIP3    H164709   5.336   0.071  16.179
 4747TIP3    H264710   5.453   0.142  16.110
 4748TIP3   OH264711   5.545   1.498  15.980
 4748TIP3    H164712   5.557   1.591  16.006
 4748TIP3    H264713   5.636   1.464  15.984
 4749TIP3   OH264714   5.088   1.774  16.054
 4749TIP3    H164715   5.126   1.695  16.007
 4749TIP3    H264716   5.093   1.740  16.145
 4750TIP3   OH264717   4.315   0.691  16.048
 4750TIP3    H164718   4.253   0.658  15.981
 4750TIP3    H264719   4.394   0.718  15.999
 4751TIP3   OH264720   3.971   0.921  16.012
 4751TIP3    H164721   4.032   0.982  16.060
 4751TIP3    H264722   3.883   0.950  16.042
 4752TIP3   OH264723   5.613   1.763  16.040
 4752TIP3    H164724   5.686   1.825  16.033
 4752TIP3    H264725   5.542   1.822  16.075
 4753TIP3   OH264726   4.581   1.429  15.871
 4753TIP3    H164727   4.593   1.352  15.814
 4753TIP3    H264728   4.539   1.389  15.950
 4754TIP3   OH264729   4.460   1.386  16.116
 4754TIP3    H164730   4.484   1.334  16.193
 4754TIP3    H264731   4.471   1.476  16.150
 4755TIP3   OH264732   4.107   1.113  16.159
 4755TIP3    H164733   4.042   1.146  16.221
 4755TIP3    H264734   4.164   1.187  16.137
 4756TIP3   OH264735   4.167   1.371  16.053
 4756TIP3    H164736   4.231   1.437  16.081
 4756TIP3    H264737   4.218   1.328  15.983
 4757TIP3   OH264738   4.016   0.654  15.962
 4757TIP3    H164739   4.002   0.746  15.990
 4757TIP3    H264740   3.925   0.625  15.944
 4758TIP3   OH264741   4.777   1.620  15.878
 4758TIP3    H164742   4.709   1.555  15.908
 4758TIP3    H264743   4.852   1.563  15.862
 4759TIP3   OH264744   5.236   1.598  15.897
 4759TIP3    H164745   5.265   1.523  15.952
 4759TIP3    H264746   5.315   1.614  15.844
 4760TIP3   OH264747   4.329   1.186  15.892
 4760TIP3    H164748   4.339   1.106  15.945
 4760TIP3    H264749   4.401   1.175  15.825
 4761TIP3   OH264750   4.447   0.986  16.119
 4761TIP3    H164751   4.398   0.939  16.188
 4761TIP3    H264752   4.469   0.916  16.055
 4762TIP3   OH264753   4.553   0.807  15.946
 4762TIP3    H164754   4.538   0.799  15.850
 4762TIP3    H264755   4.649   0.816  15.949
 4763TIP3   OH264756   3.897   1.342  15.998
 4763TIP3    H164757   3.991   1.347  16.021
 4763TIP3    H264758   3.898   1.272  15.930
 4764TIP3   OH264759   5.363   0.391  15.878
 4764TIP3    H164760   5.429   0.353  15.940
 4764TIP3    H264761   5.282   0.345  15.899
 4765TIP3   OH264762   5.573   0.283  16.033
 4765TIP3    H164763   5.612   0.208  15.983
 4765TIP3    H264764   5.646   0.346  16.042
 4766TIP3   OH264765   4.804   1.807  16.075
 4766TIP3    H164766   4.896   1.833  16.056
 4766TIP3    H264767   4.785   1.753  15.995
 4767TIP3   OH264768   6.943   0.883  16.166
 4767TIP3    H164769   6.998   0.902  16.242
 4767TIP3    H264770   6.983   0.931  16.093
 4768TIP3   OH264771   7.426   1.497  15.978
 4768TIP3    H164772   7.444   1.589  16.004
 4768TIP3    H264773   7.516   1.459  15.983
 4769TIP3   OH264774   6.971   1.771  16.053
 4769TIP3    H164775   7.012   1.698  16.003
 4769TIP3    H264776   6.979   1.742  16.144
 4770TIP3   OH264777   6.659   0.372  16.001
 4770TIP3    H164778   6.621   0.379  16.088
 4770TIP3    H264779   6.617   0.291  15.966
 4771TIP3   OH264780   6.346   0.430  15.915
 4771TIP3    H164781   6.296   0.379  15.981
 4771TIP3    H264782   6.276   0.462  15.856
 4772TIP3   OH264783   5.774   0.462  16.147
 4772TIP3    H164784   5.836   0.521  16.100
 4772TIP3    H264785   5.720   0.523  16.197
 4773TIP3   OH264786   6.200   0.698  16.046
 4773TIP3    H164787   6.143   0.661  15.978
 4773TIP3    H264788   6.282   0.712  16.000
 4774TIP3   OH264789   6.921   0.431  16.056
 4774TIP3    H164790   6.825   0.446  16.046
 4774TIP3    H264791   6.948   0.516  16.096
 4775TIP3   OH264792   6.991   0.624  16.225
 4775TIP3    H164793   7.081   0.607  16.253
 4775TIP3    H264794   6.996   0.703  16.169
 4776TIP3   OH264795   7.480   0.641  16.202
 4776TIP3    H164796   7.425   0.605  16.129
 4776TIP3    H264797   7.488   0.732  16.167
 4777TIP3   OH264798   5.855   0.923  16.011
 4777TIP3    H164799   5.918   0.978  16.062
 4777TIP3    H264800   5.770   0.953  16.044
 4778TIP3   OH264801   7.499   1.764  16.039
 4778TIP3    H164802   7.571   1.826  16.032
 4778TIP3    H264803   7.430   1.822  16.072
 4779TIP3   OH264804   6.438   1.437  15.869
 4779TIP3    H164805   6.472   1.366  15.813
 4779TIP3    H264806   6.424   1.395  15.955
 4780TIP3   OH264807   5.984   1.114  16.153
 4780TIP3    H164808   5.928   1.139  16.227
 4780TIP3    H264809   6.049   1.183  16.141
 4781TIP3   OH264810   6.368   1.663  16.192
 4781TIP3    H164811   6.372   1.739  16.132
 4781TIP3    H264812   6.342   1.696  16.277
 4782TIP3   OH264813   6.221   0.372  16.175
 4782TIP3    H164814   6.238   0.463  16.197
 4782TIP3    H264815   6.309   0.327  16.173
 4783TIP3   OH264816   5.889   0.641  15.965
 4783TIP3    H164817   5.887   0.736  15.988
 4783TIP3    H264818   5.800   0.617  15.939
 4784TIP3   OH264819   6.667   1.618  15.881
 4784TIP3    H164820   6.594   1.560  15.910
 4784TIP3    H264821   6.738   1.556  15.862
 4785TIP3   OH264822   7.124   1.600  15.902
 4785TIP3    H164823   7.158   1.522  15.950
 4785TIP3    H264824   7.201   1.618  15.845
 4786TIP3   OH264825   6.213   1.188  15.890
 4786TIP3    H164826   6.220   1.106  15.941
 4786TIP3    H264827   6.280   1.176  15.821
 4787TIP3   OH264828   7.373   1.045  15.896
 4787TIP3    H164829   7.349   1.008  15.809
 4787TIP3    H264830   7.384   1.139  15.873
 4788TIP3   OH264831   6.428   1.891  16.060
 4788TIP3    H164832   6.524   1.891  16.056
 4788TIP3    H264833   6.407   1.942  15.980
 4789TIP3   OH264834   5.784   1.341  16.000
 4789TIP3    H164835   5.877   1.349  16.018
 4789TIP3    H264836   5.783   1.277  15.927
 4790TIP3   OH264837   7.477   0.921  16.116
 4790TIP3    H164838   7.443   0.966  16.035
 4790TIP3    H264839   7.492   0.998  16.174
 4791TIP3   OH264840   7.327   0.654  15.965
 4791TIP3    H164841   7.331   0.718  15.893
 4791TIP3    H264842   7.306   0.570  15.919
 4792TIP3   OH264843   7.248   0.399  15.882
 4792TIP3    H164844   7.309   0.351  15.939
 4792TIP3    H264845   7.165   0.350  15.895
 4793TIP3   OH264846   5.820   0.096  16.146
 4793TIP3    H164847   5.856   0.157  16.082
 4793TIP3    H264848   5.752   0.147  16.189
 4794TIP3   OH264849   5.969   0.309  16.011
 4794TIP3    H164850   6.012   0.249  15.947
 4794TIP3    H264851   6.038   0.327  16.078
 4795TIP3   OH264852   8.105   0.661  16.035
 4795TIP3    H164853   8.032   0.655  15.969
 4795TIP3    H264854   8.163   0.723  15.991
 4796TIP3   OH264855   7.697   1.044  16.010
 4796TIP3    H164856   7.785   1.012  16.045
 4796TIP3    H264857   7.648   0.964  16.034
 4797TIP3   OH264858   7.855   1.129  16.184
 4797TIP3    H164859   7.794   1.178  16.236
 4797TIP3    H264860   7.913   1.193  16.137
 4798TIP3   OH264861  -0.038   0.310  16.153
 4798TIP3    H164862  -0.048   0.402  16.178
 4798TIP3    H264863   0.057   0.308  16.166
 4799TIP3   OH264864   7.892   1.292  15.994
 4799TIP3    H164865   7.923   1.363  16.058
 4799TIP3    H264866   7.982   1.301  15.959
 4800TIP3   OH264867   7.766   0.587  15.916
 4800TIP3    H164868   7.786   0.671  15.961
 4800TIP3    H264869   7.674   0.597  15.938
 4801TIP3   OH264870   7.982   1.074  15.906
 4801TIP3    H164871   8.045   1.080  15.983
 4801TIP3    H264872   8.056   1.116  15.859
 4802TIP3   OH264873   7.654   1.352  15.975
 4802TIP3    H164874   7.747   1.342  16.006
 4802TIP3    H264875   7.662   1.267  15.923
 4803TIP3   OH264876   7.868   1.784  15.925
 4803TIP3    H164877   7.844   1.810  16.015
 4803TIP3    H264878   7.940   1.724  15.946
 4804TIP3   OH264879   1.059   2.680  16.010
 4804TIP3    H164880   1.137   2.679  16.068
 4804TIP3    H264881   1.092   2.617  15.944
 4805TIP3   OH264882   1.282   2.771  16.166
 4805TIP3    H164883   1.345   2.788  16.237
 4805TIP3    H264884   1.327   2.817  16.092
 4806TIP3   OH264885   1.430   2.867  15.940
 4806TIP3    H164886   1.431   2.853  15.842
 4806TIP3    H264887   1.514   2.913  15.949
 4807TIP3   OH264888   1.329   2.510  16.224
 4807TIP3    H164889   1.420   2.490  16.251
 4807TIP3    H264890   1.339   2.586  16.165
 4808TIP3   OH264891   1.081   3.180  16.139
 4808TIP3    H164892   1.064   3.265  16.181
 4808TIP3    H264893   1.010   3.124  16.167
 4809TIP3   OH264894   1.841   3.651  16.040
 4809TIP3    H164895   1.919   3.709  16.036
 4809TIP3    H264896   1.775   3.711  16.075
 4810TIP3   OH264897   0.807   3.318  15.871
 4810TIP3    H164898   0.818   3.242  15.811
 4810TIP3    H264899   0.768   3.274  15.948
 4811TIP3   OH264900   0.702   3.268  16.115
 4811TIP3    H164901   0.710   3.220  16.197
 4811TIP3    H264902   0.696   3.359  16.146
 4812TIP3   OH264903   1.009   3.501  15.882
 4812TIP3    H164904   0.942   3.434  15.905
 4812TIP3    H264905   1.084   3.445  15.856
 4813TIP3   OH264906   1.098   3.182  15.862
 4813TIP3    H164907   1.076   3.193  15.956
 4813TIP3    H264908   1.077   3.087  15.848
 4814TIP3   OH264909   0.787   2.701  15.950
 4814TIP3    H164910   0.763   2.688  15.856
 4814TIP3    H264911   0.883   2.703  15.949
 4815TIP3   OH264912   0.127   3.221  16.003
 4815TIP3    H164913   0.219   3.236  16.024
 4815TIP3    H264914   0.130   3.159  15.930
 4816TIP3   OH264915   1.594   2.284  15.882
 4816TIP3    H164916   1.654   2.236  15.938
 4816TIP3    H264917   1.510   2.237  15.893
 4817TIP3   OH264918   0.339   3.627  15.931
 4817TIP3    H164919   0.317   3.692  16.003
 4817TIP3    H264920   0.427   3.596  15.953
 4818TIP3   OH264921   2.948   2.676  16.003
 4818TIP3    H164922   3.014   2.680  16.074
 4818TIP3    H264923   2.987   2.611  15.943
 4819TIP3   OH264924   3.174   2.766  16.162
 4819TIP3    H164925   3.227   2.783  16.241
 4819TIP3    H264926   3.213   2.817  16.091
 4820TIP3   OH264927   3.221   2.505  16.223
 4820TIP3    H164928   3.311   2.493  16.254
 4820TIP3    H264929   3.222   2.585  16.168
 4821TIP3   OH264930   2.691   3.313  15.873
 4821TIP3    H164931   2.708   3.241  15.811
 4821TIP3    H264932   2.658   3.271  15.952
 4822TIP3   OH264933   2.290   3.253  16.057
 4822TIP3    H164934   2.342   3.330  16.082
 4822TIP3    H264935   2.332   3.220  15.977
 4823TIP3   OH264936   2.685   2.689  15.944
 4823TIP3    H164937   2.659   2.682  15.852
 4823TIP3    H264938   2.780   2.707  15.951
 4824TIP3   OH264939   3.608   2.928  15.893
 4824TIP3    H164940   3.581   2.892  15.807
 4824TIP3    H264941   3.610   3.024  15.869
 4825TIP3   OH264942   2.012   3.228  15.997
 4825TIP3    H164943   2.105   3.238  16.022
 4825TIP3    H264944   2.014   3.161  15.929
 4826TIP3   OH264945   3.719   2.814  16.113
 4826TIP3    H164946   3.668   2.848  16.037
 4826TIP3    H264947   3.715   2.884  16.179
 4827TIP3   OH264948   3.546   2.541  15.967
 4827TIP3    H164949   3.568   2.601  15.895
 4827TIP3    H264950   3.540   2.456  15.921
 4828TIP3   OH264951   3.479   2.278  15.876
 4828TIP3    H164952   3.539   2.240  15.942
 4828TIP3    H264953   3.396   2.236  15.901
 4829TIP3   OH264954   2.221   3.664  15.933
 4829TIP3    H164955   2.185   3.684  16.021
 4829TIP3    H264956   2.290   3.599  15.951
 4830TIP3   OH264957   4.829   2.678  16.004
 4830TIP3    H164958   4.902   2.684  16.068
 4830TIP3    H264959   4.864   2.611  15.943
 4831TIP3   OH264960   5.059   2.766  16.162
 4831TIP3    H164961   5.114   2.790  16.237
 4831TIP3    H264962   5.100   2.818  16.090
 4832TIP3   OH264963   5.429   1.944  16.152
 4832TIP3    H164964   5.336   1.952  16.176
 4832TIP3    H264965   5.449   2.029  16.110
 4833TIP3   OH264966   5.552   3.377  15.977
 4833TIP3    H164967   5.556   3.471  15.999
 4833TIP3    H264968   5.644   3.348  15.984
 4834TIP3   OH264969   5.207   2.866  15.938
 4834TIP3    H164970   5.202   2.853  15.841
 4834TIP3    H264971   5.289   2.917  15.948
 4835TIP3   OH264972   4.762   2.262  15.993
 4835TIP3    H164973   4.736   2.264  16.086
 4835TIP3    H264974   4.738   2.173  15.966
 4836TIP3   OH264975   5.033   2.317  16.054
 4836TIP3    H164976   4.937   2.329  16.046
 4836TIP3    H264977   5.063   2.400  16.096
 4837TIP3   OH264978   5.105   2.512  16.224
 4837TIP3    H164979   5.195   2.492  16.251
 4837TIP3    H264980   5.112   2.590  16.166
 4838TIP3   OH264981   4.858   3.186  16.147
 4838TIP3    H164982   4.823   3.270  16.181
 4838TIP3    H264983   4.788   3.122  16.165
 4839TIP3   OH264984   5.593   2.525  16.198
 4839TIP3    H164985   5.534   2.492  16.127
 4839TIP3    H264986   5.601   2.618  16.168
 4840TIP3   OH264987   3.977   2.808  16.012
 4840TIP3    H164988   4.032   2.873  16.060
 4840TIP3    H264989   3.886   2.831  16.040
 4841TIP3   OH264990   4.571   3.319  15.867
 4841TIP3    H164991   4.595   3.241  15.814
 4841TIP3    H264992   4.541   3.276  15.950
 4842TIP3   OH264993   4.461   3.268  16.116
 4842TIP3    H164994   4.484   3.221  16.197
 4842TIP3    H264995   4.471   3.361  16.145
 4843TIP3   OH264996   4.109   2.996  16.161
 4843TIP3    H164997   4.046   3.029  16.224
 4843TIP3    H264998   4.163   3.074  16.137
 4844TIP3   OH264999   4.736   3.439  16.188
 4844TIP3    H165000   4.653   3.488  16.191
 4844TIP3    H265001   4.790   3.488  16.125
 4845TIP3   OH265002   4.483   3.547  16.190
 4845TIP3    H165003   4.482   3.626  16.135
 4845TIP3    H265004   4.451   3.578  16.275
 4846TIP3   OH265005   4.170   3.256  16.057
 4846TIP3    H165006   4.233   3.325  16.081
 4846TIP3    H265007   4.221   3.212  15.987
 4847TIP3   OH265008   4.325   3.069  15.886
 4847TIP3    H165009   4.342   2.994  15.944
 4847TIP3    H265010   4.400   3.061  15.823
 4848TIP3   OH265011   4.860   3.178  15.862
 4848TIP3    H165012   4.845   3.191  15.956
 4848TIP3    H265013   4.847   3.082  15.850
 4849TIP3   OH265014   5.487   2.932  15.893
 4849TIP3    H165015   5.465   2.890  15.809
 4849TIP3    H265016   5.499   3.026  15.871
 4850TIP3   OH265017   3.893   3.222  16.001
 4850TIP3    H165018   3.988   3.237  16.020
 4850TIP3    H265019   3.898   3.157  15.928
 4851TIP3   OH265020   5.606   2.807  16.112
 4851TIP3    H165021   5.556   2.848  16.038
 4851TIP3    H265022   5.605   2.880  16.176
 4852TIP3   OH265023   5.442   2.536  15.966
 4852TIP3    H165024   5.449   2.599  15.894
 4852TIP3    H265025   5.424   2.452  15.918
 4853TIP3   OH265026   5.364   2.281  15.879
 4853TIP3    H165027   5.425   2.238  15.942
 4853TIP3    H265028   5.281   2.238  15.899
 4854TIP3   OH265029   5.577   2.163  16.038
 4854TIP3    H165030   5.616   2.093  15.982
 4854TIP3    H265031   5.645   2.232  16.038
 4855TIP3   OH265032   4.103   3.662  15.932
 4855TIP3    H165033   4.073   3.683  16.022
 4855TIP3    H265034   4.178   3.603  15.950
 4856TIP3   OH265035   6.948   2.766  16.164
 4856TIP3    H165036   6.999   2.788  16.242
 4856TIP3    H265037   6.983   2.819  16.093
 4857TIP3   OH265038   7.432   3.377  15.981
 4857TIP3    H165039   7.441   3.472  16.005
 4857TIP3    H265040   7.525   3.348  15.986
 4858TIP3   OH265041   6.646   2.256  15.998
 4858TIP3    H165042   6.628   2.259  16.091
 4858TIP3    H265043   6.619   2.169  15.965
 4859TIP3   OH265044   5.784   2.346  16.152
 4859TIP3    H165045   5.830   2.409  16.096
 4859TIP3    H265046   5.714   2.404  16.187
 4860TIP3   OH265047   6.919   2.320  16.053
 4860TIP3    H165048   6.823   2.328  16.045
 4860TIP3    H265049   6.943   2.403  16.098
 4861TIP3   OH265050   6.993   2.510  16.226
 4861TIP3    H165051   7.083   2.490  16.250
 4861TIP3    H265052   6.994   2.589  16.170
 4862TIP3   OH265053   7.052   3.203  16.021
 4862TIP3    H165054   7.087   3.170  16.104
 4862TIP3    H265055   6.957   3.193  16.029
 4863TIP3   OH265056   7.497   3.651  16.038
 4863TIP3    H165057   7.574   3.710  16.034
 4863TIP3    H265058   7.427   3.708  16.073
 4864TIP3   OH265059   6.000   3.001  16.150
 4864TIP3    H165060   5.934   3.030  16.216
 4864TIP3    H265061   6.053   3.078  16.138
 4865TIP3   OH265062   7.120   3.475  15.896
 4865TIP3    H165063   7.151   3.405  15.955
 4865TIP3    H265064   7.198   3.504  15.849
 4866TIP3   OH265065   6.218   3.072  15.890
 4866TIP3    H165066   6.221   2.994  15.945
 4866TIP3    H265067   6.285   3.059  15.824
 4867TIP3   OH265068   6.754   3.181  15.864
 4867TIP3    H165069   6.726   3.198  15.953
 4867TIP3    H265070   6.733   3.086  15.849
 4868TIP3   OH265071   5.785   3.232  15.992
 4868TIP3    H165072   5.876   3.232  16.022
 4868TIP3    H265073   5.787   3.157  15.929
 4869TIP3   OH265074   5.990   3.660  15.934
 4869TIP3    H165075   5.959   3.686  16.023
 4869TIP3    H265076   6.063   3.599  15.950
 4870TIP3   OH265077  -0.052   2.276  16.148
 4870TIP3    H165078  -0.027   2.344  16.209
 4870TIP3    H265079   0.027   2.217  16.150
 4871TIP3   OH265080   7.671   3.232  15.993
 4871TIP3    H165081   7.763   3.236  16.022
 4871TIP3    H265082   7.669   3.159  15.931
 4872TIP3   OH265083   7.897   2.166  15.976
 4872TIP3    H165084   7.946   2.097  15.929
 4872TIP3    H265085   7.959   2.194  16.047
 4873TIP3   OH265086   1.061   4.564  16.002
 4873TIP3    H165087   1.129   4.567  16.069
 4873TIP3    H265088   1.093   4.495  15.943
 4874TIP3   OH265089   0.143   4.275  16.170
 4874TIP3    H165090   0.177   4.311  16.087
 4874TIP3    H265091   0.051   4.303  16.176
 4875TIP3   OH265092   0.540   4.466  16.051
 4875TIP3    H165093   0.485   4.429  15.978
 4875TIP3    H265094   0.620   4.488  16.002
 4876TIP3   OH265095   1.259   4.211  16.053
 4876TIP3    H165096   1.164   4.220  16.051
 4876TIP3    H265097   1.291   4.289  16.100
 4877TIP3   OH265098   1.333   4.398  16.225
 4877TIP3    H165099   1.423   4.377  16.256
 4877TIP3    H265100   1.346   4.473  16.167
 4878TIP3   OH265101   1.814   4.413  16.200
 4878TIP3    H165102   1.767   4.377  16.124
 4878TIP3    H265103   1.833   4.504  16.168
 4879TIP3   OH265104   0.797   5.201  15.869
 4879TIP3    H165105   0.826   5.126  15.816
 4879TIP3    H265106   0.773   5.161  15.953
 4880TIP3   OH265107   0.249   4.397  15.953
 4880TIP3    H165108   0.237   4.490  15.982
 4880TIP3    H265109   0.157   4.378  15.936
 4881TIP3   OH265110   1.092   5.066  15.861
 4881TIP3    H165111   1.071   5.083  15.953
 4881TIP3    H265112   1.077   4.970  15.851
 4882TIP3   OH265113   0.785   4.577  15.949
 4882TIP3    H165114   0.767   4.571  15.853
 4882TIP3    H265115   0.881   4.589  15.954
 4883TIP3   OH265116   1.721   4.813  15.895
 4883TIP3    H165117   1.694   4.772  15.812
 4883TIP3    H265118   1.721   4.910  15.874
 4884TIP3   OH265119   1.833   4.696  16.115
 4884TIP3    H165120   1.783   4.732  16.038
 4884TIP3    H265121   1.832   4.768  16.178
 4885TIP3   OH265122   1.666   4.424  15.965
 4885TIP3    H165123   1.683   4.489  15.895
 4885TIP3    H265124   1.660   4.341  15.917
 4886TIP3   OH265125   1.806   4.058  16.029
 4886TIP3    H165126   1.845   3.978  15.989
 4886TIP3    H265127   1.881   4.118  16.044
 4887TIP3   OH265128   0.268   3.856  16.008
 4887TIP3    H165129   0.227   3.945  16.025
 4887TIP3    H265130   0.217   3.844  16.091
 4888TIP3   OH265131   0.375   4.074  15.956
 4888TIP3    H165132   0.398   3.983  15.927
 4888TIP3    H265133   0.419   4.080  16.040
 4889TIP3   OH265134   3.658   5.268  15.979
 4889TIP3    H165135   3.670   5.359  16.004
 4889TIP3    H265136   3.750   5.238  15.982
 4890TIP3   OH265137   3.202   5.542  16.055
 4890TIP3    H165138   3.241   5.467  16.006
 4890TIP3    H265139   3.203   5.510  16.146
 4891TIP3   OH265140   3.322   4.755  15.939
 4891TIP3    H165141   3.315   4.733  15.843
 4891TIP3    H265142   3.407   4.799  15.943
 4892TIP3   OH265143   2.007   4.229  16.143
 4892TIP3    H165144   2.065   4.295  16.100
 4892TIP3    H265145   1.945   4.287  16.191
 4893TIP3   OH265146   2.090   4.692  16.015
 4893TIP3    H165147   2.144   4.756  16.061
 4893TIP3    H265148   1.999   4.718  16.041
 4894TIP3   OH265149   2.688   5.201  15.866
 4894TIP3    H165150   2.710   5.123  15.816
 4894TIP3    H265151   2.658   5.163  15.952
 4895TIP3   OH265152   2.584   5.158  16.113
 4895TIP3    H165153   2.592   5.110  16.197
 4895TIP3    H265154   2.581   5.248  16.147
 4896TIP3   OH265155   2.284   5.144  16.048
 4896TIP3    H165156   2.343   5.210  16.086
 4896TIP3    H265157   2.338   5.102  15.981
 4897TIP3   OH265158   2.115   4.407  15.968
 4897TIP3    H165159   2.115   4.504  15.983
 4897TIP3    H265160   2.027   4.391  15.937
 4898TIP3   OH265161   3.346   5.360  15.897
 4898TIP3    H165162   3.382   5.289  15.951
 4898TIP3    H265163   3.424   5.388  15.845
 4899TIP3   OH265164   3.608   4.817  15.894
 4899TIP3    H165165   3.580   4.776  15.810
 4899TIP3    H265166   3.610   4.912  15.870
 4900TIP3   OH265167   2.008   5.113  15.996
 4900TIP3    H165168   2.102   5.122  16.024
 4900TIP3    H265169   2.016   5.044  15.927
 4901TIP3   OH265170   3.715   4.698  16.114
 4901TIP3    H165171   3.670   4.736  16.036
 4901TIP3    H265172   3.715   4.770  16.176
 4902TIP3   OH265173   3.481   4.162  15.878
 4902TIP3    H165174   3.539   4.127  15.945
 4902TIP3    H265175   3.395   4.122  15.896
 4903TIP3   OH265176   2.043   3.856  16.133
 4903TIP3    H165177   2.093   3.925  16.087
 4903TIP3    H265178   1.989   3.911  16.192
 4904TIP3   OH265179   2.229   4.044  15.985
 4904TIP3    H165180   2.285   3.985  15.931
 4904TIP3    H265181   2.287   4.079  16.053
 4905TIP3   OH265182   4.836   4.563  16.007
 4905TIP3    H165183   4.905   4.565  16.073
 4905TIP3    H265184   4.867   4.499  15.942
 4906TIP3   OH265185   5.592   4.411  16.197
 4906TIP3    H165186   5.540   4.371  16.125
 4906TIP3    H265187   5.602   4.504  16.167
 4907TIP3   OH265188   4.572   5.199  15.866
 4907TIP3    H165189   4.594   5.118  15.817
 4907TIP3    H265190   4.543   5.164  15.950
 4908TIP3   OH265191   5.236   5.388  15.912
 4908TIP3    H165192   5.257   5.304  15.957
 4908TIP3    H265193   5.308   5.395  15.849
 4909TIP3   OH265194   4.853   5.066  15.875
 4909TIP3    H165195   4.836   5.078  15.967
 4909TIP3    H265196   4.846   4.972  15.857
 4910TIP3   OH265197   5.601   4.690  16.112
 4910TIP3    H165198   5.556   4.730  16.037
 4910TIP3    H265199   5.604   4.762  16.177
 4911TIP3   OH265200   5.578   4.054  16.033
 4911TIP3    H165201   5.616   3.976  15.989
 4911TIP3    H265202   5.649   4.117  16.040
 4912TIP3   OH265203   3.925   3.848  16.137
 4912TIP3    H165204   3.970   3.910  16.080
 4912TIP3    H265205   3.865   3.902  16.186
 4913TIP3   OH265206   7.431   5.265  15.986
 4913TIP3    H165207   7.444   5.360  16.005
 4913TIP3    H265208   7.522   5.233  15.988
 4914TIP3   OH265209   5.781   4.228  16.150
 4914TIP3    H165210   5.835   4.292  16.099
 4914TIP3    H265211   5.717   4.290  16.189
 4915TIP3   OH265212   6.194   4.461  16.050
 4915TIP3    H165213   6.144   4.429  15.974
 4915TIP3    H265214   6.276   4.491  16.006
 4916TIP3   OH265215   7.495   5.540  16.038
 4916TIP3    H165216   7.572   5.598  16.031
 4916TIP3    H265217   7.431   5.596  16.080
 4917TIP3   OH265218   6.465   5.202  15.869
 4917TIP3    H165219   6.479   5.126  15.811
 4917TIP3    H265220   6.426   5.161  15.950
 4918TIP3   OH265221   6.353   5.156  16.114
 4918TIP3    H165222   6.362   5.109  16.197
 4918TIP3    H265223   6.354   5.249  16.146
 4919TIP3   OH265224   6.623   5.328  16.192
 4919TIP3    H165225   6.540   5.376  16.191
 4919TIP3    H265226   6.675   5.378  16.128
 4920TIP3   OH265227   6.362   5.431  16.189
 4920TIP3    H165228   6.372   5.512  16.132
 4920TIP3    H265229   6.341   5.467  16.275
 4921TIP3   OH265230   6.231   4.100  16.145
 4921TIP3    H165231   6.219   4.188  16.182
 4921TIP3    H265232   6.319   4.077  16.174
 4922TIP3   OH265233   6.056   5.149  16.054
 4922TIP3    H165234   6.123   5.211  16.082
 4922TIP3    H265235   6.104   5.096  15.988
 4923TIP3   OH265236   5.887   4.411  15.966
 4923TIP3    H165237   5.886   4.506  15.986
 4923TIP3    H265238   5.798   4.390  15.936
 4924TIP3   OH265239   6.668   5.387  15.880
 4924TIP3    H165240   6.597   5.325  15.908
 4924TIP3    H265241   6.740   5.326  15.861
 4925TIP3   OH265242   6.215   4.961  15.888
 4925TIP3    H165243   6.221   4.882  15.942
 4925TIP3    H265244   6.281   4.945  15.820
 4926TIP3   OH265245   6.428   4.580  15.936
 4926TIP3    H165246   6.418   4.561  15.843
 4926TIP3    H265247   6.523   4.580  15.950
 4927TIP3   OH265248   6.425   5.655  16.055
 4927TIP3    H165249   6.522   5.662  16.058
 4927TIP3    H265250   6.405   5.713  15.980
 4928TIP3   OH265251   7.250   4.159  15.878
 4928TIP3    H165252   7.312   4.129  15.945
 4928TIP3    H265253   7.166   4.122  15.900
 4929TIP3   OH265254   5.817   3.857  16.141
 4929TIP3    H165255   5.864   3.921  16.085
 4929TIP3    H265256   5.755   3.914  16.185
 4930TIP3   OH265257   6.002   4.049  15.985
 4930TIP3    H165258   6.053   3.986  15.933
 4930TIP3    H265259   6.063   4.078  16.055
 4931TIP3   OH265260   6.688   5.574  16.074
 4931TIP3    H165261   6.773   5.613  16.052
 4931TIP3    H265262   6.670   5.524  15.992
 4932TIP3   OH265263   5.979   5.539  15.936
 4932TIP3    H165264   5.962   5.575  16.024
 4932TIP3    H265265   6.063   5.491  15.947
 4933TIP3   OH265266   7.739   4.695  16.012
 4933TIP3    H165267   7.803   4.753  16.057
 4933TIP3    H265268   7.654   4.727  16.045
 4934TIP3   OH265269   7.881   4.881  16.159
 4934TIP3    H165270   7.816   4.914  16.222
 4934TIP3    H265271   7.931   4.961  16.138
 4935TIP3   OH265272   7.944   5.141  16.054
 4935TIP3    H165273   8.002   5.212  16.081
 4935TIP3    H265274   7.994   5.098  15.981
 4936TIP3   OH265275   7.776   4.415  15.964
 4936TIP3    H165276   7.769   4.510  15.982
 4936TIP3    H265277   7.686   4.389  15.941
 4937TIP3   OH265278   8.098   4.956  15.894
 4937TIP3    H165279   8.114   4.876  15.943
 4937TIP3    H265280   8.166   4.950  15.823
 4938TIP3   OH265281   7.670   5.113  15.997
 4938TIP3    H165282   7.763   5.123  16.025
 4938TIP3    H265283   7.673   5.046  15.930
 4939TIP3   OH265284   7.696   3.857  16.143
 4939TIP3    H165285   7.746   3.915  16.085
 4939TIP3    H265286   7.638   3.916  16.190
 4940TIP3   OH265287   7.876   5.544  15.931
 4940TIP3    H165288   7.847   5.571  16.020
 4940TIP3    H265289   7.950   5.487  15.952
 4941TIP3   OH265290   1.284   6.543  16.164
 4941TIP3    H165291   1.339   6.558  16.241
 4941TIP3    H265292   1.329   6.588  16.090
 4942TIP3   OH265293   1.657   5.717  16.149
 4942TIP3    H165294   1.566   5.728  16.178
 4942TIP3    H265295   1.679   5.804  16.113
 4943TIP3   OH265296   1.311   7.426  16.053
 4943TIP3    H165297   1.356   7.353  16.006
 4943TIP3    H265298   1.320   7.399  16.146
 4944TIP3   OH265299   1.434   6.641  15.938
 4944TIP3    H165300   1.428   6.621  15.842
 4944TIP3    H265301   1.520   6.685  15.944
 4945TIP3   OH265302   0.990   6.029  15.997
 4945TIP3    H165303   0.966   6.035  16.090
 4945TIP3    H265304   0.959   5.943  15.968
 4946TIP3   OH265305   0.676   6.075  15.904
 4946TIP3    H165306   0.633   6.033  15.980
 4946TIP3    H265307   0.604   6.108  15.851
 4947TIP3   OH265308   0.150   6.144  16.169
 4947TIP3    H165309   0.182   6.189  16.090
 4947TIP3    H265310   0.064   6.184  16.183
 4948TIP3   OH265311   1.338   6.272  16.220
 4948TIP3    H165312   1.427   6.266  16.253
 4948TIP3    H265313   1.334   6.355  16.168
 4949TIP3   OH265314   1.084   6.952  16.135
 4949TIP3    H165315   1.057   7.036  16.178
 4949TIP3    H265316   1.016   6.892  16.165
 4950TIP3   OH265317   1.822   6.296  16.201
 4950TIP3    H165318   1.767   6.262  16.127
 4950TIP3    H265319   1.831   6.388  16.168
 4951TIP3   OH265320   1.394   6.979  16.021
 4951TIP3    H165321   1.424   6.941  16.105
 4951TIP3    H265322   1.298   6.965  16.034
 4952TIP3   OH265323   0.811   7.087  15.870
 4952TIP3    H165324   0.817   7.010  15.812
 4952TIP3    H265325   0.769   7.050  15.950
 4953TIP3   OH265326   0.701   7.038  16.112
 4953TIP3    H165327   0.710   6.994  16.196
 4953TIP3    H265328   0.694   7.131  16.143
 4954TIP3   OH265329   0.966   7.209  16.184
 4954TIP3    H165330   0.885   7.263  16.194
 4954TIP3    H265331   1.020   7.266  16.128
 4955TIP3   OH265332   0.704   7.313  16.188
 4955TIP3    H165333   0.715   7.395  16.133
 4955TIP3    H265334   0.685   7.351  16.276
 4956TIP3   OH265335   1.004   7.274  15.880
 4956TIP3    H165336   0.939   7.207  15.910
 4956TIP3    H265337   1.081   7.220  15.858
 4957TIP3   OH265338   1.456   7.244  15.900
 4957TIP3    H165339   1.491   7.170  15.952
 4957TIP3    H265340   1.532   7.277  15.847
 4958TIP3   OH265341   1.720   6.701  15.895
 4958TIP3    H165342   1.700   6.661  15.809
 4958TIP3    H265343   1.725   6.796  15.868
 4959TIP3   OH265344   0.769   7.539  16.055
 4959TIP3    H165345   0.867   7.548  16.059
 4959TIP3    H265346   0.751   7.602  15.982
 4960TIP3   OH265347   1.831   6.581  16.113
 4960TIP3    H165348   1.783   6.618  16.035
 4960TIP3    H265349   1.828   6.652  16.177
 4961TIP3   OH265350   1.676   6.308  15.965
 4961TIP3    H165351   1.677   6.373  15.894
 4961TIP3    H265352   1.651   6.226  15.918
 4962TIP3   OH265353   1.591   6.055  15.881
 4962TIP3    H165354   1.656   6.012  15.940
 4962TIP3    H265355   1.510   6.006  15.900
 4963TIP3   OH265356   1.805   5.936  16.035
 4963TIP3    H165357   1.847   5.868  15.981
 4963TIP3    H265358   1.875   6.005  16.042
 4964TIP3   OH265359   1.036   7.461  16.075
 4964TIP3    H165360   1.126   7.489  16.055
 4964TIP3    H265361   1.016   7.411  15.993
 4965TIP3   OH265362   0.332   7.433  15.934
 4965TIP3    H165363   0.304   7.457  16.023
 4965TIP3    H265364   0.405   7.371  15.950
 4966TIP3   OH265365   2.949   6.455  15.999
 4966TIP3    H165366   3.018   6.455  16.069
 4966TIP3    H265367   2.986   6.385  15.943
 4967TIP3   OH265368   3.169   6.539  16.168
 4967TIP3    H165369   3.231   6.554  16.239
 4967TIP3    H265370   3.211   6.585  16.094
 4968TIP3   OH265371   3.543   5.719  16.158
 4968TIP3    H165372   3.449   5.725  16.175
 4968TIP3    H265373   3.562   5.800  16.109
 4969TIP3   OH265374   3.194   7.420  16.058
 4969TIP3    H165375   3.239   7.353  16.004
 4969TIP3    H265376   3.214   7.393  16.147
 4970TIP3   OH265377   2.011   6.119  16.151
 4970TIP3    H165378   2.063   6.183  16.098
 4970TIP3    H265379   1.943   6.179  16.189
 4971TIP3   OH265380   2.966   6.956  16.137
 4971TIP3    H165381   2.938   7.036  16.182
 4971TIP3    H265382   2.903   6.889  16.166
 4972TIP3   OH265383   3.703   6.295  16.202
 4972TIP3    H165384   3.651   6.264  16.125
 4972TIP3    H265385   3.720   6.385  16.168
 4973TIP3   OH265386   2.082   6.571  16.015
 4973TIP3    H165387   2.144   6.637  16.049
 4973TIP3    H265388   1.994   6.603  16.042
 4974TIP3   OH265389   2.694   7.090  15.876
 4974TIP3    H165390   2.708   7.018  15.813
 4974TIP3    H265391   2.654   7.042  15.949
 4975TIP3   OH265392   2.845   7.202  16.183
 4975TIP3    H165393   2.762   7.253  16.189
 4975TIP3    H265394   2.891   7.241  16.108
 4976TIP3   OH265395   2.115   6.296  15.967
 4976TIP3    H165396   2.115   6.393  15.986
 4976TIP3    H265397   2.026   6.278  15.937
 4977TIP3   OH265398   2.899   7.271  15.894
 4977TIP3    H165399   2.823   7.208  15.901
 4977TIP3    H265400   2.965   7.214  15.851
 4978TIP3   OH265401   2.973   6.956  15.863
 4978TIP3    H165402   2.963   6.960  15.959
 4978TIP3    H265403   2.966   6.858  15.849
 4979TIP3   OH265404   2.669   6.467  15.949
 4979TIP3    H165405   2.651   6.454  15.853
 4979TIP3    H265406   2.764   6.477  15.953
 4980TIP3   OH265407   2.658   7.535  16.057
 4980TIP3    H165408   2.751   7.555  16.056
 4980TIP3    H265409   2.631   7.594  15.983
 4981TIP3   OH265410   3.718   6.582  16.105
 4981TIP3    H165411   3.662   6.618  16.036
 4981TIP3    H265412   3.714   6.645  16.177
 4982TIP3   OH265413   3.555   6.309  15.966
 4982TIP3    H165414   3.565   6.372  15.894
 4982TIP3    H265415   3.539   6.225  15.919
 4983TIP3   OH265416   3.478   6.048  15.878
 4983TIP3    H165417   3.540   6.010  15.943
 4983TIP3    H265418   3.395   6.007  15.902
 4984TIP3   OH265419   3.685   5.940  16.030
 4984TIP3    H165420   3.726   5.865  15.983
 4984TIP3    H265421   3.754   6.006  16.034
 4985TIP3   OH265422   2.919   7.473  16.059
 4985TIP3    H165423   3.011   7.498  16.037
 4985TIP3    H265424   2.896   7.418  15.979
 4986TIP3   OH265425   4.831   6.452  16.004
 4986TIP3    H165426   4.902   6.450  16.069
 4986TIP3    H265427   4.864   6.385  15.942
 4987TIP3   OH265428   5.432   5.719  16.157
 4987TIP3    H165429   5.338   5.724  16.175
 4987TIP3    H265430   5.450   5.801  16.109
 4988TIP3   OH265431   5.204   6.637  15.938
 4988TIP3    H165432   5.205   6.624  15.842
 4988TIP3    H265433   5.288   6.684  15.950
 4989TIP3   OH265434   4.769   6.036  15.999
 4989TIP3    H165435   4.735   6.036  16.089
 4989TIP3    H265436   4.738   5.951  15.966
 4990TIP3   OH265437   4.459   6.082  15.910
 4990TIP3    H165438   4.409   6.033  15.976
 4990TIP3    H265439   4.388   6.108  15.848
 4991TIP3   OH265440   5.034   6.087  16.056
 4991TIP3    H165441   4.937   6.101  16.046
 4991TIP3    H265442   5.065   6.170  16.096
 4992TIP3   OH265443   5.101   6.292  16.224
 4992TIP3    H165444   5.190   6.263  16.251
 4992TIP3    H265445   5.120   6.361  16.161
 4993TIP3   OH265446   5.594   6.295  16.199
 4993TIP3    H165447   5.535   6.262  16.128
 4993TIP3    H265448   5.601   6.388  16.168
 4994TIP3   OH265449   3.970   6.581  16.005
 4994TIP3    H165450   4.030   6.637  16.059
 4994TIP3    H265451   3.884   6.601  16.044
 4995TIP3   OH265452   5.617   7.418  16.044
 4995TIP3    H165453   5.688   7.480  16.026
 4995TIP3    H265454   5.545   7.477  16.075
 4996TIP3   OH265455   4.102   6.770  16.159
 4996TIP3    H165456   4.048   6.804  16.230
 4996TIP3    H265457   4.166   6.841  16.138
 4997TIP3   OH265458   4.482   7.316  16.194
 4997TIP3    H165459   4.484   7.392  16.132
 4997TIP3    H265460   4.451   7.352  16.277
 4998TIP3   OH265461   4.324   6.837  15.884
 4998TIP3    H165462   4.342   6.765  15.946
 4998TIP3    H265463   4.398   6.832  15.822
 4999TIP3   OH265464   4.443   6.641  16.116
 4999TIP3    H165465   4.402   6.595  16.190
 4999TIP3    H265466   4.471   6.572  16.055
 5000TIP3   OH265467   4.555   6.459  15.948
 5000TIP3    H165468   4.538   6.458  15.851
 5000TIP3    H265469   4.651   6.476  15.951
 5001TIP3   OH265470   5.488   6.704  15.892
 5001TIP3    H165471   5.468   6.662  15.807
 5001TIP3    H265472   5.498   6.798  15.868
 5002TIP3   OH265473   4.544   7.543  16.058
 5002TIP3    H165474   4.640   7.552  16.056
 5002TIP3    H265475   4.518   7.599  15.982
 5003TIP3   OH265476   5.607   6.581  16.112
 5003TIP3    H165477   5.556   6.620  16.037
 5003TIP3    H265478   5.602   6.652  16.176
 5004TIP3   OH265479   5.438   6.308  15.966
 5004TIP3    H165480   5.450   6.371  15.894
 5004TIP3    H265481   5.423   6.224  15.919
 5005TIP3   OH265482   5.366   6.053  15.878
 5005TIP3    H165483   5.426   6.013  15.942
 5005TIP3    H265484   5.282   6.009  15.898
 5006TIP3   OH265485   5.574   5.939  16.033
 5006TIP3    H165486   5.615   5.863  15.986
 5006TIP3    H265487   5.646   6.003  16.041
 5007TIP3   OH265488   5.783   6.119  16.151
 5007TIP3    H165489   5.829   6.183  16.096
 5007TIP3    H265490   5.714   6.176  16.188
 5008TIP3   OH265491   6.058   7.030  16.055
 5008TIP3    H165492   6.118   7.099  16.084
 5008TIP3    H265493   6.105   6.985  15.983
 5009TIP3   OH265494   6.225   6.849  15.897
 5009TIP3    H165495   6.216   6.764  15.941
 5009TIP3    H265496   6.278   6.831  15.819
 5010TIP3   OH265497   5.987   7.430  15.937
 5010TIP3    H165498   5.963   7.452  16.027
 5010TIP3    H265499   6.067   7.374  15.946
 5011TIP3   OH265500   7.669   6.118  16.151
 5011TIP3    H165501   7.724   6.180  16.099
 5011TIP3    H265502   7.604   6.175  16.191
 5012TIP3   OH265503   8.085   6.347  16.050
 5012TIP3    H165504   8.027   6.317  15.976
 5012TIP3    H265505   8.163   6.371  16.001
 5013TIP3   OH265506   7.885   6.767  16.166
 5013TIP3    H165507   7.814   6.799  16.221
 5013TIP3    H265508   7.929   6.847  16.137
 5014TIP3   OH265509  -0.041   5.971  16.155
 5014TIP3    H165510  -0.045   6.063  16.179
 5014TIP3    H265511   0.054   5.959  16.168
 5015TIP3   OH265512   7.942   7.029  16.053
 5015TIP3    H165513   8.000   7.102  16.080
 5015TIP3    H265514   7.994   6.984  15.984
 5016TIP3   OH265515   7.781   6.295  15.968
 5016TIP3    H165516   7.773   6.390  15.981
 5016TIP3    H265517   7.693   6.272  15.936
 5017TIP3   OH265518   8.074   6.847  15.901
 5017TIP3    H165519   8.099   6.768  15.950
 5017TIP3    H265520   8.153   6.842  15.844
 5018TIP3   OH265521   7.671   6.999  15.999
 5018TIP3    H165522   7.764   7.008  16.023
 5018TIP3    H265523   7.672   6.930  15.932
 5019TIP3   OH265524   7.893   5.932  15.993
 5019TIP3    H165525   7.941   5.874  15.933
 5019TIP3    H265526   7.961   5.961  16.056
 5020TIP3   OH265527   7.875   7.423  15.925
 5020TIP3    H165528   7.844   7.454  16.013
 5020TIP3    H265529   7.952   7.372  15.953
 5021TIP3   OH265530   1.652   7.596  16.140
 5021TIP3    H165531   1.565   7.611  16.181
 5021TIP3    H265532   1.678   7.683  16.112
 5022TIP3   OH265533   0.909   7.905  16.024
 5022TIP3    H165534   0.961   7.910  16.100
 5022TIP3    H265535   0.956   7.838  15.968
 5023TIP3   OH265536   0.671   7.959  15.903
 5023TIP3    H165537   0.631   7.919  15.983
 5023TIP3    H265538   0.599   7.997  15.854
 5024TIP3   OH265539   0.157   8.016  16.170
 5024TIP3    H165540   0.192   8.079  16.106
 5024TIP3    H265541   0.078   8.068  16.192
 5025TIP3   OH265542   1.125   7.952  15.916
 5025TIP3    H165543   1.104   7.954  16.012
 5025TIP3    H265544   1.203   7.988  15.962
 5026TIP3   OH265545   0.581   7.876  16.139
 5026TIP3    H165546   0.563   7.958  16.188
 5026TIP3    H265547   0.667   7.847  16.172
 5027TIP3   OH265548   1.618   7.905  15.864
 5027TIP3    H165549   1.664   7.894  15.949
 5027TIP3    H265550   1.528   7.898  15.894
 5028TIP3   OH265551   1.810   7.821  16.018
 5028TIP3    H165552   1.853   7.741  15.983
 5028TIP3    H265553   1.882   7.882  16.037
 5029TIP3   OH265554   0.147   7.625  16.099
 5029TIP3    H165555   0.213   7.692  16.075
 5029TIP3    H265556   0.106   7.669  16.174
 5030TIP3   OH265557   0.350   7.817  15.994
 5030TIP3    H165558   0.396   7.755  15.934
 5030TIP3    H265559   0.417   7.842  16.060
 5031TIP3   OH265560   2.893   7.908  16.007
 5031TIP3    H165561   2.840   7.919  16.087
 5031TIP3    H265562   2.844   7.836  15.962
 5032TIP3   OH265563   2.538   7.957  15.920
 5032TIP3    H165564   2.499   7.903  15.990
 5032TIP3    H265565   2.474   7.992  15.859
 5033TIP3   OH265566   2.023   8.006  16.150
 5033TIP3    H165567   2.064   8.074  16.095
 5033TIP3    H265568   1.951   8.059  16.190
 5034TIP3   OH265569   3.147   7.980  16.058
 5034TIP3    H165570   3.050   7.985  16.045
 5034TIP3    H265571   3.178   8.063  16.093
 5035TIP3   OH265572   3.479   7.939  15.882
 5035TIP3    H165573   3.541   7.891  15.939
 5035TIP3    H265574   3.395   7.895  15.897
 5036TIP3   OH265575   3.687   7.827  16.025
 5036TIP3    H165576   3.732   7.750  15.988
 5036TIP3    H265577   3.763   7.883  16.042
 5037TIP3   OH265578   5.428   7.598  16.144
 5037TIP3    H165579   5.341   7.615  16.182
 5037TIP3    H265580   5.450   7.686  16.113
 5038TIP3   OH265581   4.769   7.912  16.000
 5038TIP3    H165582   4.734   7.918  16.089
 5038TIP3    H265583   4.730   7.831  15.965
 5039TIP3   OH265584   4.528   7.946  15.889
 5039TIP3    H165585   4.457   7.902  15.938
 5039TIP3    H265586   4.439   7.992  15.853
 5040TIP3   OH265587   3.924   7.916  16.149
 5040TIP3    H165588   3.953   8.004  16.110
 5040TIP3    H265589   3.860   7.967  16.205
 5041TIP3   OH265590   5.033   7.978  16.057
 5041TIP3    H165591   4.937   7.988  16.043
 5041TIP3    H265592   5.061   8.061  16.094
 5042TIP3   OH265593   4.351   7.964  16.014
 5042TIP3    H165594   4.292   7.954  16.094
 5042TIP3    H265595   4.418   7.920  16.085
 5043TIP3   OH265596   5.365   7.932  15.874
 5043TIP3    H165597   5.425   7.906  15.944
 5043TIP3    H265598   5.279   7.894  15.898
 5044TIP3   OH265599   4.084   7.825  15.971
 5044TIP3    H165600   4.142   7.761  15.929
 5044TIP3    H265601   4.141   7.851  16.044
 5045TIP3   OH265602   7.305   7.595  16.151
 5045TIP3    H165603   7.219   7.621  16.179
 5045TIP3    H265604   7.340   7.678  16.112
 5046TIP3   OH265605   6.915   7.976  16.060
 5046TIP3    H165606   6.823   7.993  16.041
 5046TIP3    H265607   6.949   8.061  16.092
 5047TIP3   OH265608   7.242   7.947  15.881
 5047TIP3    H165609   7.312   7.896  15.930
 5047TIP3    H265610   7.165   7.893  15.895
 5048TIP3   OH265611   7.442   7.846  15.990
 5048TIP3    H165612   7.488   7.756  15.984
 5048TIP3    H265613   7.518   7.881  16.041
 5049TIP3   OH265614   7.698   7.951  16.141
 5049TIP3    H165615   7.732   8.030  16.097
 5049TIP3    H265616   7.623   7.998  16.182
 5050TIP3   OH265617   0.001   7.843  16.215
 5050TIP3    H165618  -0.030   7.926  16.175
 5050TIP3    H265619   0.082   7.840  16.162
 5051TIP3   OH265620   7.591   7.716  16.116
 5051TIP3    H165621   7.677   7.702  16.066
 5051TIP3    H265622   7.631   7.686  16.196
 5052TIP3   OH265623   7.823   7.728  15.929
 5052TIP3    H165624   7.913   7.697  15.912
 5052TIP3    H265625   7.856   7.787  15.999
 5053TIP3   OH265626   1.187   1.017  16.917
 5053TIP3    H165627   1.190   1.113  16.914
 5053TIP3    H265628   1.119   0.998  16.850
 5054TIP3   OH265629   1.079   0.945  17.264
 5054TIP3    H165630   1.074   0.882  17.338
 5054TIP3    H265631   1.039   0.894  17.192
 5055TIP3   OH265632   0.911   1.183  17.311
 5055TIP3    H165633   0.948   1.118  17.249
 5055TIP3    H265634   0.991   1.201  17.363
 5056TIP3   OH265635   1.216   0.628  17.341
 5056TIP3    H165636   1.247   0.536  17.342
 5056TIP3    H265637   1.221   0.647  17.245
 5057TIP3   OH265638   0.545   0.438  17.068
 5057TIP3    H165639   0.550   0.525  17.026
 5057TIP3    H265640   0.498   0.387  16.998
 5058TIP3   OH265641   0.726   0.836  17.069
 5058TIP3    H165642   0.788   0.775  17.112
 5058TIP3    H265643   0.667   0.775  17.020
 5059TIP3   OH265644   0.428   0.331  17.471
 5059TIP3    H165645   0.405   0.387  17.396
 5059TIP3    H265646   0.361   0.356  17.539
 5060TIP3   OH265647   0.683   1.101  17.505
 5060TIP3    H165648   0.607   1.159  17.510
 5060TIP3    H265649   0.753   1.156  17.466
 5061TIP3   OH265650   1.056   0.943  16.668
 5061TIP3    H165651   0.986   1.001  16.630
 5061TIP3    H265652   1.125   0.953  16.602
 5062TIP3   OH265653   1.061   0.793  16.374
 5062TIP3    H165654   1.133   0.797  16.437
 5062TIP3    H265655   1.097   0.733  16.309
 5063TIP3   OH265656   1.800   0.888  17.501
 5063TIP3    H165657   1.725   0.950  17.505
 5063TIP3    H265658   1.841   0.907  17.414
 5064TIP3   OH265659   1.401   0.969  16.760
 5064TIP3    H165660   1.325   0.989  16.819
 5064TIP3    H265661   1.445   0.895  16.805
 5065TIP3   OH265662   1.391   0.784  17.669
 5065TIP3    H165663   1.394   0.861  17.726
 5065TIP3    H265664   1.327   0.811  17.601
 5066TIP3   OH265665   0.698   1.374  17.221
 5066TIP3    H165666   0.692   1.314  17.145
 5066TIP3    H265667   0.771   1.333  17.268
 5067TIP3   OH265668   0.596   0.901  17.318
 5067TIP3    H165669   0.649   0.914  17.236
 5067TIP3    H265670   0.631   0.971  17.376
 5068TIP3   OH265671   0.564   0.154  17.293
 5068TIP3    H165672   0.474   0.151  17.254
 5068TIP3    H265673   0.553   0.235  17.344
 5069TIP3   OH265674   0.994   0.374  16.363
 5069TIP3    H165675   0.962   0.374  16.455
 5069TIP3    H265676   0.962   0.288  16.335
 5070TIP3   OH265677   0.578   0.649  17.420
 5070TIP3    H165678   0.500   0.647  17.476
 5070TIP3    H265679   0.570   0.738  17.377
 5071TIP3   OH265680   0.574   0.673  16.901
 5071TIP3    H165681   0.480   0.644  16.892
 5071TIP3    H265682   0.608   0.633  16.819
 5072TIP3   OH265683   1.027   0.735  17.923
 5072TIP3    H165684   0.976   0.656  17.955
 5072TIP3    H265685   1.111   0.722  17.968
 5073TIP3   OH265686   1.215   0.654  17.064
 5073TIP3    H165687   1.199   0.719  16.995
 5073TIP3    H265688   1.242   0.575  17.016
 5074TIP3   OH265689   0.065   0.417  16.939
 5074TIP3    H165690   0.078   0.394  17.031
 5074TIP3    H265691   0.050   0.335  16.894
 5075TIP3   OH265692   0.149   0.482  16.540
 5075TIP3    H165693   0.180   0.524  16.458
 5075TIP3    H265694   0.065   0.529  16.547
 5076TIP3   OH265695   1.145   0.818  17.521
 5076TIP3    H165696   1.183   0.751  17.462
 5076TIP3    H265697   1.102   0.764  17.589
 5077TIP3   OH265698   0.314   0.576  16.882
 5077TIP3    H165699   0.218   0.584  16.862
 5077TIP3    H265700   0.334   0.487  16.851
 5078TIP3   OH265701   0.669   0.577  16.652
 5078TIP3    H165702   0.764   0.589  16.672
 5078TIP3    H265703   0.650   0.645  16.586
 5079TIP3   OH265704   0.952   0.696  17.192
 5079TIP3    H165705   1.014   0.642  17.142
 5079TIP3    H265706   0.938   0.642  17.272
 5080TIP3   OH265707   0.473   0.330  16.827
 5080TIP3    H165708   0.429   0.240  16.838
 5080TIP3    H265709   0.546   0.307  16.771
 5081TIP3   OH265710   0.820   0.524  17.439
 5081TIP3    H165711   0.736   0.577  17.442
 5081TIP3    H265712   0.872   0.564  17.511
 5082TIP3   OH265713   0.875   1.141  16.609
 5082TIP3    H165714   0.794   1.103  16.571
 5082TIP3    H265715   0.853   1.160  16.701
 5083TIP3   OH265716   1.592   1.068  17.484
 5083TIP3    H165717   1.651   1.113  17.424
 5083TIP3    H265718   1.506   1.072  17.439
 5084TIP3   OH265719   1.023   1.173  17.727
 5084TIP3    H165720   0.994   1.131  17.810
 5084TIP3    H265721   1.005   1.266  17.740
 5085TIP3   OH265722   0.788   0.882  17.930
 5085TIP3    H165723   0.757   0.854  17.842
 5085TIP3    H265724   0.881   0.851  17.928
 5086TIP3   OH265725   1.370   1.004  17.310
 5086TIP3    H165726   1.276   0.980  17.304
 5086TIP3    H265727   1.413   0.926  17.274
 5087TIP3   OH265728   0.769   1.200  16.880
 5087TIP3    H165729   0.739   1.292  16.880
 5087TIP3    H265730   0.694   1.152  16.917
 5088TIP3   OH265731   0.631   1.707  16.822
 5088TIP3    H165732   0.538   1.713  16.843
 5088TIP3    H265733   0.669   1.780  16.871
 5089TIP3   OH265734   1.166   1.223  17.480
 5089TIP3    H165735   1.129   1.200  17.566
 5089TIP3    H265736   1.225   1.149  17.460
 5090TIP3   OH265737   0.256   0.416  17.665
 5090TIP3    H165738   0.162   0.440  17.661
 5090TIP3    H265739   0.249   0.331  17.713
 5091TIP3   OH265740   1.478   1.188  16.610
 5091TIP3    H165741   1.450   1.109  16.662
 5091TIP3    H265742   1.571   1.193  16.634
 5092TIP3   OH265743   0.686   1.386  16.478
 5092TIP3    H165744   0.714   1.333  16.553
 5092TIP3    H265745   0.690   1.479  16.509
 5093TIP3   OH265746   0.916   0.517  16.750
 5093TIP3    H165747   1.000   0.565  16.753
 5093TIP3    H265748   0.899   0.501  16.844
 5094TIP3   OH265749   0.977   0.612  17.670
 5094TIP3    H165750   0.985   0.669  17.749
 5094TIP3    H265751   1.042   0.542  17.684
 5095TIP3   OH265752   0.699   1.656  16.551
 5095TIP3    H165753   0.722   1.737  16.503
 5095TIP3    H265754   0.684   1.686  16.642
 5096TIP3   OH265755   0.575   0.328  16.513
 5096TIP3    H165756   0.567   0.419  16.547
 5096TIP3    H265757   0.665   0.305  16.540
 5097TIP3   OH265758   0.309   0.131  17.210
 5097TIP3    H165759   0.301   0.131  17.112
 5097TIP3    H265760   0.278   0.041  17.229
 5098TIP3   OH265761   0.206   1.510  16.817
 5098TIP3    H165762   0.123   1.557  16.816
 5098TIP3    H265763   0.255   1.559  16.750
 5099TIP3   OH265764   0.134   1.776  17.947
 5099TIP3    H165765   0.191   1.748  18.018
 5099TIP3    H265766   0.087   1.693  17.923
 5100TIP3   OH265767   0.599   1.671  18.105
 5100TIP3    H165768   0.669   1.615  18.143
 5100TIP3    H265769   0.591   1.636  18.016
 5101TIP3   OH265770   0.796   1.151  17.983
 5101TIP3    H165771   0.757   1.176  17.900
 5101TIP3    H265772   0.800   1.053  17.977
 5102TIP3   OH265773   1.364   1.135  17.728
 5102TIP3    H165774   1.436   1.198  17.714
 5102TIP3    H265775   1.288   1.195  17.728
 5103TIP3   OH265776   0.675   0.988  16.490
 5103TIP3    H165777   0.628   0.934  16.555
 5103TIP3    H265778   0.703   0.922  16.422
 5104TIP3   OH265779   0.600   0.770  17.716
 5104TIP3    H165780   0.543   0.842  17.748
 5104TIP3    H265781   0.644   0.807  17.638
 5105TIP3   OH265782   0.780   0.815  16.313
 5105TIP3    H165783   0.769   0.793  16.220
 5105TIP3    H265784   0.878   0.822  16.322
 5106TIP3   OH265785   1.107   1.025  18.054
 5106TIP3    H165786   1.203   1.026  18.048
 5106TIP3    H265787   1.090   0.951  18.114
 5107TIP3   OH265788   0.643   0.509  17.829
 5107TIP3    H165789   0.652   0.437  17.765
 5107TIP3    H265790   0.636   0.588  17.773
 5108TIP3   OH265791   0.682   0.348  17.579
 5108TIP3    H165792   0.733   0.396  17.509
 5108TIP3    H265793   0.593   0.338  17.540
 5109TIP3   OH265794   0.836   0.893  17.606
 5109TIP3    H165795   0.912   0.875  17.550
 5109TIP3    H265796   0.802   0.978  17.572
 5110TIP3   OH265797   1.409   0.949  17.917
 5110TIP3    H165798   1.383   1.022  17.856
 5110TIP3    H265799   1.505   0.946  17.898
 5111TIP3   OH265800   0.487   0.633  18.019
 5111TIP3    H165801   0.410   0.575  17.999
 5111TIP3    H265802   0.553   0.593  17.958
 5112TIP3   OH265803   0.730   0.090  17.625
 5112TIP3    H165804   0.738   0.187  17.608
 5112TIP3    H265805   0.666   0.058  17.563
 5113TIP3   OH265806   0.886   0.526  17.980
 5113TIP3    H165807   0.861   0.498  18.070
 5113TIP3    H265808   0.805   0.502  17.930
 5114TIP3   OH265809   0.305   0.428  17.995
 5114TIP3    H165810   0.321   0.352  17.934
 5114TIP3    H265811   0.292   0.378  18.078
 5115TIP3   OH265812   0.785   0.068  17.875
 5115TIP3    H165813   0.851  -0.004  17.881
 5115TIP3    H265814   0.769   0.058  17.779
 5116TIP3   OH265815   0.818   0.189  18.104
 5116TIP3    H165816   0.806   0.143  18.018
 5116TIP3    H265817   0.761   0.267  18.091
 5117TIP3   OH265818   1.640   1.300  18.108
 5117TIP3    H165819   1.549   1.297  18.139
 5117TIP3    H265820   1.670   1.383  18.146
 5118TIP3   OH265821   1.769   1.135  16.654
 5118TIP3    H165822   1.855   1.175  16.671
 5118TIP3    H265823   1.768   1.059  16.716
 5119TIP3   OH265824   1.806   0.944  16.840
 5119TIP3    H165825   1.731   0.888  16.873
 5119TIP3    H265826   1.867   0.953  16.913
 5120TIP3   OH265827   1.839   0.932  16.470
 5120TIP3    H165828   1.773   0.960  16.406
 5120TIP3    H265829   1.824   0.993  16.544
 5121TIP3   OH265830   1.590   0.791  16.898
 5121TIP3    H165831   1.571   0.697  16.890
 5121TIP3    H265832   1.549   0.817  16.980
 5122TIP3   OH265833   1.672   0.983  17.868
 5122TIP3    H165834   1.733   0.909  17.873
 5122TIP3    H265835   1.731   1.060  17.858
 5123TIP3   OH265836   0.196   0.378  17.183
 5123TIP3    H165837   0.222   0.291  17.220
 5123TIP3    H265838   0.225   0.441  17.248
 5124TIP3   OH265839   0.054   0.275  16.711
 5124TIP3    H165840  -0.041   0.290  16.689
 5124TIP3    H265841   0.095   0.338  16.649
 5125TIP3   OH265842   1.526   1.774  16.896
 5125TIP3    H165843   1.591   1.747  16.834
 5125TIP3    H265844   1.566   1.831  16.963
 5126TIP3   OH265845   8.169   0.304  17.497
 5126TIP3    H165846   8.129   0.236  17.559
 5126TIP3    H265847   8.118   0.239  17.441
 5127TIP3   OH265848   0.285   1.896  17.591
 5127TIP3    H165849   0.210   1.938  17.546
 5127TIP3    H265850   0.245   1.870  17.674
 5128TIP3   OH265851   0.692   1.675  17.230
 5128TIP3    H165852   0.715   1.585  17.203
 5128TIP3    H265853   0.701   1.674  17.325
 5129TIP3   OH265854   0.330   0.155  16.915
 5129TIP3    H165855   0.244   0.133  16.871
 5129TIP3    H265856   0.353   0.061  16.930
 5130TIP3   OH265857   0.169   0.114  16.514
 5130TIP3    H165858   0.207   0.168  16.443
 5130TIP3    H265859   0.092   0.156  16.553
 5131TIP3   OH265860   0.733   0.102  16.907
 5131TIP3    H165861   0.822   0.134  16.907
 5131TIP3    H265862   0.723   0.075  16.999
 5132TIP3   OH265863   0.150   1.680  16.598
 5132TIP3    H165864   0.080   1.677  16.531
 5132TIP3    H265865   0.151   1.772  16.626
 5133TIP3   OH265866   0.342   0.278  16.348
 5133TIP3    H165867   0.395   0.213  16.301
 5133TIP3    H265868   0.406   0.308  16.415
 5134TIP3   OH265869   0.849   0.301  16.595
 5134TIP3    H165870   0.868   0.243  16.669
 5134TIP3    H265871   0.847   0.388  16.642
 5135TIP3   OH265872   0.285   0.174  17.899
 5135TIP3    H165873   0.237   0.089  17.921
 5135TIP3    H265874   0.376   0.151  17.921
 5136TIP3   OH265875   0.483   0.096  18.049
 5136TIP3    H165876   0.564   0.062  18.011
 5136TIP3    H265877   0.433   0.015  18.072
 5137TIP3   OH265878   0.315   1.772  16.308
 5137TIP3    H165879   0.312   1.802  16.398
 5137TIP3    H265880   0.401   1.724  16.305
 5138TIP3   OH265881   2.192   0.916  17.424
 5138TIP3    H165882   2.205   0.844  17.490
 5138TIP3    H265883   2.273   0.965  17.442
 5139TIP3   OH265884   3.329   1.246  17.096
 5139TIP3    H165885   3.289   1.171  17.141
 5139TIP3    H265886   3.335   1.312  17.165
 5140TIP3   OH265887   2.026   0.937  17.036
 5140TIP3    H165888   2.049   0.854  17.079
 5140TIP3    H265889   2.096   0.946  16.968
 5141TIP3   OH265890   3.672   0.342  17.390
 5141TIP3    H165891   3.672   0.408  17.464
 5141TIP3    H265892   3.708   0.397  17.320
 5142TIP3   OH265893   3.701   0.487  17.614
 5142TIP3    H165894   3.640   0.563  17.605
 5142TIP3    H265895   3.714   0.481  17.709
 5143TIP3   OH265896   2.414   1.298  17.574
 5143TIP3    H165897   2.406   1.386  17.538
 5143TIP3    H265898   2.325   1.286  17.618
 5144TIP3   OH265899   2.026   1.259  16.653
 5144TIP3    H165900   1.991   1.288  16.567
 5144TIP3    H265901   2.026   1.341  16.707
 5145TIP3   OH265902   3.382   1.426  17.339
 5145TIP3    H165903   3.286   1.433  17.341
 5145TIP3    H265904   3.412   1.513  17.308
 5146TIP3   OH265905   3.484   1.255  17.689
 5146TIP3    H165906   3.507   1.188  17.622
 5146TIP3    H265907   3.517   1.337  17.649
 5147TIP3   OH265908   3.682   0.888  17.497
 5147TIP3    H165909   3.612   0.956  17.500
 5147TIP3    H265910   3.729   0.907  17.415
 5148TIP3   OH265911   3.283   0.787  17.667
 5148TIP3    H165912   3.281   0.860  17.731
 5148TIP3    H265913   3.214   0.811  17.605
 5149TIP3   OH265914   2.460   0.901  17.310
 5149TIP3    H165915   2.530   0.909  17.242
 5149TIP3    H265916   2.504   0.958  17.376
 5150TIP3   OH265917   2.561   1.329  17.789
 5150TIP3    H165918   2.538   1.414  17.828
 5150TIP3    H265919   2.502   1.322  17.712
 5151TIP3   OH265920   2.262   0.962  17.707
 5151TIP3    H165921   2.270   1.031  17.775
 5151TIP3    H265922   2.172   0.976  17.677
 5152TIP3   OH265923   3.544   0.061  16.514
 5152TIP3    H165924   3.451   0.071  16.543
 5152TIP3    H265925   3.566   0.147  16.477
 5153TIP3   OH265926   2.340   0.940  16.720
 5153TIP3    H165927   2.318   1.010  16.657
 5153TIP3    H265928   2.282   0.869  16.691
 5154TIP3   OH265929   3.656   1.492  16.348
 5154TIP3    H165930   3.669   1.584  16.370
 5154TIP3    H265931   3.748   1.460  16.347
 5155TIP3   OH265932   1.951   1.176  17.598
 5155TIP3    H165933   1.910   1.165  17.512
 5155TIP3    H265934   1.961   1.082  17.626
 5156TIP3   OH265935   3.753   1.517  17.847
 5156TIP3    H165936   3.743   1.420  17.849
 5156TIP3    H265937   3.669   1.546  17.889
 5157TIP3   OH265938   2.252   1.736  16.898
 5157TIP3    H165939   2.273   1.693  16.982
 5157TIP3    H265940   2.168   1.694  16.874
 5158TIP3   OH265941   3.170   1.773  16.708
 5158TIP3    H165942   3.074   1.773  16.707
 5158TIP3    H265943   3.196   1.690  16.749
 5159TIP3   OH265944   3.471   0.666  17.892
 5159TIP3    H165945   3.420   0.714  17.825
 5159TIP3    H265946   3.465   0.575  17.864
 5160TIP3   OH265947   2.183   1.304  17.697
 5160TIP3    H165948   2.202   1.272  17.787
 5160TIP3    H265949   2.094   1.268  17.676
 5161TIP3   OH265950   2.927   0.175  17.631
 5161TIP3    H165951   2.968   0.107  17.685
 5161TIP3    H265952   2.838   0.137  17.624
 5162TIP3   OH265953   2.218   0.683  17.586
 5162TIP3    H165954   2.228   0.719  17.675
 5162TIP3    H265955   2.178   0.597  17.603
 5163TIP3   OH265956   2.413   0.697  16.408
 5163TIP3    H165957   2.360   0.658  16.338
 5163TIP3    H265958   2.498   0.714  16.368
 5164TIP3   OH265959   3.483   1.903  17.957
 5164TIP3    H165960   3.499   1.950  17.874
 5164TIP3    H265961   3.544   1.943  18.020
 5165TIP3   OH265962   2.242   1.153  17.919
 5165TIP3    H165963   2.312   1.180  17.978
 5165TIP3    H265964   2.163   1.171  17.974
 5166TIP3   OH265965   3.479   1.071  17.485
 5166TIP3    H165966   3.537   1.115  17.421
 5166TIP3    H265967   3.395   1.074  17.436
 5167TIP3   OH265968   3.156   0.427  16.441
 5167TIP3    H165969   3.063   0.438  16.414
 5167TIP3    H265970   3.182   0.518  16.454
 5168TIP3   OH265971   1.969   0.932  17.714
 5168TIP3    H165972   1.996   0.885  17.794
 5168TIP3    H265973   1.913   0.867  17.666
 5169TIP3   OH265974   3.706   0.640  16.564
 5169TIP3    H165975   3.652   0.606  16.490
 5169TIP3    H265976   3.719   0.732  16.534
 5170TIP3   OH265977   3.707   1.223  17.842
 5170TIP3    H165978   3.620   1.245  17.804
 5170TIP3    H265979   3.764   1.219  17.763
 5171TIP3   OH265980   3.537   1.518  16.603
 5171TIP3    H165981   3.500   1.436  16.636
 5171TIP3    H265982   3.564   1.496  16.513
 5172TIP3   OH265983   3.258   1.004  17.308
 5172TIP3    H165984   3.166   0.979  17.304
 5172TIP3    H265985   3.301   0.925  17.272
 5173TIP3   OH265986   2.085   0.922  16.370
 5173TIP3    H165987   2.145   0.979  16.421
 5173TIP3    H265988   1.997   0.941  16.408
 5174TIP3   OH265989   3.293   1.329  16.391
 5174TIP3    H165990   3.317   1.276  16.470
 5174TIP3    H265991   3.199   1.314  16.392
 5175TIP3   OH265992   3.366   1.188  16.611
 5175TIP3    H165993   3.337   1.114  16.664
 5175TIP3    H265994   3.460   1.196  16.632
 5176TIP3   OH265995   2.222   1.115  16.524
 5176TIP3    H165996   2.158   1.150  16.590
 5176TIP3    H265997   2.285   1.186  16.509
 5177TIP3   OH265998   3.086   0.340  16.676
 5177TIP3    H165999   3.106   0.382  16.589
 5177TIP3    H266000   3.147   0.385  16.734
 5178TIP3   OH266001   2.900   0.218  16.848
 5178TIP3    H166002   2.863   0.286  16.906
 5178TIP3    H266003   2.959   0.272  16.790
 5179TIP3   OH266004   2.122   0.639  16.330
 5179TIP3    H166005   2.114   0.734  16.347
 5179TIP3    H266006   2.031   0.619  16.307
 5180TIP3   OH266007   2.091   1.509  16.816
 5180TIP3    H166008   2.008   1.559  16.816
 5180TIP3    H266009   2.144   1.558  16.751
 5181TIP3   OH266010   2.015   1.776  17.950
 5181TIP3    H166011   2.076   1.754  18.022
 5181TIP3    H266012   1.974   1.692  17.928
 5182TIP3   OH266013   3.350   1.598  16.268
 5182TIP3    H166014   3.377   1.517  16.315
 5182TIP3    H266015   3.427   1.616  16.214
 5183TIP3   OH266016   2.009   1.154  18.045
 5183TIP3    H166017   2.026   1.063  18.016
 5183TIP3    H266018   1.932   1.180  17.993
 5184TIP3   OH266019   3.247   1.135  17.718
 5184TIP3    H166020   3.327   1.192  17.715
 5184TIP3    H266021   3.177   1.200  17.728
 5185TIP3   OH266022   2.082   0.869  17.984
 5185TIP3    H166023   2.138   0.791  17.973
 5185TIP3    H266024   2.077   0.876  18.082
 5186TIP3   OH266025   3.302   0.951  17.910
 5186TIP3    H166026   3.275   1.025  17.852
 5186TIP3    H266027   3.399   0.949  17.900
 5187TIP3   OH266028   2.191   0.423  17.991
 5187TIP3    H166029   2.207   0.348  17.933
 5187TIP3    H266030   2.178   0.379  18.076
 5188TIP3   OH266031   2.676   0.069  17.876
 5188TIP3    H166032   2.736  -0.008  17.882
 5188TIP3    H266033   2.651   0.061  17.784
 5189TIP3   OH266034   2.013   1.339  16.365
 5189TIP3    H166035   2.106   1.350  16.386
 5189TIP3    H266036   2.011   1.277  16.292
 5190TIP3   OH266037   1.887   1.874  16.862
 5190TIP3    H166038   1.812   1.833  16.817
 5190TIP3    H266039   1.914   1.811  16.931
 5191TIP3   OH266040   1.960   1.690  17.049
 5191TIP3    H166041   1.939   1.598  17.070
 5191TIP3    H266042   1.991   1.723  17.136
 5192TIP3   OH266043   3.719   1.767  17.353
 5192TIP3    H166044   3.717   1.788  17.447
 5192TIP3    H266045   3.785   1.826  17.316
 5193TIP3   OH266046   3.682   1.730  17.637
 5193TIP3    H166047   3.633   1.654  17.601
 5193TIP3    H266048   3.729   1.688  17.710
 5194TIP3   OH266049   3.524   1.305  18.100
 5194TIP3    H166050   3.438   1.296  18.141
 5194TIP3    H266051   3.559   1.382  18.150
 5195TIP3   OH266052   3.655   1.133  16.649
 5195TIP3    H166053   3.739   1.175  16.671
 5195TIP3    H266054   3.651   1.061  16.717
 5196TIP3   OH266055   3.687   0.941  16.837
 5196TIP3    H166056   3.616   0.890  16.880
 5196TIP3    H266057   3.748   0.957  16.911
 5197TIP3   OH266058   3.665   1.213  17.333
 5197TIP3    H166059   3.749   1.177  17.299
 5197TIP3    H266060   3.684   1.307  17.320
 5198TIP3   OH266061   3.519   1.502  17.558
 5198TIP3    H166062   3.454   1.536  17.621
 5198TIP3    H266063   3.466   1.458  17.489
 5199TIP3   OH266064   3.720   0.929  16.474
 5199TIP3    H166065   3.662   0.961  16.404
 5199TIP3    H266066   3.710   0.997  16.543
 5200TIP3   OH266067   3.560   0.645  16.332
 5200TIP3    H166068   3.563   0.714  16.264
 5200TIP3    H266069   3.538   0.566  16.282
 5201TIP3   OH266070   1.969   0.998  17.298
 5201TIP3    H166071   1.992   0.990  17.203
 5201TIP3    H266072   2.058   0.983  17.339
 5202TIP3   OH266073   3.557   0.985  17.861
 5202TIP3    H166074   3.620   0.911  17.878
 5202TIP3    H266075   3.617   1.062  17.861
 5203TIP3   OH266076   3.709   0.776  17.919
 5203TIP3    H166077   3.619   0.737  17.912
 5203TIP3    H266078   3.766   0.698  17.918
 5204TIP3   OH266079   3.438   0.547  16.741
 5204TIP3    H166080   3.468   0.455  16.752
 5204TIP3    H266081   3.517   0.588  16.705
 5205TIP3   OH266082   3.505   0.606  17.287
 5205TIP3    H166083   3.599   0.627  17.282
 5205TIP3    H266084   3.485   0.618  17.381
 5206TIP3   OH266085   3.509   0.677  17.561
 5206TIP3    H166086   3.422   0.706  17.595
 5206TIP3    H266087   3.552   0.762  17.539
 5207TIP3   OH266088   3.736   0.092  18.112
 5207TIP3    H166089   3.757   0.021  18.048
 5207TIP3    H266090   3.744   0.167  18.053
 5208TIP3   OH266091   3.506   0.272  16.740
 5208TIP3    H166092   3.522   0.234  16.830
 5208TIP3    H266093   3.440   0.212  16.700
 5209TIP3   OH266094   1.892   0.655  17.306
 5209TIP3    H166095   1.938   0.634  17.224
 5209TIP3    H266096   1.928   0.740  17.333
 5210TIP3   OH266097   3.689   0.291  17.930
 5210TIP3    H166098   3.594   0.313  17.933
 5210TIP3    H266099   3.693   0.232  17.853
 5211TIP3   OH266100   1.919   0.268  16.696
 5211TIP3    H166101   1.828   0.302  16.698
 5211TIP3    H266102   1.963   0.332  16.639
 5212TIP3   OH266103   2.132   1.469  17.957
 5212TIP3    H166104   2.052   1.494  17.911
 5212TIP3    H266105   2.108   1.464  18.050
 5213TIP3   OH266106   3.586   0.112  17.717
 5213TIP3    H166107   3.500   0.134  17.679
 5213TIP3    H266108   3.602   0.025  17.681
 5214TIP3   OH266109   2.114   1.758  17.275
 5214TIP3    H166110   2.106   1.717  17.363
 5214TIP3    H266111   2.196   1.721  17.241
 5215TIP3   OH266112   2.924   0.245  17.142
 5215TIP3    H166113   2.869   0.174  17.177
 5215TIP3    H266114   2.989   0.194  17.091
 5216TIP3   OH266115   3.423   0.051  17.106
 5216TIP3    H166116   3.497   0.114  17.095
 5216TIP3    H266117   3.345   0.103  17.128
 5217TIP3   OH266118   3.618   0.174  16.979
 5217TIP3    H166119   3.682   0.115  16.937
 5217TIP3    H266120   3.662   0.261  16.990
 5218TIP3   OH266121   2.044   0.096  16.504
 5218TIP3    H166122   2.092   0.156  16.446
 5218TIP3    H266123   1.983   0.150  16.557
 5219TIP3   OH266124   2.621   0.100  16.909
 5219TIP3    H166125   2.712   0.134  16.905
 5219TIP3    H266126   2.605   0.076  17.001
 5220TIP3   OH266127   3.165   0.106  17.072
 5220TIP3    H166128   3.184   0.109  16.978
 5220TIP3    H266129   3.150   0.011  17.086
 5221TIP3   OH266130   3.303   0.115  16.623
 5221TIP3    H166131   3.227   0.174  16.621
 5221TIP3    H266132   3.270   0.030  16.657
 5222TIP3   OH266133   2.036   1.680  16.599
 5222TIP3    H166134   1.967   1.677  16.531
 5222TIP3    H266135   2.035   1.773  16.624
 5223TIP3   OH266136   2.231   0.270  16.360
 5223TIP3    H166137   2.280   0.218  16.296
 5223TIP3    H266138   2.298   0.309  16.416
 5224TIP3   OH266139   3.595   1.759  16.709
 5224TIP3    H166140   3.574   1.680  16.654
 5224TIP3    H266141   3.587   1.832  16.646
 5225TIP3   OH266142   2.159   0.160  17.874
 5225TIP3    H166143   2.121   0.085  17.920
 5225TIP3    H266144   2.249   0.159  17.911
 5226TIP3   OH266145   2.360   0.094  18.044
 5226TIP3    H166146   2.446   0.065  18.011
 5226TIP3    H266147   2.316   0.013  18.073
 5227TIP3   OH266148   2.217   1.767  16.302
 5227TIP3    H166149   2.192   1.803  16.388
 5227TIP3    H266150   2.301   1.723  16.316
 5228TIP3   OH266151   3.201   0.034  18.056
 5228TIP3    H166152   3.205  -0.023  18.133
 5228TIP3    H266153   3.288   0.022  18.017
 5229TIP3   OH266154   3.517   1.631  17.922
 5229TIP3    H166155   3.435   1.616  17.874
 5229TIP3    H266156   3.509   1.727  17.942
 5230TIP3   OH266157   4.960   1.021  16.923
 5230TIP3    H166158   4.961   1.117  16.907
 5230TIP3    H266159   4.891   0.993  16.860
 5231TIP3   OH266160   4.084   0.908  17.420
 5231TIP3    H166161   4.089   0.848  17.495
 5231TIP3    H266162   4.156   0.970  17.442
 5232TIP3   OH266163   3.842   0.715  16.817
 5232TIP3    H166164   3.795   0.799  16.813
 5232TIP3    H266165   3.784   0.657  16.765
 5233TIP3   OH266166   4.925   1.756  17.119
 5233TIP3    H166167   4.991   1.687  17.091
 5233TIP3    H266168   4.906   1.723  17.207
 5234TIP3   OH266169   4.684   1.188  17.311
 5234TIP3    H166170   4.718   1.124  17.247
 5234TIP3    H266171   4.762   1.201  17.368
 5235TIP3   OH266172   4.492   0.835  17.069
 5235TIP3    H166173   4.558   0.779  17.113
 5235TIP3    H266174   4.441   0.768  17.020
 5236TIP3   OH266175   4.936   1.281  16.828
 5236TIP3    H166176   4.903   1.251  16.742
 5236TIP3    H266177   4.901   1.373  16.830
 5237TIP3   OH266178   4.454   1.093  17.495
 5237TIP3    H166179   4.385   1.160  17.515
 5237TIP3    H266180   4.526   1.151  17.467
 5238TIP3   OH266181   4.300   1.297  17.581
 5238TIP3    H166182   4.296   1.383  17.538
 5238TIP3    H266183   4.209   1.288  17.620
 5239TIP3   OH266184   3.908   1.261  16.654
 5239TIP3    H166185   3.881   1.292  16.565
 5239TIP3    H266186   3.914   1.343  16.705
 5240TIP3   OH266187   5.298   0.257  17.478
 5240TIP3    H166188   5.223   0.313  17.460
 5240TIP3    H266189   5.366   0.289  17.418
 5241TIP3   OH266190   5.091   1.603  16.988
 5241TIP3    H166191   5.140   1.531  16.944
 5241TIP3    H266192   5.137   1.680  16.949
 5242TIP3   OH266193   5.216   1.395  16.841
 5242TIP3    H166194   5.184   1.326  16.780
 5242TIP3    H266195   5.219   1.349  16.926
 5243TIP3   OH266196   4.830   0.945  16.668
 5243TIP3    H166197   4.758   1.001  16.633
 5243TIP3    H266198   4.899   0.955  16.601
 5244TIP3   OH266199   4.334   1.030  16.952
 5244TIP3    H166200   4.300   0.993  16.867
 5244TIP3    H266201   4.397   0.961  16.983
 5245TIP3   OH266202   4.470   1.370  17.216
 5245TIP3    H166203   4.464   1.314  17.139
 5245TIP3    H266204   4.544   1.332  17.267
 5246TIP3   OH266205   4.368   0.907  17.317
 5246TIP3    H166206   4.425   0.917  17.238
 5246TIP3    H266207   4.407   0.972  17.380
 5247TIP3   OH266208   4.462   1.345  17.789
 5247TIP3    H166209   4.421   1.421  17.835
 5247TIP3    H266210   4.396   1.326  17.717
 5248TIP3   OH266211   4.826   1.556  16.877
 5248TIP3    H166212   4.875   1.586  16.955
 5248TIP3    H266213   4.774   1.633  16.852
 5249TIP3   OH266214   4.277   1.537  17.858
 5249TIP3    H166215   4.275   1.540  17.763
 5249TIP3    H266216   4.186   1.538  17.885
 5250TIP3   OH266217   5.429   0.059  16.517
 5250TIP3    H166218   5.335   0.074  16.541
 5250TIP3    H266219   5.456   0.142  16.474
 5251TIP3   OH266220   4.230   0.936  16.715
 5251TIP3    H166221   4.203   1.010  16.659
 5251TIP3    H266222   4.166   0.868  16.689
 5252TIP3   OH266223   5.545   1.492  16.350
 5252TIP3    H166224   5.553   1.587  16.369
 5252TIP3    H266225   5.637   1.463  16.349
 5253TIP3   OH266226   3.840   1.176  17.601
 5253TIP3    H166227   3.792   1.168  17.517
 5253TIP3    H266228   3.847   1.081  17.625
 5254TIP3   OH266229   3.815   1.444  17.287
 5254TIP3    H166230   3.911   1.439  17.277
 5254TIP3    H266231   3.804   1.530  17.330
 5255TIP3   OH266232   5.626   1.518  17.828
 5255TIP3    H166233   5.630   1.426  17.854
 5255TIP3    H266234   5.556   1.546  17.891
 5256TIP3   OH266235   4.733   1.473  17.741
 5256TIP3    H166236   4.738   1.560  17.787
 5256TIP3    H266237   4.643   1.442  17.759
 5257TIP3   OH266238   4.778   1.849  16.716
 5257TIP3    H166239   4.771   1.842  16.619
 5257TIP3    H266240   4.779   1.945  16.731
 5258TIP3   OH266241   5.081   1.770  16.411
 5258TIP3    H166242   5.128   1.693  16.373
 5258TIP3    H266243   5.089   1.741  16.504
 5259TIP3   OH266244   5.053   1.762  16.690
 5259TIP3    H166245   4.958   1.769  16.711
 5259TIP3    H266246   5.079   1.687  16.745
 5260TIP3   OH266247   4.066   1.311  17.700
 5260TIP3    H166248   4.089   1.263  17.783
 5260TIP3    H266249   3.982   1.267  17.673
 5261TIP3   OH266250   5.125   0.495  17.716
 5261TIP3    H166251   5.070   0.481  17.797
 5261TIP3    H266252   5.110   0.587  17.694
 5262TIP3   OH266253   4.874   0.702  16.756
 5262TIP3    H166254   4.849   0.797  16.747
 5262TIP3    H266255   4.961   0.702  16.717
 5263TIP3   OH266256   3.772   0.391  16.978
 5263TIP3    H166257   3.837   0.391  17.048
 5263TIP3    H266258   3.819   0.352  16.902
 5264TIP3   OH266259   3.899   0.465  16.523
 5264TIP3    H166260   3.949   0.525  16.465
 5264TIP3    H266261   3.829   0.524  16.556
 5265TIP3   OH266262   4.595   0.425  17.003
 5265TIP3    H166263   4.504   0.418  17.035
 5265TIP3    H266264   4.646   0.403  17.083
 5266TIP3   OH266265   5.037   0.330  17.328
 5266TIP3    H166266   4.969   0.352  17.396
 5266TIP3    H266267   4.984   0.321  17.248
 5267TIP3   OH266268   4.312   0.696  16.414
 5267TIP3    H166269   4.254   0.663  16.343
 5267TIP3    H266270   4.394   0.717  16.368
 5268TIP3   OH266271   5.355   1.908  17.965
 5268TIP3    H166272   5.385   1.943  17.878
 5268TIP3    H266273   5.432   1.934  18.020
 5269TIP3   OH266274   4.125   1.162  17.917
 5269TIP3    H166275   4.197   1.173  17.981
 5269TIP3    H266276   4.046   1.166  17.975
 5270TIP3   OH266277   4.589   0.528  17.438
 5270TIP3    H166278   4.507   0.577  17.446
 5270TIP3    H266279   4.643   0.561  17.511
 5271TIP3   OH266280   4.650   1.147  16.604
 5271TIP3    H166281   4.570   1.102  16.572
 5271TIP3    H266282   4.628   1.160  16.698
 5272TIP3   OH266283   4.795   1.171  17.729
 5272TIP3    H166284   4.761   1.138  17.812
 5272TIP3    H266285   4.777   1.266  17.734
 5273TIP3   OH266286   4.151   1.081  17.178
 5273TIP3    H166287   4.229   1.082  17.119
 5273TIP3    H266288   4.167   1.003  17.232
 5274TIP3   OH266289   3.858   0.929  17.710
 5274TIP3    H166290   3.877   0.886  17.796
 5274TIP3    H266291   3.795   0.866  17.670
 5275TIP3   OH266292   4.562   0.883  17.931
 5275TIP3    H166293   4.529   0.860  17.844
 5275TIP3    H266294   4.652   0.852  17.930
 5276TIP3   OH266295   5.023   1.417  17.725
 5276TIP3    H166296   4.933   1.439  17.697
 5276TIP3    H266297   5.024   1.448  17.816
 5277TIP3   OH266298   5.479   1.495  16.632
 5277TIP3    H166299   5.393   1.452  16.645
 5277TIP3    H266300   5.458   1.510  16.537
 5278TIP3   OH266301   4.396   1.432  16.922
 5278TIP3    H166302   4.447   1.511  16.903
 5278TIP3    H266303   4.308   1.456  16.891
 5279TIP3   OH266304   3.970   0.922  16.373
 5279TIP3    H166305   4.032   0.980  16.420
 5279TIP3    H266306   3.884   0.948  16.410
 5280TIP3   OH266307   4.538   1.197  16.878
 5280TIP3    H166308   4.510   1.290  16.884
 5280TIP3    H266309   4.462   1.152  16.918
 5281TIP3   OH266310   4.583   1.616  17.518
 5281TIP3    H166311   4.624   1.698  17.487
 5281TIP3    H266312   4.646   1.583  17.583
 5282TIP3   OH266313   4.931   1.215  17.472
 5282TIP3    H166314   4.905   1.208  17.565
 5282TIP3    H266315   5.004   1.153  17.466
 5283TIP3   OH266316   5.137   1.266  16.380
 5283TIP3    H166317   5.190   1.286  16.459
 5283TIP3    H266318   5.058   1.316  16.400
 5284TIP3   OH266319   5.210   1.682  17.730
 5284TIP3    H166320   5.150   1.624  17.679
 5284TIP3    H266321   5.233   1.745  17.660
 5285TIP3   OH266322   5.618   1.764  16.412
 5285TIP3    H166323   5.685   1.830  16.389
 5285TIP3    H266324   5.542   1.819  16.439
 5286TIP3   OH266325   4.107   1.112  16.527
 5286TIP3    H166326   4.042   1.153  16.587
 5286TIP3    H266327   4.165   1.187  16.505
 5287TIP3   OH266328   4.896   0.375  17.558
 5287TIP3    H166329   4.965   0.386  17.624
 5287TIP3    H266330   4.858   0.289  17.576
 5288TIP3   OH266331   4.975   0.338  16.665
 5288TIP3    H166332   4.992   0.394  16.589
 5288TIP3    H266333   5.023   0.381  16.736
 5289TIP3   OH266334   4.737   1.553  16.550
 5289TIP3    H166335   4.657   1.605  16.557
 5289TIP3    H266336   4.796   1.604  16.493
 5290TIP3   OH266337   5.370   0.405  17.754
 5290TIP3    H166338   5.275   0.430  17.742
 5290TIP3    H266339   5.399   0.402  17.662
 5291TIP3   OH266340   4.171   1.366  16.423
 5291TIP3    H166341   4.227   1.441  16.445
 5291TIP3    H266342   4.217   1.331  16.345
 5292TIP3   OH266343   3.998   0.647  16.326
 5292TIP3    H166344   3.997   0.741  16.347
 5292TIP3    H266345   3.910   0.623  16.300
 5293TIP3   OH266346   5.340   1.712  17.325
 5293TIP3    H166347   5.325   1.777  17.255
 5293TIP3    H266348   5.436   1.716  17.341
 5294TIP3   OH266349   5.018   1.507  17.978
 5294TIP3    H166350   4.991   1.417  18.002
 5294TIP3    H266351   5.095   1.521  18.036
 5295TIP3   OH266352   5.232   1.599  16.212
 5295TIP3    H166353   5.245   1.539  16.289
 5295TIP3    H266354   5.323   1.629  16.206
 5296TIP3   OH266355   3.893   1.152  18.045
 5296TIP3    H166356   3.907   1.061  18.015
 5296TIP3    H266357   3.818   1.181  17.990
 5297TIP3   OH266358   4.565   1.150  17.985
 5297TIP3    H166359   4.531   1.182  17.899
 5297TIP3    H266360   4.570   1.053  17.973
 5298TIP3   OH266361   3.981   0.878  17.985
 5298TIP3    H166362   4.020   0.791  17.974
 5298TIP3    H266363   3.958   0.877  18.081
 5299TIP3   OH266364   4.446   0.990  16.491
 5299TIP3    H166365   4.396   0.935  16.554
 5299TIP3    H266366   4.473   0.921  16.426
 5300TIP3   OH266367   4.555   0.806  16.313
 5300TIP3    H166368   4.542   0.789  16.219
 5300TIP3    H266369   4.652   0.819  16.318
 5301TIP3   OH266370   4.930   0.436  17.891
 5301TIP3    H166371   4.835   0.442  17.903
 5301TIP3    H266372   4.958   0.373  17.959
 5302TIP3   OH266373   3.896   1.342  16.366
 5302TIP3    H166374   3.991   1.350  16.387
 5302TIP3    H266375   3.898   1.279  16.293
 5303TIP3   OH266376   5.609   1.772  17.345
 5303TIP3    H166377   5.609   1.787  17.441
 5303TIP3    H266378   5.681   1.829  17.315
 5304TIP3   OH266379   5.566   1.725  17.634
 5304TIP3    H166380   5.513   1.651  17.604
 5304TIP3    H266381   5.613   1.685  17.710
 5305TIP3   OH266382   5.409   1.307  18.098
 5305TIP3    H166383   5.326   1.296  18.142
 5305TIP3    H266384   5.450   1.380  18.149
 5306TIP3   OH266385   5.549   1.138  16.654
 5306TIP3    H166386   5.632   1.180  16.674
 5306TIP3    H266387   5.542   1.068  16.719
 5307TIP3   OH266388   3.858   0.998  17.297
 5307TIP3    H166389   3.881   0.992  17.203
 5307TIP3    H266390   3.945   0.982  17.337
 5308TIP3   OH266391   5.373   0.378  16.239
 5308TIP3    H166392   5.432   0.349  16.311
 5308TIP3    H266393   5.285   0.352  16.265
 5309TIP3   OH266394   3.820   0.532  17.919
 5309TIP3    H166395   3.912   0.508  17.929
 5309TIP3    H266396   3.775   0.448  17.943
 5310TIP3   OH266397   5.619   0.100  18.091
 5310TIP3    H166398   5.649   0.026  18.035
 5310TIP3    H266399   5.638   0.176  18.035
 5311TIP3   OH266400   5.388   0.277  16.725
 5311TIP3    H166401   5.406   0.239  16.816
 5311TIP3    H266402   5.323   0.212  16.695
 5312TIP3   OH266403   5.574   0.294  17.920
 5312TIP3    H166404   5.479   0.313  17.922
 5312TIP3    H266405   5.577   0.224  17.853
 5313TIP3   OH266406   5.575   0.279  16.402
 5313TIP3    H166407   5.615   0.209  16.349
 5313TIP3    H266408   5.641   0.350  16.397
 5314TIP3   OH266409   3.802   0.278  16.712
 5314TIP3    H166410   3.710   0.300  16.697
 5314TIP3    H266411   3.849   0.326  16.640
 5315TIP3   OH266412   5.280   1.775  16.908
 5315TIP3    H166413   5.346   1.748  16.841
 5315TIP3    H266414   5.331   1.827  16.971
 5316TIP3   OH266415   3.803   0.153  17.543
 5316TIP3    H166416   3.735   0.135  17.608
 5316TIP3    H266417   3.758   0.219  17.485
 5317TIP3   OH266418   4.749   1.705  17.874
 5317TIP3    H166419   4.760   1.680  17.967
 5317TIP3    H266420   4.834   1.745  17.849
 5318TIP3   OH266421   4.977   1.837  17.805
 5318TIP3    H166422   5.050   1.777  17.781
 5318TIP3    H266423   5.013   1.880  17.886
 5319TIP3   OH266424   5.462   0.087  17.729
 5319TIP3    H166425   5.392   0.130  17.677
 5319TIP3    H266426   5.493   0.020  17.667
 5320TIP3   OH266427   4.775   1.846  17.411
 5320TIP3    H166428   4.724   1.893  17.345
 5320TIP3    H266429   4.786   1.906  17.485
 5321TIP3   OH266430   5.004   1.729  17.511
 5321TIP3    H166431   4.916   1.750  17.476
 5321TIP3    H266432   5.052   1.811  17.502
 5322TIP3   OH266433   5.265   1.885  17.533
 5322TIP3    H166434   5.254   1.980  17.511
 5322TIP3    H266435   5.280   1.842  17.447
 5323TIP3   OH266436   5.330   0.059  17.162
 5323TIP3    H166437   5.386   0.102  17.097
 5323TIP3    H266438   5.242   0.082  17.130
 5324TIP3   OH266439   5.469   0.184  16.941
 5324TIP3    H166440   5.538   0.114  16.937
 5324TIP3    H266441   5.523   0.259  16.975
 5325TIP3   OH266442   5.187   0.115  16.622
 5325TIP3    H166443   5.110   0.173  16.625
 5325TIP3    H266444   5.157   0.029  16.657
 5326TIP3   OH266445   4.802   1.805  16.437
 5326TIP3    H166446   4.896   1.828  16.421
 5326TIP3    H266447   4.786   1.757  16.356
 5327TIP3   OH266448   5.476   1.759  16.710
 5327TIP3    H166449   5.460   1.679  16.655
 5327TIP3    H266450   5.470   1.830  16.643
 5328TIP3   OH266451   5.082   0.030  18.053
 5328TIP3    H166452   5.092  -0.021  18.134
 5328TIP3    H266453   5.172   0.024  18.017
 5329TIP3   OH266454   5.398   1.633  17.922
 5329TIP3    H166455   5.322   1.617  17.862
 5329TIP3    H266456   5.389   1.728  17.941
 5330TIP3   OH266457   7.094   1.248  17.091
 5330TIP3    H166458   7.072   1.169  17.141
 5330TIP3    H266459   7.106   1.313  17.164
 5331TIP3   OH266460   6.052   1.346  17.298
 5331TIP3    H166461   6.023   1.274  17.241
 5331TIP3    H266462   6.147   1.341  17.283
 5332TIP3   OH266463   5.798   0.937  17.032
 5332TIP3    H166464   5.818   0.856  17.082
 5332TIP3    H266465   5.869   0.944  16.967
 5333TIP3   OH266466   6.813   1.756  17.118
 5333TIP3    H166467   6.877   1.686  17.090
 5333TIP3    H266468   6.792   1.726  17.206
 5334TIP3   OH266469   7.428   0.349  17.386
 5334TIP3    H166470   7.448   0.408  17.463
 5334TIP3    H266471   7.485   0.392  17.320
 5335TIP3   OH266472   6.897   0.633  17.341
 5335TIP3    H166473   6.899   0.535  17.344
 5335TIP3    H266474   6.873   0.646  17.249
 5336TIP3   OH266475   6.199   0.450  17.067
 5336TIP3    H166476   6.207   0.531  17.018
 5336TIP3    H266477   6.166   0.388  16.999
 5337TIP3   OH266478   6.972   0.450  16.901
 5337TIP3    H166479   7.036   0.420  16.970
 5337TIP3    H266480   7.028   0.506  16.846
 5338TIP3   OH266481   5.863   0.685  17.140
 5338TIP3    H166482   5.927   0.629  17.186
 5338TIP3    H266483   5.870   0.652  17.050
 5339TIP3   OH266484   7.475   0.489  17.612
 5339TIP3    H166485   7.414   0.565  17.604
 5339TIP3    H266486   7.481   0.478  17.708
 5340TIP3   OH266487   6.087   0.348  17.490
 5340TIP3    H166488   6.062   0.384  17.401
 5340TIP3    H266489   6.012   0.365  17.546
 5341TIP3   OH266490   6.817   1.280  16.828
 5341TIP3    H166491   6.792   1.251  16.740
 5341TIP3    H266492   6.786   1.374  16.829
 5342TIP3   OH266493   7.153   0.382  17.103
 5342TIP3    H166494   7.129   0.305  17.155
 5342TIP3    H266495   7.218   0.428  17.159
 5343TIP3   OH266496   6.043   0.522  17.269
 5343TIP3    H166497   6.106   0.584  17.308
 5343TIP3    H266498   6.103   0.473  17.205
 5344TIP3   OH266499   6.184   1.297  17.577
 5344TIP3    H166500   6.179   1.385  17.539
 5344TIP3    H266501   6.097   1.288  17.622
 5345TIP3   OH266502   5.797   1.260  16.655
 5345TIP3    H166503   5.761   1.288  16.569
 5345TIP3    H266504   5.796   1.343  16.707
 5346TIP3   OH266505   7.157   1.425  17.329
 5346TIP3    H166506   7.061   1.435  17.342
 5346TIP3    H266507   7.183   1.517  17.312
 5347TIP3   OH266508   7.188   0.250  17.475
 5347TIP3    H166509   7.114   0.312  17.463
 5347TIP3    H266510   7.257   0.292  17.419
 5348TIP3   OH266511   6.553   0.018  17.175
 5348TIP3    H166512   6.498  -0.058  17.195
 5348TIP3    H266513   6.475   0.075  17.197
 5349TIP3   OH266514   6.983   1.605  16.994
 5349TIP3    H166515   7.021   1.531  16.941
 5349TIP3    H266516   7.023   1.682  16.950
 5350TIP3   OH266517   7.104   1.396  16.846
 5350TIP3    H166518   7.074   1.329  16.782
 5350TIP3    H266519   7.105   1.344  16.929
 5351TIP3   OH266520   7.262   1.253  17.692
 5351TIP3    H166521   7.278   1.192  17.620
 5351TIP3    H266522   7.281   1.338  17.649
 5352TIP3   OH266523   7.442   0.884  17.492
 5352TIP3    H166524   7.389   0.964  17.501
 5352TIP3    H266525   7.497   0.909  17.416
 5353TIP3   OH266526   7.058   0.969  16.760
 5353TIP3    H166527   6.985   0.991  16.819
 5353TIP3    H266528   7.105   0.900  16.809
 5354TIP3   OH266529   6.891   1.456  17.389
 5354TIP3    H166530   6.865   1.525  17.451
 5354TIP3    H266531   6.866   1.376  17.436
 5355TIP3   OH266532   6.038   0.967  17.704
 5355TIP3    H166533   6.044   1.029  17.776
 5355TIP3    H266534   5.946   0.972  17.680
 5356TIP3   OH266535   6.717   1.556  16.874
 5356TIP3    H166536   6.756   1.586  16.956
 5356TIP3    H266537   6.658   1.629  16.851
 5357TIP3   OH266538   6.171   1.556  17.864
 5357TIP3    H166539   6.167   1.542  17.770
 5357TIP3    H266540   6.079   1.540  17.891
 5358TIP3   OH266541   7.316   0.055  16.517
 5358TIP3    H166542   7.222   0.069  16.545
 5358TIP3    H266543   7.337   0.138  16.475
 5359TIP3   OH266544   7.427   1.494  16.350
 5359TIP3    H166545   7.441   1.589  16.366
 5359TIP3    H266546   7.517   1.460  16.350
 5360TIP3   OH266547   5.701   1.453  17.277
 5360TIP3    H166548   5.796   1.435  17.280
 5360TIP3    H266549   5.692   1.532  17.332
 5361TIP3   OH266550   7.527   1.518  17.846
 5361TIP3    H166551   7.513   1.422  17.848
 5361TIP3    H266552   7.441   1.545  17.887
 5362TIP3   OH266553   6.665   1.849  16.715
 5362TIP3    H166554   6.655   1.840  16.619
 5362TIP3    H266555   6.665   1.944  16.731
 5363TIP3   OH266556   6.029   1.731  16.897
 5363TIP3    H166557   6.040   1.691  16.985
 5363TIP3    H266558   5.940   1.699  16.873
 5364TIP3   OH266559   6.967   1.766  16.411
 5364TIP3    H166560   7.011   1.689  16.377
 5364TIP3    H266561   6.971   1.745  16.507
 5365TIP3   OH266562   6.937   1.760  16.689
 5365TIP3    H166563   6.842   1.768  16.710
 5365TIP3    H266564   6.963   1.689  16.749
 5366TIP3   OH266565   7.240   0.668  17.894
 5366TIP3    H166566   7.192   0.715  17.826
 5366TIP3    H266567   7.239   0.576  17.865
 5367TIP3   OH266568   5.952   1.300  17.694
 5367TIP3    H166569   5.971   1.279  17.787
 5367TIP3    H266570   5.862   1.268  17.680
 5368TIP3   OH266571   6.157   0.282  17.260
 5368TIP3    H166572   6.133   0.188  17.251
 5368TIP3    H266573   6.201   0.267  17.345
 5369TIP3   OH266574   6.681   0.127  17.632
 5369TIP3    H166575   6.726   0.082  17.705
 5369TIP3    H266576   6.589   0.099  17.650
 5370TIP3   OH266577   7.014   0.499  17.719
 5370TIP3    H166578   6.957   0.484  17.799
 5370TIP3    H266579   6.990   0.589  17.694
 5371TIP3   OH266580   6.684   0.362  16.359
 5371TIP3    H166581   6.641   0.377  16.446
 5371TIP3    H266582   6.626   0.291  16.329
 5372TIP3   OH266583   5.993   0.687  17.585
 5372TIP3    H166584   5.994   0.724  17.673
 5372TIP3    H266585   5.958   0.599  17.605
 5373TIP3   OH266586   5.603   0.419  16.964
 5373TIP3    H166587   5.663   0.425  17.041
 5373TIP3    H266588   5.668   0.377  16.903
 5374TIP3   OH266589   6.483   0.444  17.013
 5374TIP3    H166590   6.392   0.414  17.034
 5374TIP3    H266591   6.533   0.407  17.087
 5375TIP3   OH266592   5.965   0.591  16.880
 5375TIP3    H166593   5.873   0.588  16.853
 5375TIP3    H266594   5.994   0.501  16.855
 5376TIP3   OH266595   6.925   0.336  17.327
 5376TIP3    H166596   6.856   0.345  17.396
 5376TIP3    H266597   6.872   0.315  17.247
 5377TIP3   OH266598   7.243   1.905  17.964
 5377TIP3    H166599   7.270   1.943  17.878
 5377TIP3    H266600   7.315   1.939  18.018
 5378TIP3   OH266601   6.118   0.349  16.852
 5378TIP3    H166602   6.073   0.261  16.848
 5378TIP3    H266603   6.190   0.318  16.798
 5379TIP3   OH266604   6.481   0.561  17.436
 5379TIP3    H166605   6.390   0.587  17.457
 5379TIP3    H266606   6.530   0.567  17.520
 5380TIP3   OH266607   6.927   0.431  16.424
 5380TIP3    H166608   6.830   0.439  16.405
 5380TIP3    H266609   6.946   0.520  16.457
 5381TIP3   OH266610   6.989   0.627  16.591
 5381TIP3    H166611   7.079   0.609  16.625
 5381TIP3    H266612   7.001   0.704  16.536
 5382TIP3   OH266613   6.911   1.421  17.720
 5382TIP3    H166614   6.819   1.431  17.697
 5382TIP3    H266615   6.912   1.445  17.815
 5383TIP3   OH266616   7.473   0.639  16.565
 5383TIP3    H166617   7.427   0.604  16.488
 5383TIP3    H266618   7.488   0.732  16.535
 5384TIP3   OH266619   7.472   1.228  17.847
 5384TIP3    H166620   7.384   1.244  17.804
 5384TIP3    H266621   7.523   1.216  17.765
 5385TIP3   OH266622   7.311   1.521  16.603
 5385TIP3    H166623   7.273   1.439  16.636
 5385TIP3    H266624   7.339   1.498  16.512
 5386TIP3   OH266625   5.859   0.931  16.371
 5386TIP3    H166626   5.923   0.982  16.423
 5386TIP3    H266627   5.774   0.952  16.410
 5387TIP3   OH266628   6.289   1.700  16.830
 5387TIP3    H166629   6.193   1.716  16.840
 5387TIP3    H266630   6.327   1.783  16.862
 5388TIP3   OH266631   7.098   1.677  17.727
 5388TIP3    H166632   7.032   1.627  17.676
 5388TIP3    H266633   7.121   1.746  17.661
 5389TIP3   OH266634   7.500   1.765  16.409
 5389TIP3    H166635   7.572   1.827  16.392
 5389TIP3    H266636   7.428   1.823  16.442
 5390TIP3   OH266637   5.955   0.457  17.693
 5390TIP3    H166638   5.860   0.465  17.670
 5390TIP3    H266639   5.945   0.363  17.721
 5391TIP3   OH266640   7.133   1.191  16.613
 5391TIP3    H166641   7.106   1.111  16.662
 5391TIP3    H266642   7.228   1.194  16.631
 5392TIP3   OH266643   5.873   1.583  17.508
 5392TIP3    H166644   5.896   1.489  17.510
 5392TIP3    H266645   5.894   1.611  17.598
 5393TIP3   OH266646   5.989   1.118  16.516
 5393TIP3    H166647   5.930   1.148  16.589
 5393TIP3    H266648   6.054   1.189  16.507
 5394TIP3   OH266649   6.782   0.379  17.561
 5394TIP3    H166650   6.849   0.385  17.630
 5394TIP3    H266651   6.744   0.290  17.579
 5395TIP3   OH266652   6.865   0.332  16.672
 5395TIP3    H166653   6.878   0.384  16.591
 5395TIP3    H266654   6.909   0.385  16.739
 5396TIP3   OH266655   6.627   1.559  16.557
 5396TIP3    H166656   6.541   1.603  16.559
 5396TIP3    H266657   6.675   1.602  16.488
 5397TIP3   OH266658   6.572   0.532  16.754
 5397TIP3    H166659   6.662   0.566  16.758
 5397TIP3    H266660   6.553   0.499  16.844
 5398TIP3   OH266661   6.634   0.606  17.666
 5398TIP3    H166662   6.642   0.664  17.744
 5398TIP3    H266663   6.703   0.541  17.681
 5399TIP3   OH266664   6.679   0.216  16.850
 5399TIP3    H166665   6.632   0.282  16.904
 5399TIP3    H266666   6.734   0.274  16.794
 5400TIP3   OH266667   6.360   1.658  16.556
 5400TIP3    H166668   6.378   1.738  16.503
 5400TIP3    H266669   6.337   1.692  16.645
 5401TIP3   OH266670   6.153   0.403  16.499
 5401TIP3    H166671   6.200   0.465  16.554
 5401TIP3    H266672   6.234   0.347  16.505
 5402TIP3   OH266673   7.253   0.404  17.754
 5402TIP3    H166674   7.158   0.431  17.743
 5402TIP3    H266675   7.282   0.399  17.662
 5403TIP3   OH266676   7.220   1.706  17.326
 5403TIP3    H166677   7.210   1.773  17.255
 5403TIP3    H266678   7.317   1.712  17.341
 5404TIP3   OH266679   6.021   0.037  17.069
 5404TIP3    H166680   5.985   0.130  17.069
 5404TIP3    H266681   5.966   0.023  17.148
 5405TIP3   OH266682   5.851   1.511  16.809
 5405TIP3    H166683   5.771   1.564  16.811
 5405TIP3    H266684   5.909   1.560  16.750
 5406TIP3   OH266685   5.780   1.838  17.929
 5406TIP3    H166686   5.831   1.794  18.001
 5406TIP3    H266687   5.733   1.755  17.913
 5407TIP3   OH266688   6.255   1.669  18.107
 5407TIP3    H166689   6.327   1.617  18.143
 5407TIP3    H266690   6.248   1.638  18.015
 5408TIP3   OH266691   6.903   1.502  17.980
 5408TIP3    H166692   6.874   1.415  18.010
 5408TIP3    H266693   6.980   1.520  18.039
 5409TIP3   OH266694   5.783   1.152  18.045
 5409TIP3    H166695   5.796   1.061  18.013
 5409TIP3    H266696   5.703   1.179  17.997
 5410TIP3   OH266697   5.870   0.874  17.985
 5410TIP3    H166698   5.909   0.785  17.975
 5410TIP3    H266699   5.845   0.875  18.079
 5411TIP3   OH266700   6.327   0.555  17.820
 5411TIP3    H166701   6.314   0.467  17.774
 5411TIP3    H266702   6.294   0.610  17.751
 5412TIP3   OH266703   6.311   0.419  17.596
 5412TIP3    H166704   6.387   0.397  17.536
 5412TIP3    H266705   6.249   0.354  17.556
 5413TIP3   OH266706   6.933   0.668  18.104
 5413TIP3    H166707   6.953   0.575  18.097
 5413TIP3    H266708   7.018   0.714  18.106
 5414TIP3   OH266709   7.070   0.951  17.920
 5414TIP3    H166710   7.037   1.019  17.858
 5414TIP3    H266711   7.165   0.949  17.898
 5415TIP3   OH266712   6.143   0.632  18.021
 5415TIP3    H166713   6.067   0.573  18.001
 5415TIP3    H266714   6.211   0.602  17.958
 5416TIP3   OH266715   6.433   0.055  17.655
 5416TIP3    H166716   6.413   0.154  17.652
 5416TIP3    H266717   6.355   0.040  17.599
 5417TIP3   OH266718   6.550   0.519  17.980
 5417TIP3    H166719   6.520   0.502  18.070
 5417TIP3    H266720   6.468   0.507  17.929
 5418TIP3   OH266721   6.819   0.435  17.886
 5418TIP3    H166722   6.723   0.445  17.906
 5418TIP3    H266723   6.846   0.379  17.960
 5419TIP3   OH266724   6.970   0.303  18.083
 5419TIP3    H166725   6.970   0.205  18.085
 5419TIP3    H266726   6.948   0.329  18.176
 5420TIP3   OH266727   5.950   0.431  17.996
 5420TIP3    H166728   5.981   0.357  17.939
 5420TIP3    H266729   5.945   0.382  18.082
 5421TIP3   OH266730   6.484   0.031  17.877
 5421TIP3    H166731   6.519  -0.057  17.878
 5421TIP3    H266732   6.436   0.034  17.795
 5422TIP3   OH266733   6.487   0.263  18.014
 5422TIP3    H166734   6.476   0.168  17.999
 5422TIP3    H266735   6.422   0.285  18.083
 5423TIP3   OH266736   6.423   1.882  16.413
 5423TIP3    H166737   6.520   1.889  16.428
 5423TIP3    H266738   6.407   1.951  16.350
 5424TIP3   OH266739   5.789   1.343  16.361
 5424TIP3    H166740   5.881   1.346  16.388
 5424TIP3    H266741   5.783   1.276  16.292
 5425TIP3   OH266742   5.655   1.879  16.863
 5425TIP3    H166743   5.584   1.831  16.816
 5425TIP3    H266744   5.684   1.814  16.929
 5426TIP3   OH266745   5.737   1.691  17.050
 5426TIP3    H166746   5.704   1.602  17.071
 5426TIP3    H266747   5.763   1.725  17.137
 5427TIP3   OH266748   7.489   1.770  17.344
 5427TIP3    H166749   7.494   1.788  17.440
 5427TIP3    H266750   7.560   1.828  17.312
 5428TIP3   OH266751   7.448   1.729  17.637
 5428TIP3    H166752   7.401   1.651  17.600
 5428TIP3    H266753   7.499   1.687  17.709
 5429TIP3   OH266754   7.427   1.134  16.646
 5429TIP3    H166755   7.512   1.175  16.670
 5429TIP3    H266756   7.423   1.065  16.717
 5430TIP3   OH266757   7.463   0.940  16.830
 5430TIP3    H166758   7.388   0.892  16.871
 5430TIP3    H266759   7.514   0.962  16.911
 5431TIP3   OH266760   7.439   1.213  17.327
 5431TIP3    H166761   7.521   1.177  17.295
 5431TIP3    H266762   7.450   1.309  17.318
 5432TIP3   OH266763   7.295   1.503  17.565
 5432TIP3    H166764   7.223   1.535  17.622
 5432TIP3    H266765   7.241   1.462  17.494
 5433TIP3   OH266766   7.454   0.921  16.490
 5433TIP3    H166767   7.434   0.961  16.405
 5433TIP3    H266768   7.482   0.998  16.544
 5434TIP3   OH266769   7.248   0.787  16.892
 5434TIP3    H166770   7.227   0.692  16.888
 5434TIP3    H266771   7.209   0.814  16.975
 5435TIP3   OH266772   5.747   1.003  17.296
 5435TIP3    H166773   5.762   0.986  17.201
 5435TIP3    H266774   5.832   0.981  17.335
 5436TIP3   OH266775   7.328   0.988  17.865
 5436TIP3    H166776   7.389   0.911  17.878
 5436TIP3    H266777   7.387   1.064  17.862
 5437TIP3   OH266778   7.474   0.779  17.926
 5437TIP3    H166779   7.390   0.733  17.913
 5437TIP3    H266780   7.537   0.704  17.920
 5438TIP3   OH266781   7.250   0.385  16.235
 5438TIP3    H166782   7.307   0.356  16.307
 5438TIP3    H266783   7.162   0.351  16.259
 5439TIP3   OH266784   7.210   0.546  16.741
 5439TIP3    H166785   7.242   0.454  16.753
 5439TIP3    H266786   7.288   0.588  16.702
 5440TIP3   OH266787   7.269   0.605  17.283
 5440TIP3    H166788   7.366   0.627  17.282
 5440TIP3    H266789   7.251   0.618  17.377
 5441TIP3   OH266790   7.276   0.678  17.565
 5441TIP3    H166791   7.190   0.709  17.594
 5441TIP3    H266792   7.324   0.761  17.540
 5442TIP3   OH266793   5.707   0.528  17.909
 5442TIP3    H166794   5.799   0.505  17.934
 5442TIP3    H266795   5.660   0.448  17.941
 5443TIP3   OH266796   7.515   0.093  18.111
 5443TIP3    H166797   7.533   0.021  18.048
 5443TIP3    H266798   7.512   0.166  18.048
 5444TIP3   OH266799   7.271   0.277  16.742
 5444TIP3    H166800   7.295   0.234  16.828
 5444TIP3    H266801   7.213   0.210  16.702
 5445TIP3   OH266802   5.809   0.411  17.270
 5445TIP3    H166803   5.832   0.321  17.240
 5445TIP3    H266804   5.894   0.453  17.246
 5446TIP3   OH266805   7.460   0.292  17.931
 5446TIP3    H166806   7.365   0.315  17.930
 5446TIP3    H266807   7.462   0.232  17.855
 5447TIP3   OH266808   5.688   0.278  16.705
 5447TIP3    H166809   5.593   0.301  16.695
 5447TIP3    H266810   5.730   0.333  16.639
 5448TIP3   OH266811   7.165   1.780  16.905
 5448TIP3    H166812   7.232   1.747  16.843
 5448TIP3    H266813   7.217   1.827  16.971
 5449TIP3   OH266814   5.562   0.178  17.512
 5449TIP3    H166815   5.602   0.136  17.593
 5449TIP3    H266816   5.642   0.225  17.486
 5450TIP3   OH266817   5.929   1.404  17.946
 5450TIP3    H166818   5.860   1.462  17.909
 5450TIP3    H266819   5.903   1.443  18.033
 5451TIP3   OH266820   6.862   1.844  17.801
 5451TIP3    H166821   6.931   1.778  17.784
 5451TIP3    H266822   6.893   1.878  17.887
 5452TIP3   OH266823   7.351   0.110  17.723
 5452TIP3    H166824   7.270   0.136  17.678
 5452TIP3    H266825   7.382   0.031  17.679
 5453TIP3   OH266826   5.938   1.887  17.584
 5453TIP3    H166827   5.870   1.943  17.545
 5453TIP3    H266828   5.909   1.877  17.676
 5454TIP3   OH266829   6.190   1.852  17.491
 5454TIP3    H166830   6.101   1.863  17.531
 5454TIP3    H266831   6.183   1.911  17.415
 5455TIP3   OH266832   6.663   1.846  17.406
 5455TIP3    H166833   6.612   1.897  17.344
 5455TIP3    H266834   6.671   1.906  17.483
 5456TIP3   OH266835   6.891   1.726  17.507
 5456TIP3    H166836   6.801   1.750  17.477
 5456TIP3    H266837   6.936   1.812  17.501
 5457TIP3   OH266838   7.152   1.887  17.534
 5457TIP3    H166839   7.133   1.978  17.510
 5457TIP3    H266840   7.168   1.845  17.446
 5458TIP3   OH266841   5.883   1.757  17.279
 5458TIP3    H166842   5.883   1.713  17.367
 5458TIP3    H266843   5.965   1.726  17.240
 5459TIP3   OH266844   6.727   0.235  17.137
 5459TIP3    H166845   6.649   0.179  17.159
 5459TIP3    H266846   6.769   0.179  17.072
 5460TIP3   OH266847   7.197   0.051  17.108
 5460TIP3    H166848   7.269   0.115  17.092
 5460TIP3    H266849   7.115   0.099  17.125
 5461TIP3   OH266850   7.386   0.179  16.976
 5461TIP3    H166851   7.452   0.116  16.940
 5461TIP3    H266852   7.436   0.262  16.989
 5462TIP3   OH266853   5.931   0.083  16.843
 5462TIP3    H166854   5.839   0.075  16.869
 5462TIP3    H266855   5.976   0.031  16.916
 5463TIP3   OH266856   5.748   0.077  16.520
 5463TIP3    H166857   5.823   0.119  16.477
 5463TIP3    H266858   5.726   0.147  16.582
 5464TIP3   OH266859   6.442   0.200  16.952
 5464TIP3    H166860   6.500   0.144  16.897
 5464TIP3    H266861   6.416   0.129  17.011
 5465TIP3   OH266862   6.942   0.099  17.069
 5465TIP3    H166863   6.958   0.107  16.975
 5465TIP3    H266864   6.924   0.006  17.083
 5466TIP3   OH266865   7.075   0.110  16.617
 5466TIP3    H166866   7.001   0.171  16.625
 5466TIP3    H266867   7.044   0.029  16.661
 5467TIP3   OH266868   5.809   1.680  16.601
 5467TIP3    H166869   5.738   1.678  16.534
 5467TIP3    H266870   5.808   1.774  16.623
 5468TIP3   OH266871   5.996   0.332  16.307
 5468TIP3    H166872   6.029   0.243  16.289
 5468TIP3    H266873   6.043   0.341  16.394
 5469TIP3   OH266874   6.577   0.310  16.620
 5469TIP3    H166875   6.533   0.242  16.673
 5469TIP3    H266876   6.519   0.384  16.655
 5470TIP3   OH266877   6.689   1.811  16.432
 5470TIP3    H166878   6.784   1.831  16.420
 5470TIP3    H266879   6.671   1.752  16.358
 5471TIP3   OH266880   7.364   1.758  16.708
 5471TIP3    H166881   7.343   1.678  16.652
 5471TIP3    H266882   7.359   1.831  16.644
 5472TIP3   OH266883   5.875   0.120  17.882
 5472TIP3    H166884   5.876   0.052  17.944
 5472TIP3    H266885   5.968   0.147  17.888
 5473TIP3   OH266886   6.072   0.088  18.066
 5473TIP3    H166887   6.164   0.079  18.027
 5473TIP3    H266888   6.071  -0.006  18.091
 5474TIP3   OH266889   5.983   1.768  16.301
 5474TIP3    H166890   5.963   1.801  16.388
 5474TIP3    H266891   6.065   1.721  16.314
 5475TIP3   OH266892   6.969   0.032  18.059
 5475TIP3    H166893   6.983  -0.025  18.135
 5475TIP3    H266894   7.057   0.024  18.018
 5476TIP3   OH266895   7.288   1.630  17.919
 5476TIP3    H166896   7.207   1.618  17.864
 5476TIP3    H266897   7.277   1.725  17.939
 5477TIP3   OH266898   7.854   0.906  17.420
 5477TIP3    H166899   7.860   0.841  17.493
 5477TIP3    H266900   7.924   0.968  17.446
 5478TIP3   OH266901   7.949   1.364  17.267
 5478TIP3    H166902   7.914   1.277  17.247
 5478TIP3    H266903   8.041   1.342  17.286
 5479TIP3   OH266904   7.603   0.715  16.819
 5479TIP3    H166905   7.559   0.802  16.808
 5479TIP3    H266906   7.552   0.658  16.760
 5480TIP3   OH266907   7.603   0.996  17.039
 5480TIP3    H166908   7.636   0.915  17.087
 5480TIP3    H266909   7.690   1.001  16.990
 5481TIP3   OH266910   7.731   0.640  17.185
 5481TIP3    H166911   7.824   0.620  17.199
 5481TIP3    H266912   7.737   0.660  17.088
 5482TIP3   OH266913   8.086   1.329  17.536
 5482TIP3    H166914   8.064   1.423  17.541
 5482TIP3    H266915   8.021   1.294  17.601
 5483TIP3   OH266916   7.670   1.257  16.661
 5483TIP3    H166917   7.653   1.286  16.569
 5483TIP3    H266918   7.686   1.343  16.704
 5484TIP3   OH266919   8.135   1.144  16.875
 5484TIP3    H166920   8.080   1.064  16.854
 5484TIP3    H266921   8.188   1.081  16.933
 5485TIP3   OH266922   7.910   0.889  17.703
 5485TIP3    H166923   7.941   0.961  17.759
 5485TIP3    H266924   7.836   0.941  17.667
 5486TIP3   OH266925   8.054   1.560  17.866
 5486TIP3    H166926   8.057   1.541  17.771
 5486TIP3    H266927   7.962   1.539  17.888
 5487TIP3   OH266928   7.905   0.955  16.703
 5487TIP3    H166929   7.965   1.009  16.647
 5487TIP3    H266930   7.931   0.866  16.676
 5488TIP3   OH266931   7.504   1.172  17.581
 5488TIP3    H166932   7.540   1.174  17.491
 5488TIP3    H266933   7.573   1.110  17.614
 5489TIP3   OH266934   7.589   1.448  17.282
 5489TIP3    H166935   7.684   1.440  17.278
 5489TIP3    H266936   7.579   1.531  17.330
 5490TIP3   OH266937   7.910   1.738  16.902
 5490TIP3    H166938   7.930   1.691  16.986
 5490TIP3    H266939   7.829   1.692  16.874
 5491TIP3   OH266940   7.884   1.401  17.683
 5491TIP3    H166941   7.890   1.337  17.757
 5491TIP3    H266942   7.830   1.338  17.634
 5492TIP3   OH266943   8.098   0.636  17.413
 5492TIP3    H166944   8.030   0.644  17.482
 5492TIP3    H266945   8.105   0.728  17.385
 5493TIP3   OH266946   8.166   0.642  16.853
 5493TIP3    H166947   8.074   0.651  16.889
 5493TIP3    H266948   8.154   0.622  16.764
 5494TIP3   OH266949   7.875   0.674  17.582
 5494TIP3    H166950   7.885   0.720  17.669
 5494TIP3    H266951   7.835   0.589  17.608
 5495TIP3   OH266952   7.543   0.394  16.979
 5495TIP3    H166953   7.609   0.384  17.050
 5495TIP3    H266954   7.591   0.353  16.905
 5496TIP3   OH266955   7.668   0.458  16.527
 5496TIP3    H166956   7.717   0.515  16.464
 5496TIP3    H266957   7.602   0.522  16.557
 5497TIP3   OH266958   7.785   0.490  16.789
 5497TIP3    H166959   7.752   0.571  16.833
 5497TIP3    H266960   7.866   0.473  16.842
 5498TIP3   OH266961   8.112   0.642  16.396
 5498TIP3    H166962   8.028   0.658  16.349
 5498TIP3    H266963   8.166   0.717  16.367
 5499TIP3   OH266964   7.844   1.028  18.001
 5499TIP3    H166965   7.923   1.087  18.007
 5499TIP3    H266966   7.798   1.108  17.965
 5500TIP3   OH266967   7.978   0.306  16.827
 5500TIP3    H166968   7.953   0.214  16.837
 5500TIP3    H266969   8.072   0.305  16.809
 5501TIP3   OH266970   7.954   1.099  17.283
 5501TIP3    H166971   7.985   1.114  17.190
 5501TIP3    H266972   7.938   1.003  17.263
 5502TIP3   OH266973   7.618   0.922  17.719
 5502TIP3    H166974   7.643   0.876  17.800
 5502TIP3    H266975   7.562   0.859  17.670
 5503TIP3   OH266976   7.686   0.921  16.398
 5503TIP3    H166977   7.770   0.969  16.422
 5503TIP3    H266978   7.618   0.981  16.421
 5504TIP3   OH266979   7.793   0.405  17.671
 5504TIP3    H166980   7.701   0.434  17.660
 5504TIP3    H266981   7.782   0.315  17.707
 5505TIP3   OH266982   7.755   1.585  17.507
 5505TIP3    H166983   7.784   1.494  17.509
 5505TIP3    H266984   7.782   1.613  17.596
 5506TIP3   OH266985   7.869   1.126  16.516
 5506TIP3    H166986   7.814   1.153  16.592
 5506TIP3    H266987   7.935   1.197  16.510
 5507TIP3   OH266988  -0.047   0.323  16.490
 5507TIP3    H166989  -0.052   0.411  16.531
 5507TIP3    H266990   0.045   0.304  16.513
 5508TIP3   OH266991   7.938   1.366  16.437
 5508TIP3    H166992   8.003   1.434  16.459
 5508TIP3    H266993   7.982   1.326  16.362
 5509TIP3   OH266994   7.756   0.620  16.353
 5509TIP3    H166995   7.763   0.714  16.335
 5509TIP3    H266996   7.677   0.605  16.300
 5510TIP3   OH266997   7.750   1.516  16.822
 5510TIP3    H166998   7.664   1.559  16.813
 5510TIP3    H266999   7.801   1.555  16.750
 5511TIP3   OH267000   7.678   1.775  17.944
 5511TIP3    H167001   7.732   1.754  18.022
 5511TIP3    H267002   7.628   1.693  17.930
 5512TIP3   OH267003   7.637   1.159  18.049
 5512TIP3    H167004   7.670   1.068  18.025
 5512TIP3    H267005   7.573   1.178  17.980
 5513TIP3   OH267006   7.715   0.822  17.992
 5513TIP3    H167007   7.798   0.779  17.977
 5513TIP3    H267008   7.730   0.871  18.077
 5514TIP3   OH267009   8.000   0.551  17.900
 5514TIP3    H167010   7.944   0.566  17.979
 5514TIP3    H267011   8.084   0.576  17.945
 5515TIP3   OH267012   7.812   0.410  17.993
 5515TIP3    H167013   7.863   0.353  17.932
 5515TIP3    H267014   7.832   0.372  18.078
 5516TIP3   OH267015   7.653   1.322  16.410
 5516TIP3    H167016   7.748   1.348  16.403
 5516TIP3    H267017   7.655   1.288  16.318
 5517TIP3   OH267018   7.542   1.878  16.862
 5517TIP3    H167019   7.469   1.830  16.817
 5517TIP3    H267020   7.569   1.814  16.930
 5518TIP3   OH267021   7.622   1.692  17.050
 5518TIP3    H167022   7.591   1.602  17.069
 5518TIP3    H267023   7.648   1.723  17.138
 5519TIP3   OH267024   7.634   1.002  17.305
 5519TIP3    H167025   7.642   0.998  17.208
 5519TIP3    H267026   7.722   0.975  17.339
 5520TIP3   OH267027   7.588   0.533  17.915
 5520TIP3    H167028   7.682   0.508  17.932
 5520TIP3    H267029   7.544   0.449  17.941
 5521TIP3   OH267030   7.710   0.358  17.199
 5521TIP3    H167031   7.759   0.278  17.228
 5521TIP3    H267032   7.765   0.427  17.238
 5522TIP3   OH267033   7.523   0.662  17.308
 5522TIP3    H167034   7.587   0.630  17.238
 5522TIP3    H267035   7.579   0.737  17.336
 5523TIP3   OH267036   7.574   0.277  16.713
 5523TIP3    H167037   7.482   0.303  16.698
 5523TIP3    H267038   7.622   0.330  16.644
 5524TIP3   OH267039   7.580   0.166  17.541
 5524TIP3    H167040   7.516   0.132  17.604
 5524TIP3    H267041   7.528   0.220  17.481
 5525TIP3   OH267042   7.784   1.477  17.955
 5525TIP3    H167043   7.699   1.495  17.913
 5525TIP3    H267044   7.765   1.469  18.049
 5526TIP3   OH267045   8.084   1.581  17.587
 5526TIP3    H167046   8.052   1.665  17.552
 5526TIP3    H267047   8.177   1.580  17.559
 5527TIP3   OH267048   7.825   1.889  17.584
 5527TIP3    H167049   7.753   1.943  17.545
 5527TIP3    H267050   7.793   1.875  17.674
 5528TIP3   OH267051   8.057   1.829  17.475
 5528TIP3    H167052   7.984   1.864  17.530
 5528TIP3    H267053   8.073   1.905  17.415
 5529TIP3   OH267054   7.766   1.758  17.278
 5529TIP3    H167055   7.765   1.716  17.367
 5529TIP3    H267056   7.851   1.724  17.242
 5530TIP3   OH267057   7.983   1.633  17.149
 5530TIP3    H167058   7.964   1.539  17.165
 5530TIP3    H267059   8.068   1.642  17.195
 5531TIP3   OH267060   7.808   0.149  16.956
 5531TIP3    H167061   7.747   0.113  16.890
 5531TIP3    H267062   7.862   0.067  16.954
 5532TIP3   OH267063   7.694   1.679  16.600
 5532TIP3    H167064   7.622   1.676  16.535
 5532TIP3    H267065   7.691   1.773  16.623
 5533TIP3   OH267066   7.812   0.161  17.885
 5533TIP3    H167067   7.780   0.079  17.922
 5533TIP3    H267068   7.907   0.153  17.901
 5534TIP3   OH267069   7.837   1.810  16.320
 5534TIP3    H167070   7.821   1.821  16.414
 5534TIP3    H267071   7.927   1.773  16.332
 5535TIP3   OH267072   1.188   2.906  16.917
 5535TIP3    H167073   1.191   3.004  16.910
 5535TIP3    H267074   1.118   2.880  16.855
 5536TIP3   OH267075   1.078   2.831  17.266
 5536TIP3    H167076   1.077   2.767  17.340
 5536TIP3    H267077   1.050   2.781  17.188
 5537TIP3   OH267078   0.321   2.791  17.417
 5537TIP3    H167079   0.321   2.734  17.497
 5537TIP3    H267080   0.384   2.859  17.448
 5538TIP3   OH267081   0.403   3.243  17.269
 5538TIP3    H167082   0.370   3.155  17.242
 5538TIP3    H267083   0.498   3.221  17.280
 5539TIP3   OH267084   0.101   2.631  16.760
 5539TIP3    H167085   0.045   2.692  16.811
 5539TIP3    H267086   0.034   2.566  16.741
 5540TIP3   OH267087   0.142   2.822  17.030
 5540TIP3    H167088   0.158   2.740  17.075
 5540TIP3    H267089   0.213   2.831  16.966
 5541TIP3   OH267090   0.915   3.074  17.307
 5541TIP3    H167091   0.952   3.006  17.251
 5541TIP3    H267092   0.988   3.087  17.369
 5542TIP3   OH267093   1.780   2.234  17.390
 5542TIP3    H167094   1.788   2.298  17.464
 5542TIP3    H267095   1.826   2.280  17.319
 5543TIP3   OH267096   1.229   2.516  17.343
 5543TIP3    H167097   1.243   2.420  17.345
 5543TIP3    H267098   1.219   2.531  17.248
 5544TIP3   OH267099   1.318   2.338  16.906
 5544TIP3    H167100   1.382   2.300  16.967
 5544TIP3    H267101   1.373   2.391  16.846
 5545TIP3   OH267102   1.818   2.377  17.615
 5545TIP3    H167103   1.755   2.452  17.603
 5545TIP3    H267104   1.826   2.369  17.710
 5546TIP3   OH267105   1.161   3.166  16.828
 5546TIP3    H167106   1.135   3.139  16.739
 5546TIP3    H267107   1.129   3.259  16.831
 5547TIP3   OH267108   0.526   3.181  17.580
 5547TIP3    H167109   0.523   3.271  17.543
 5547TIP3    H267110   0.437   3.170  17.618
 5548TIP3   OH267111   0.134   3.145  16.656
 5548TIP3    H167112   0.113   3.170  16.566
 5548TIP3    H267113   0.142   3.228  16.705
 5549TIP3   OH267114   1.610   3.140  17.693
 5549TIP3    H167115   1.619   3.072  17.621
 5549TIP3    H267116   1.627   3.224  17.649
 5550TIP3   OH267117   1.055   2.830  16.667
 5550TIP3    H167118   0.987   2.889  16.630
 5550TIP3    H267119   1.127   2.838  16.602
 5551TIP3   OH267120   1.060   2.680  16.371
 5551TIP3    H167121   1.130   2.680  16.440
 5551TIP3    H267122   1.098   2.614  16.311
 5552TIP3   OH267123   1.398   2.846  16.758
 5552TIP3    H167124   1.327   2.874  16.820
 5552TIP3    H267125   1.448   2.784  16.814
 5553TIP3   OH267126   1.398   2.668  17.669
 5553TIP3    H167127   1.392   2.745  17.726
 5553TIP3    H267128   1.330   2.694  17.603
 5554TIP3   OH267129   0.695   3.256  17.219
 5554TIP3    H167130   0.690   3.200  17.140
 5554TIP3    H267131   0.770   3.219  17.268
 5555TIP3   OH267132   0.688   3.230  17.789
 5555TIP3    H167133   0.652   3.308  17.834
 5555TIP3    H267134   0.622   3.212  17.717
 5556TIP3   OH267135   1.286   2.768  16.525
 5556TIP3    H167136   1.339   2.786  16.608
 5556TIP3    H267137   1.331   2.822  16.459
 5557TIP3   OH267138   0.376   2.846  17.709
 5557TIP3    H167139   0.388   2.915  17.777
 5557TIP3    H267140   0.288   2.862  17.677
 5558TIP3   OH267141   1.057   3.437  16.877
 5558TIP3    H167142   1.105   3.472  16.953
 5558TIP3    H267143   1.005   3.513  16.849
 5559TIP3   OH267144   0.512   3.436  17.863
 5559TIP3    H167145   0.508   3.426  17.766
 5559TIP3    H267146   0.418   3.425  17.888
 5560TIP3   OH267147   0.459   2.822  16.710
 5560TIP3    H167148   0.427   2.900  16.665
 5560TIP3    H267149   0.390   2.756  16.694
 5561TIP3   OH267150   0.110   3.039  17.583
 5561TIP3    H167151   0.033   3.062  17.525
 5561TIP3    H267152   0.073   2.960  17.626
 5562TIP3   OH267153   0.048   3.337  17.273
 5562TIP3    H167154   0.142   3.320  17.280
 5562TIP3    H267155   0.032   3.412  17.331
 5563TIP3   OH267156   1.867   3.403  17.853
 5563TIP3    H167157   1.857   3.306  17.847
 5563TIP3    H267158   1.780   3.426  17.890
 5564TIP3   OH267159   0.995   3.736  16.717
 5564TIP3    H167160   1.001   3.728  16.622
 5564TIP3    H267161   1.011   3.830  16.732
 5565TIP3   OH267162   0.372   3.619  16.896
 5565TIP3    H167163   0.385   3.579  16.984
 5565TIP3    H267164   0.286   3.582  16.873
 5566TIP3   OH267165   1.581   2.553  17.896
 5566TIP3    H167166   1.535   2.600  17.825
 5566TIP3    H267167   1.577   2.462  17.866
 5567TIP3   OH267168   0.287   3.203  17.703
 5567TIP3    H167169   0.315   3.153  17.782
 5567TIP3    H267170   0.210   3.150  17.672
 5568TIP3   OH267171   1.022   2.011  17.629
 5568TIP3    H167172   1.064   1.969  17.705
 5568TIP3    H267173   0.929   1.991  17.642
 5569TIP3   OH267174   1.128   2.599  16.782
 5569TIP3    H167175   1.080   2.678  16.750
 5569TIP3    H267176   1.193   2.581  16.713
 5570TIP3   OH267177   1.028   2.615  17.927
 5570TIP3    H167178   0.971   2.545  17.960
 5570TIP3    H267179   1.112   2.604  17.975
 5571TIP3   OH267180   1.222   2.547  17.065
 5571TIP3    H167181   1.196   2.602  16.989
 5571TIP3    H267182   1.234   2.462  17.018
 5572TIP3   OH267183   1.140   2.706  17.518
 5572TIP3    H167184   1.183   2.637  17.464
 5572TIP3    H267185   1.106   2.654  17.592
 5573TIP3   OH267186   1.264   2.222  17.326
 5573TIP3    H167187   1.199   2.235  17.398
 5573TIP3    H267188   1.213   2.207  17.245
 5574TIP3   OH267189   0.366   3.034  17.914
 5574TIP3    H167190   0.432   3.064  17.977
 5574TIP3    H267191   0.283   3.052  17.965
 5575TIP3   OH267192   0.874   3.035  16.603
 5575TIP3    H167193   0.793   2.989  16.571
 5575TIP3    H267194   0.856   3.042  16.698
 5576TIP3   OH267195   1.588   2.963  17.488
 5576TIP3    H167196   1.651   2.991  17.422
 5576TIP3    H267197   1.505   2.958  17.436
 5577TIP3   OH267198   1.265   2.315  16.419
 5577TIP3    H167199   1.171   2.330  16.409
 5577TIP3    H267200   1.295   2.401  16.454
 5578TIP3   OH267201   1.025   3.056  17.729
 5578TIP3    H167202   0.989   3.019  17.809
 5578TIP3    H267203   1.001   3.149  17.736
 5579TIP3   OH267204   1.336   2.504  16.589
 5579TIP3    H167205   1.425   2.494  16.626
 5579TIP3    H267206   1.340   2.587  16.540
 5580TIP3   OH267207   0.376   2.968  17.173
 5580TIP3    H167208   0.457   2.973  17.121
 5580TIP3    H267209   0.391   2.892  17.233
 5581TIP3   OH267210   1.086   3.184  16.505
 5581TIP3    H167211   1.053   3.268  16.543
 5581TIP3    H267212   1.013   3.123  16.529
 5582TIP3   OH267213   0.083   2.814  17.716
 5582TIP3    H167214   0.111   2.770  17.796
 5582TIP3    H267215   0.021   2.751  17.673
 5583TIP3   OH267216   1.816   2.525  16.567
 5583TIP3    H167217   1.767   2.492  16.491
 5583TIP3    H267218   1.836   2.617  16.534
 5584TIP3   OH267219   1.823   3.110  17.844
 5584TIP3    H167220   1.733   3.125  17.808
 5584TIP3    H267221   1.877   3.098  17.765
 5585TIP3   OH267222   1.372   2.885  17.315
 5585TIP3    H167223   1.277   2.867  17.304
 5585TIP3    H267224   1.414   2.810  17.270
 5586TIP3   OH267225   0.621   3.320  16.925
 5586TIP3    H167226   0.674   3.397  16.901
 5586TIP3    H267227   0.535   3.343  16.889
 5587TIP3   OH267228   0.812   3.503  17.515
 5587TIP3    H167229   0.857   3.585  17.488
 5587TIP3    H267230   0.870   3.471  17.585
 5588TIP3   OH267231   0.637   3.586  16.830
 5588TIP3    H167232   0.540   3.598  16.841
 5588TIP3    H267233   0.670   3.670  16.866
 5589TIP3   OH267234   1.391   3.200  16.388
 5589TIP3    H167235   1.421   3.164  16.473
 5589TIP3    H267236   1.295   3.196  16.398
 5590TIP3   OH267237   1.477   3.068  16.607
 5590TIP3    H167238   1.449   2.996  16.667
 5590TIP3    H267239   1.571   3.080  16.632
 5591TIP3   OH267240   0.214   3.468  17.508
 5591TIP3    H167241   0.242   3.375  17.507
 5591TIP3    H267242   0.243   3.494  17.597
 5592TIP3   OH267243   0.692   3.273  16.477
 5592TIP3    H167244   0.710   3.221  16.556
 5592TIP3    H267245   0.696   3.365  16.512
 5593TIP3   OH267246   1.121   2.264  17.559
 5593TIP3    H167247   1.195   2.272  17.621
 5593TIP3    H267248   1.087   2.175  17.574
 5594TIP3   OH267249   1.200   2.222  16.669
 5594TIP3    H167250   1.224   2.270  16.587
 5594TIP3    H267251   1.254   2.267  16.735
 5595TIP3   OH267252   0.967   3.439  16.551
 5595TIP3    H167253   0.886   3.492  16.560
 5595TIP3    H267254   1.025   3.488  16.490
 5596TIP3   OH267255   0.701   3.545  16.552
 5596TIP3    H167256   0.720   3.626  16.505
 5596TIP3    H267257   0.681   3.576  16.643
 5597TIP3   OH267258   1.456   2.665  17.154
 5597TIP3    H167259   1.372   2.621  17.131
 5597TIP3    H267260   1.503   2.597  17.208
 5598TIP3   OH267261   0.396   3.265  16.411
 5598TIP3    H167262   0.463   3.321  16.451
 5598TIP3    H267263   0.447   3.212  16.350
 5599TIP3   OH267264   0.208   3.394  16.817
 5599TIP3    H167265   0.123   3.440  16.814
 5599TIP3    H267266   0.257   3.443  16.749
 5600TIP3   OH267267   0.140   3.658  17.941
 5600TIP3    H167268   0.190   3.639  18.022
 5600TIP3    H267269   0.085   3.579  17.930
 5601TIP3   OH267270   0.598   3.552  18.108
 5601TIP3    H167271   0.676   3.503  18.138
 5601TIP3    H267272   0.591   3.524  18.014
 5602TIP3   OH267273   0.141   3.037  18.028
 5602TIP3    H167274   0.144   2.941  18.009
 5602TIP3    H267275   0.063   3.064  17.977
 5603TIP3   OH267276   0.795   3.042  17.982
 5603TIP3    H167277   0.752   3.065  17.898
 5603TIP3    H267278   0.803   2.946  17.977
 5604TIP3   OH267279   1.365   3.026  17.725
 5604TIP3    H167280   1.442   3.085  17.715
 5604TIP3    H267281   1.289   3.086  17.728
 5605TIP3   OH267282   0.202   2.763  17.989
 5605TIP3    H167283   0.256   2.683  17.972
 5605TIP3    H267284   0.188   2.758  18.083
 5606TIP3   OH267285   0.682   2.877  16.492
 5606TIP3    H167286   0.627   2.829  16.558
 5606TIP3    H267287   0.699   2.807  16.428
 5607TIP3   OH267288   1.107   2.909  18.058
 5607TIP3    H167289   1.203   2.911  18.043
 5607TIP3    H267290   1.090   2.831  18.113
 5608TIP3   OH267291   1.275   2.558  18.099
 5608TIP3    H167292   1.298   2.463  18.098
 5608TIP3    H267293   1.362   2.600  18.104
 5609TIP3   OH267294   1.411   2.838  17.918
 5609TIP3    H167295   1.382   2.908  17.855
 5609TIP3    H267296   1.506   2.836  17.897
 5610TIP3   OH267297   1.159   2.322  17.893
 5610TIP3    H167298   1.064   2.326  17.903
 5610TIP3    H267299   1.187   2.258  17.959
 5611TIP3   OH267300   0.128   3.223  16.365
 5611TIP3    H167301   0.223   3.237  16.389
 5611TIP3    H267302   0.136   3.164  16.291
 5612TIP3   OH267303   8.143   3.762  16.859
 5612TIP3    H167304   8.070   3.719  16.817
 5612TIP3    H267305   8.170   3.700  16.929
 5613TIP3   OH267306   0.082   3.574  17.049
 5613TIP3    H167307   0.047   3.486  17.070
 5613TIP3    H267308   0.107   3.609  17.137
 5614TIP3   OH267309   1.635   3.192  18.104
 5614TIP3    H167310   1.547   3.183  18.146
 5614TIP3    H267311   1.672   3.266  18.152
 5615TIP3   OH267312   1.766   3.019  16.651
 5615TIP3    H167313   1.853   3.060  16.666
 5615TIP3    H267314   1.769   2.946  16.718
 5616TIP3   OH267315   1.802   2.828  16.835
 5616TIP3    H167316   1.731   2.775  16.875
 5616TIP3    H267317   1.862   2.843  16.909
 5617TIP3   OH267318   1.633   3.389  17.559
 5617TIP3    H167319   1.567   3.424  17.620
 5617TIP3    H267320   1.580   3.346  17.491
 5618TIP3   OH267321   1.835   2.809  16.475
 5618TIP3    H167322   1.779   2.846  16.407
 5618TIP3    H267323   1.830   2.879  16.542
 5619TIP3   OH267324   1.585   2.674  16.891
 5619TIP3    H167325   1.572   2.579  16.891
 5619TIP3    H267326   1.552   2.698  16.980
 5620TIP3   OH267327   0.085   2.880  17.297
 5620TIP3    H167328   0.103   2.879  17.201
 5620TIP3    H267329   0.173   2.870  17.337
 5621TIP3   OH267330   1.672   2.871  17.858
 5621TIP3    H167331   1.735   2.798  17.877
 5621TIP3    H267332   1.731   2.948  17.864
 5622TIP3   OH267333   1.820   2.660  17.927
 5622TIP3    H167334   1.732   2.622  17.910
 5622TIP3    H267335   1.880   2.585  17.918
 5623TIP3   OH267336   1.557   2.437  16.738
 5623TIP3    H167337   1.583   2.343  16.751
 5623TIP3    H267338   1.637   2.475  16.700
 5624TIP3   OH267339   1.615   2.494  17.282
 5624TIP3    H167340   1.712   2.509  17.281
 5624TIP3    H267341   1.598   2.496  17.378
 5625TIP3   OH267342   1.625   2.563  17.562
 5625TIP3    H167343   1.537   2.590  17.595
 5625TIP3    H267344   1.664   2.650  17.541
 5626TIP3   OH267345   1.850   1.967  18.096
 5626TIP3    H167346   1.887   1.900  18.037
 5626TIP3    H267347   1.862   2.050  18.047
 5627TIP3   OH267348   1.619   2.165  16.744
 5627TIP3    H167349   1.638   2.117  16.828
 5627TIP3    H267350   1.558   2.101  16.699
 5628TIP3   OH267351   0.011   2.541  17.311
 5628TIP3    H167352   0.046   2.521  17.223
 5628TIP3    H267353   0.037   2.632  17.328
 5629TIP3   OH267354   1.799   2.177  17.930
 5629TIP3    H167355   1.705   2.200  17.930
 5629TIP3    H267356   1.814   2.124  17.850
 5630TIP3   OH267357   0.048   2.164  16.716
 5630TIP3    H167358  -0.044   2.174  16.684
 5630TIP3    H267359   0.094   2.218  16.652
 5631TIP3   OH267360   8.180   2.058  17.565
 5631TIP3    H167361   8.109   2.012  17.609
 5631TIP3    H267362   8.130   2.101  17.493
 5632TIP3   OH267363   0.249   3.360  17.959
 5632TIP3    H167364   0.165   3.377  17.914
 5632TIP3    H267365   0.222   3.348  18.051
 5633TIP3   OH267366   0.544   3.455  17.586
 5633TIP3    H167367   0.506   3.539  17.557
 5633TIP3    H267368   0.637   3.464  17.554
 5634TIP3   OH267369   0.285   3.779  17.588
 5634TIP3    H167370   0.212   3.828  17.545
 5634TIP3    H267371   0.248   3.761  17.676
 5635TIP3   OH267372   0.532   3.735  17.493
 5635TIP3    H167373   0.443   3.751  17.532
 5635TIP3    H267374   0.528   3.793  17.414
 5636TIP3   OH267375   1.002   3.730  17.407
 5636TIP3    H167376   0.955   3.786  17.344
 5636TIP3    H267377   1.016   3.790  17.482
 5637TIP3   OH267378   0.229   3.642  17.278
 5637TIP3    H167379   0.223   3.599  17.365
 5637TIP3    H267380   0.312   3.608  17.239
 5638TIP3   OH267381   0.435   3.516  17.148
 5638TIP3    H167382   0.422   3.421  17.168
 5638TIP3    H267383   0.523   3.530  17.190
 5639TIP3   OH267384   0.695   3.562  17.229
 5639TIP3    H167385   0.716   3.471  17.204
 5639TIP3    H267386   0.699   3.555  17.326
 5640TIP3   OH267387   1.726   2.058  16.977
 5640TIP3    H167388   1.795   2.002  16.938
 5640TIP3    H267389   1.774   2.142  16.994
 5641TIP3   OH267390   1.426   1.991  16.646
 5641TIP3    H167391   1.351   2.047  16.621
 5641TIP3    H267392   1.384   1.905  16.654
 5642TIP3   OH267393   0.152   3.568  16.601
 5642TIP3    H167394   0.083   3.560  16.534
 5642TIP3    H267395   0.151   3.663  16.620
 5643TIP3   OH267396   0.394   3.672  16.322
 5643TIP3    H167397   0.323   3.677  16.389
 5643TIP3    H267398   0.419   3.579  16.329
 5644TIP3   OH267399   1.950   2.601  16.820
 5644TIP3    H167400   1.908   2.689  16.814
 5644TIP3    H267401   1.895   2.547  16.761
 5645TIP3   OH267402   3.122   2.516  17.343
 5645TIP3    H167403   3.125   2.419  17.344
 5645TIP3    H267404   3.105   2.532  17.248
 5646TIP3   OH267405   3.203   2.337  16.902
 5646TIP3    H167406   3.267   2.305  16.969
 5646TIP3    H267407   3.259   2.391  16.845
 5647TIP3   OH267408   2.092   2.561  17.142
 5647TIP3    H167409   2.162   2.508  17.179
 5647TIP3    H267410   2.099   2.537  17.048
 5648TIP3   OH267411   3.386   2.263  17.101
 5648TIP3    H167412   3.358   2.192  17.158
 5648TIP3    H267413   3.447   2.315  17.155
 5649TIP3   OH267414   2.407   3.177  17.572
 5649TIP3    H167415   2.411   3.270  17.547
 5649TIP3    H267416   2.327   3.169  17.624
 5650TIP3   OH267417   2.015   3.146  16.656
 5650TIP3    H167418   2.000   3.175  16.564
 5650TIP3    H267419   2.029   3.229  16.704
 5651TIP3   OH267420   3.417   2.137  17.469
 5651TIP3    H167421   3.344   2.199  17.468
 5651TIP3    H267422   3.486   2.181  17.420
 5652TIP3   OH267423   2.714   1.945  17.211
 5652TIP3    H167424   2.700   1.851  17.214
 5652TIP3    H267425   2.630   1.982  17.246
 5653TIP3   OH267426   3.674   2.772  17.493
 5653TIP3    H167427   3.614   2.845  17.500
 5653TIP3    H267428   3.728   2.795  17.415
 5654TIP3   OH267429   3.274   2.669  17.671
 5654TIP3    H167430   3.280   2.747  17.725
 5654TIP3    H267431   3.211   2.699  17.602
 5655TIP3   OH267432   2.398   3.440  17.866
 5655TIP3    H167433   2.398   3.429  17.770
 5655TIP3    H267434   2.304   3.426  17.890
 5656TIP3   OH267435   3.543   1.939  16.511
 5656TIP3    H167436   3.451   1.952  16.544
 5656TIP3    H267437   3.568   2.027  16.476
 5657TIP3   OH267438   3.661   3.375  16.364
 5657TIP3    H167439   3.669   3.471  16.368
 5657TIP3    H267440   3.753   3.345  16.349
 5658TIP3   OH267441   1.928   3.347  17.277
 5658TIP3    H167442   2.023   3.329  17.279
 5658TIP3    H267443   1.918   3.423  17.335
 5659TIP3   OH267444   3.757   3.405  17.855
 5659TIP3    H167445   3.739   3.311  17.843
 5659TIP3    H267446   3.666   3.432  17.886
 5660TIP3   OH267447   2.902   3.739  16.714
 5660TIP3    H167448   2.880   3.725  16.619
 5660TIP3    H267449   2.880   3.832  16.728
 5661TIP3   OH267450   2.254   3.625  16.898
 5661TIP3    H167451   2.273   3.579  16.983
 5661TIP3    H267452   2.174   3.578  16.872
 5662TIP3   OH267453   3.162   3.659  16.705
 5662TIP3    H167454   3.066   3.646  16.706
 5662TIP3    H267455   3.193   3.576  16.743
 5663TIP3   OH267456   3.458   2.553  17.899
 5663TIP3    H167457   3.423   2.596  17.820
 5663TIP3    H267458   3.469   2.462  17.866
 5664TIP3   OH267459   2.450   2.039  17.291
 5664TIP3    H167460   2.359   2.028  17.255
 5664TIP3    H267461   2.441   2.122  17.338
 5665TIP3   OH267462   2.907   2.022  17.639
 5665TIP3    H167463   2.956   1.966  17.702
 5665TIP3    H267464   2.817   1.989  17.642
 5666TIP3   OH267465   3.241   2.388  17.716
 5666TIP3    H167466   3.187   2.372  17.796
 5666TIP3    H267467   3.226   2.481  17.693
 5667TIP3   OH267468   3.017   2.610  16.779
 5667TIP3    H167469   2.964   2.681  16.742
 5667TIP3    H267470   3.078   2.584  16.709
 5668TIP3   OH267471   3.119   2.547  17.063
 5668TIP3    H167472   3.081   2.600  16.991
 5668TIP3    H267473   3.120   2.459  17.020
 5669TIP3   OH267474   1.888   2.278  16.979
 5669TIP3    H167475   1.953   2.270  17.052
 5669TIP3    H267476   1.934   2.237  16.904
 5670TIP3   OH267477   2.012   2.346  16.529
 5670TIP3    H167478   2.065   2.404  16.471
 5670TIP3    H267479   1.945   2.411  16.558
 5671TIP3   OH267480   3.035   2.706  17.531
 5671TIP3    H167481   3.061   2.644  17.460
 5671TIP3    H267482   2.982   2.649  17.587
 5672TIP3   OH267483   2.188   2.462  16.891
 5672TIP3    H167484   2.102   2.472  16.848
 5672TIP3    H267485   2.223   2.378  16.856
 5673TIP3   OH267486   3.475   3.790  17.963
 5673TIP3    H167487   3.500   3.833  17.879
 5673TIP3    H267488   3.545   3.823  18.022
 5674TIP3   OH267489   2.338   2.193  16.830
 5674TIP3    H167490   2.309   2.101  16.838
 5674TIP3    H267491   2.419   2.186  16.780
 5675TIP3   OH267492   2.702   2.418  17.434
 5675TIP3    H167493   2.621   2.464  17.449
 5675TIP3    H267494   2.761   2.443  17.507
 5676TIP3   OH267495   3.148   2.313  16.422
 5676TIP3    H167496   3.055   2.331  16.406
 5676TIP3    H267497   3.178   2.401  16.452
 5677TIP3   OH267498   3.220   2.513  16.590
 5677TIP3    H167499   3.310   2.495  16.625
 5677TIP3    H267500   3.230   2.590  16.534
 5678TIP3   OH267501   3.703   2.526  16.564
 5678TIP3    H167502   3.651   2.494  16.489
 5678TIP3    H267503   3.717   2.618  16.535
 5679TIP3   OH267504   3.542   3.407  16.605
 5679TIP3    H167505   3.502   3.325  16.637
 5679TIP3    H267506   3.565   3.385  16.513
 5680TIP3   OH267507   2.698   3.501  17.514
 5680TIP3    H167508   2.736   3.586  17.489
 5680TIP3    H267509   2.755   3.472  17.584
 5681TIP3   OH267510   2.099   3.464  17.505
 5681TIP3    H167511   2.126   3.373  17.513
 5681TIP3    H267512   2.124   3.499  17.593
 5682TIP3   OH267513   3.007   2.269  17.567
 5682TIP3    H167514   3.084   2.269  17.624
 5682TIP3    H267515   2.974   2.177  17.573
 5683TIP3   OH267516   3.083   2.229  16.670
 5683TIP3    H167517   3.111   2.272  16.587
 5683TIP3    H267518   3.143   2.269  16.735
 5684TIP3   OH267519   2.862   2.503  17.668
 5684TIP3    H167520   2.871   2.555  17.748
 5684TIP3    H267521   2.926   2.429  17.677
 5685TIP3   OH267522   2.892   2.103  16.843
 5685TIP3    H167523   2.867   2.168  16.911
 5685TIP3    H267524   2.961   2.153  16.794
 5686TIP3   OH267525   2.461   2.211  16.517
 5686TIP3    H167526   2.453   2.302  16.547
 5686TIP3    H267527   2.552   2.187  16.537
 5687TIP3   OH267528   3.481   2.292  17.759
 5687TIP3    H167529   3.388   2.315  17.742
 5687TIP3    H267530   3.514   2.281  17.667
 5688TIP3   OH267531   3.346   2.665  17.155
 5688TIP3    H167532   3.259   2.627  17.131
 5688TIP3    H267533   3.387   2.596  17.211
 5689TIP3   OH267534   2.284   3.263  16.413
 5689TIP3    H167535   2.345   3.327  16.451
 5689TIP3    H267536   2.335   3.214  16.349
 5690TIP3   OH267537   3.445   3.590  17.324
 5690TIP3    H167538   3.440   3.659  17.257
 5690TIP3    H267539   3.541   3.595  17.344
 5691TIP3   OH267540   2.197   2.007  17.203
 5691TIP3    H167541   2.178   2.010  17.106
 5691TIP3    H267542   2.155   1.923  17.229
 5692TIP3   OH267543   2.092   3.400  16.818
 5692TIP3    H167544   2.008   3.445  16.812
 5692TIP3    H267545   2.143   3.444  16.749
 5693TIP3   OH267546   2.034   3.656  17.938
 5693TIP3    H167547   2.078   3.640  18.024
 5693TIP3    H267548   1.977   3.578  17.928
 5694TIP3   OH267549   2.479   3.549  18.109
 5694TIP3    H167550   2.558   3.505  18.143
 5694TIP3    H267551   2.479   3.527  18.013
 5695TIP3   OH267552   2.004   3.036  18.048
 5695TIP3    H167553   2.029   2.949  18.010
 5695TIP3    H267554   1.932   3.065  17.990
 5696TIP3   OH267555   2.095   2.760  17.988
 5696TIP3    H167556   2.137   2.676  17.975
 5696TIP3    H267557   2.071   2.760  18.081
 5697TIP3   OH267558   3.163   2.558  18.098
 5697TIP3    H167559   3.185   2.464  18.097
 5697TIP3    H267560   3.250   2.598  18.107
 5698TIP3   OH267561   3.047   2.326  17.894
 5698TIP3    H167562   2.951   2.323  17.901
 5698TIP3    H267563   3.072   2.256  17.956
 5699TIP3   OH267564   2.704   2.071  18.091
 5699TIP3    H167565   2.686   2.030  18.008
 5699TIP3    H267566   2.648   2.152  18.092
 5700TIP3   OH267567   2.653   3.765  16.416
 5700TIP3    H167568   2.749   3.778  16.426
 5700TIP3    H267569   2.632   3.834  16.353
 5701TIP3   OH267570   2.012   3.224  16.366
 5701TIP3    H167571   2.106   3.236  16.389
 5701TIP3    H267572   2.014   3.164  16.291
 5702TIP3   OH267573   1.888   3.762  16.859
 5702TIP3    H167574   1.811   3.719  16.821
 5702TIP3    H267575   1.911   3.702  16.932
 5703TIP3   OH267576   1.972   3.579  17.049
 5703TIP3    H167577   1.934   3.492  17.068
 5703TIP3    H267578   1.988   3.613  17.138
 5704TIP3   OH267579   3.716   3.662  17.342
 5704TIP3    H167580   3.722   3.670  17.439
 5704TIP3    H267581   3.793   3.713  17.314
 5705TIP3   OH267582   3.680   3.615  17.637
 5705TIP3    H167583   3.630   3.540  17.600
 5705TIP3    H267584   3.728   3.570  17.708
 5706TIP3   OH267585   3.530   3.181  18.099
 5706TIP3    H167586   3.439   3.178  18.133
 5706TIP3    H267587   3.561   3.261  18.142
 5707TIP3   OH267588   3.657   3.019  16.649
 5707TIP3    H167589   3.742   3.059  16.670
 5707TIP3    H267590   3.653   2.949  16.717
 5708TIP3   OH267591   3.695   2.824  16.834
 5708TIP3    H167592   3.616   2.779  16.872
 5708TIP3    H267593   3.749   2.843  16.914
 5709TIP3   OH267594   3.717   2.809  16.475
 5709TIP3    H167595   3.665   2.847  16.405
 5709TIP3    H267596   3.716   2.880  16.542
 5710TIP3   OH267597   3.548   2.532  16.330
 5710TIP3    H167598   3.566   2.598  16.262
 5710TIP3    H267599   3.535   2.450  16.279
 5711TIP3   OH267600   3.478   2.673  16.895
 5711TIP3    H167601   3.454   2.580  16.889
 5711TIP3    H267602   3.434   2.699  16.978
 5712TIP3   OH267603   3.707   2.664  17.927
 5712TIP3    H167604   3.619   2.624  17.913
 5712TIP3    H267605   3.763   2.585  17.919
 5713TIP3   OH267606   3.479   2.278  16.239
 5713TIP3    H167607   3.540   2.237  16.304
 5713TIP3    H267608   3.394   2.238  16.261
 5714TIP3   OH267609   3.441   2.434  16.740
 5714TIP3    H167610   3.471   2.341  16.752
 5714TIP3    H267611   3.519   2.475  16.701
 5715TIP3   OH267612   3.503   2.486  17.284
 5715TIP3    H167613   3.599   2.510  17.283
 5715TIP3    H267614   3.483   2.499  17.379
 5716TIP3   OH267615   3.504   2.561  17.559
 5716TIP3    H167616   3.420   2.591  17.596
 5716TIP3    H267617   3.555   2.643  17.540
 5717TIP3   OH267618   1.935   2.413  17.914
 5717TIP3    H167619   2.027   2.394  17.931
 5717TIP3    H267620   1.892   2.330  17.943
 5718TIP3   OH267621   3.503   2.162  16.743
 5718TIP3    H167622   3.524   2.118  16.826
 5718TIP3    H267623   3.444   2.097  16.699
 5719TIP3   OH267624   2.051   2.243  17.196
 5719TIP3    H167625   2.097   2.161  17.225
 5719TIP3    H267626   2.103   2.310  17.240
 5720TIP3   OH267627   1.880   2.539  17.302
 5720TIP3    H167628   1.937   2.520  17.225
 5720TIP3    H267629   1.921   2.622  17.330
 5721TIP3   OH267630   3.685   2.167  16.397
 5721TIP3    H167631   3.733   2.098  16.351
 5721TIP3    H267632   3.757   2.232  16.402
 5722TIP3   OH267633   1.916   2.171  16.710
 5722TIP3    H167634   1.822   2.187  16.694
 5722TIP3    H267635   1.962   2.218  16.639
 5723TIP3   OH267636   3.394   3.665  16.908
 5723TIP3    H167637   3.459   3.633  16.844
 5723TIP3    H267638   3.449   3.711  16.973
 5724TIP3   OH267639   1.916   2.042  17.543
 5724TIP3    H167640   1.850   2.013  17.605
 5724TIP3    H267641   1.867   2.104  17.485
 5725TIP3   OH267642   2.135   3.360  17.958
 5725TIP3    H167643   2.050   3.374  17.914
 5725TIP3    H267644   2.111   3.345  18.051
 5726TIP3   OH267645   2.427   3.455  17.580
 5726TIP3    H167646   2.393   3.542  17.556
 5726TIP3    H267647   2.521   3.466  17.556
 5727TIP3   OH267648   2.169   3.774  17.585
 5727TIP3    H167649   2.097   3.825  17.546
 5727TIP3    H267650   2.138   3.760  17.676
 5728TIP3   OH267651   2.417   3.738  17.486
 5728TIP3    H167652   2.332   3.753  17.534
 5728TIP3    H267653   2.406   3.798  17.412
 5729TIP3   OH267654   3.374   3.771  17.533
 5729TIP3    H167655   3.367   3.866  17.509
 5729TIP3    H267656   3.396   3.729  17.448
 5730TIP3   OH267657   2.114   3.644  17.280
 5730TIP3    H167658   2.106   3.599  17.366
 5730TIP3    H267659   2.194   3.606  17.238
 5731TIP3   OH267660   2.320   3.516  17.152
 5731TIP3    H167661   2.306   3.421  17.165
 5731TIP3    H267662   2.409   3.529  17.189
 5732TIP3   OH267663   2.928   2.129  17.143
 5732TIP3    H167664   2.861   2.067  17.174
 5732TIP3    H267665   2.986   2.078  17.088
 5733TIP3   OH267666   2.162   1.991  16.933
 5733TIP3    H167667   2.086   1.970  16.878
 5733TIP3    H267668   2.216   1.910  16.926
 5734TIP3   OH267669   2.617   1.986  16.909
 5734TIP3    H167670   2.708   2.019  16.905
 5734TIP3    H267671   2.607   1.963  17.002
 5735TIP3   OH267672   3.311   1.990  16.635
 5735TIP3    H167673   3.237   2.049  16.620
 5735TIP3    H267674   3.265   1.906  16.661
 5736TIP3   OH267675   2.036   3.565  16.601
 5736TIP3    H167676   1.968   3.560  16.533
 5736TIP3    H267677   2.036   3.659  16.622
 5737TIP3   OH267678   2.724   2.188  16.598
 5737TIP3    H167679   2.756   2.126  16.665
 5737TIP3    H267680   2.734   2.272  16.643
 5738TIP3   OH267681   2.924   3.709  16.443
 5738TIP3    H167682   3.016   3.722  16.418
 5738TIP3    H267683   2.899   3.652  16.369
 5739TIP3   OH267684   3.589   3.647  16.707
 5739TIP3    H167685   3.572   3.566  16.653
 5739TIP3    H267686   3.587   3.718  16.643
 5740TIP3   OH267687   2.152   2.045  17.881
 5740TIP3    H167688   2.117   1.963  17.917
 5740TIP3    H267689   2.246   2.041  17.909
 5741TIP3   OH267690   2.357   1.983  18.042
 5741TIP3    H167691   2.442   1.953  18.015
 5741TIP3    H267692   2.315   1.902  18.079
 5742TIP3   OH267693   2.220   3.658  16.300
 5742TIP3    H167694   2.189   3.687  16.386
 5742TIP3    H267695   2.295   3.602  16.317
 5743TIP3   OH267696   3.520   3.521  17.913
 5743TIP3    H167697   3.438   3.499  17.868
 5743TIP3    H267698   3.504   3.613  17.943
 5744TIP3   OH267699   4.956   2.905  16.920
 5744TIP3    H167700   4.961   3.003  16.910
 5744TIP3    H267701   4.890   2.881  16.853
 5745TIP3   OH267702   4.845   2.833  17.266
 5745TIP3    H167703   4.848   2.769  17.338
 5745TIP3    H267704   4.816   2.783  17.189
 5746TIP3   OH267705   4.079   2.798  17.423
 5746TIP3    H167706   4.091   2.728  17.491
 5746TIP3    H267707   4.157   2.851  17.442
 5747TIP3   OH267708   5.214   3.126  17.093
 5747TIP3    H167709   5.174   3.054  17.143
 5747TIP3    H267710   5.219   3.195  17.161
 5748TIP3   OH267711   4.179   3.243  17.275
 5748TIP3    H167712   4.145   3.158  17.243
 5748TIP3    H267713   4.273   3.223  17.278
 5749TIP3   OH267714   3.842   2.598  16.816
 5749TIP3    H167715   3.795   2.685  16.815
 5749TIP3    H267716   3.781   2.545  16.765
 5750TIP3   OH267717   3.908   2.824  17.033
 5750TIP3    H167718   3.933   2.743  17.082
 5750TIP3    H267719   3.981   2.831  16.970
 5751TIP3   OH267720   4.684   3.070  17.315
 5751TIP3    H167721   4.716   3.002  17.253
 5751TIP3    H267722   4.765   3.082  17.366
 5752TIP3   OH267723   4.994   2.515  17.343
 5752TIP3    H167724   5.021   2.422  17.343
 5752TIP3    H267725   4.990   2.532  17.247
 5753TIP3   OH267726   5.088   2.335  16.904
 5753TIP3    H167727   5.153   2.303  16.969
 5753TIP3    H267728   5.142   2.392  16.847
 5754TIP3   OH267729   3.973   2.567  17.140
 5754TIP3    H167730   4.042   2.514  17.186
 5754TIP3    H267731   3.986   2.537  17.049
 5755TIP3   OH267732   4.494   2.723  17.068
 5755TIP3    H167733   4.551   2.661  17.113
 5755TIP3    H267734   4.439   2.658  17.020
 5756TIP3   OH267735   4.931   3.163  16.824
 5756TIP3    H167736   4.904   3.138  16.735
 5756TIP3    H267737   4.906   3.257  16.830
 5757TIP3   OH267738   4.456   2.982  17.495
 5757TIP3    H167739   4.381   3.043  17.515
 5757TIP3    H267740   4.525   3.042  17.467
 5758TIP3   OH267741   5.267   2.265  17.102
 5758TIP3    H167742   5.240   2.192  17.159
 5758TIP3    H267743   5.329   2.315  17.158
 5759TIP3   OH267744   4.152   2.408  17.269
 5759TIP3    H167745   4.216   2.470  17.309
 5759TIP3    H267746   4.204   2.359  17.204
 5760TIP3   OH267747   4.302   3.181  17.575
 5760TIP3    H167748   4.295   3.273  17.546
 5760TIP3    H267749   4.215   3.172  17.621
 5761TIP3   OH267750   3.907   3.143  16.654
 5761TIP3    H167751   3.881   3.175  16.566
 5761TIP3    H267752   3.915   3.226  16.706
 5762TIP3   OH267753   5.269   3.310  17.332
 5762TIP3    H167754   5.173   3.316  17.343
 5762TIP3    H267755   5.293   3.402  17.313
 5763TIP3   OH267756   5.297   2.139  17.463
 5763TIP3    H167757   5.225   2.202  17.466
 5763TIP3    H267758   5.369   2.185  17.420
 5764TIP3   OH267759   5.096   3.489  16.995
 5764TIP3    H167760   5.136   3.418  16.940
 5764TIP3    H267761   5.133   3.568  16.951
 5765TIP3   OH267762   5.213   3.280  16.844
 5765TIP3    H167763   5.186   3.211  16.781
 5765TIP3    H267764   5.218   3.229  16.927
 5766TIP3   OH267765   5.382   3.138  17.692
 5766TIP3    H167766   5.390   3.075  17.617
 5766TIP3    H267767   5.399   3.225  17.650
 5767TIP3   OH267768   4.827   2.829  16.670
 5767TIP3    H167769   4.756   2.884  16.632
 5767TIP3    H267770   4.896   2.838  16.602
 5768TIP3   OH267771   4.832   2.680  16.377
 5768TIP3    H167772   4.906   2.682  16.439
 5768TIP3    H267773   4.864   2.618  16.310
 5769TIP3   OH267774   5.565   2.772  17.498
 5769TIP3    H167775   5.495   2.841  17.501
 5769TIP3    H267776   5.613   2.789  17.416
 5770TIP3   OH267777   5.167   2.848  16.759
 5770TIP3    H167778   5.096   2.875  16.822
 5770TIP3    H267779   5.217   2.784  16.813
 5771TIP3   OH267780   5.165   2.668  17.671
 5771TIP3    H167781   5.165   2.747  17.726
 5771TIP3    H267782   5.100   2.696  17.603
 5772TIP3   OH267783   4.336   2.918  16.952
 5772TIP3    H167784   4.301   2.877  16.869
 5772TIP3    H267785   4.394   2.846  16.987
 5773TIP3   OH267786   4.466   3.253  17.225
 5773TIP3    H167787   4.460   3.204  17.142
 5773TIP3    H267788   4.544   3.215  17.268
 5774TIP3   OH267789   4.363   2.796  17.312
 5774TIP3    H167790   4.423   2.801  17.237
 5774TIP3    H267791   4.404   2.852  17.380
 5775TIP3   OH267792   5.061   2.767  16.526
 5775TIP3    H167793   5.112   2.788  16.609
 5775TIP3    H267794   5.098   2.826  16.459
 5776TIP3   OH267795   4.155   2.850  17.705
 5776TIP3    H167796   4.157   2.917  17.775
 5776TIP3    H267797   4.061   2.857  17.681
 5777TIP3   OH267798   4.287   3.441  17.863
 5777TIP3    H167799   4.284   3.424  17.768
 5777TIP3    H267800   4.194   3.425  17.890
 5778TIP3   OH267801   5.432   1.942  16.516
 5778TIP3    H167802   5.337   1.952  16.539
 5778TIP3    H267803   5.451   2.028  16.475
 5779TIP3   OH267804   4.229   2.821  16.714
 5779TIP3    H167805   4.201   2.898  16.660
 5779TIP3    H267806   4.163   2.755  16.691
 5780TIP3   OH267807   5.624   3.390  17.814
 5780TIP3    H167808   5.628   3.302  17.852
 5780TIP3    H267809   5.566   3.431  17.883
 5781TIP3   OH267810   4.142   3.620  16.897
 5781TIP3    H167811   4.157   3.580  16.985
 5781TIP3    H267812   4.057   3.580  16.874
 5782TIP3   OH267813   5.350   2.554  17.898
 5782TIP3    H167814   5.307   2.598  17.824
 5782TIP3    H267815   5.356   2.463  17.867
 5783TIP3   OH267816   4.065   3.191  17.696
 5783TIP3    H167817   4.087   3.156  17.785
 5783TIP3    H267818   3.979   3.153  17.678
 5784TIP3   OH267819   5.134   2.392  17.717
 5784TIP3    H167820   5.077   2.369  17.793
 5784TIP3    H267821   5.112   2.484  17.695
 5785TIP3   OH267822   4.754   2.264  16.358
 5785TIP3    H167823   4.736   2.261  16.453
 5785TIP3    H267824   4.737   2.172  16.335
 5786TIP3   OH267825   4.340   2.554  16.900
 5786TIP3    H167826   4.248   2.523  16.892
 5786TIP3    H267827   4.380   2.516  16.819
 5787TIP3   OH267828   4.893   2.598  16.780
 5787TIP3    H167829   4.852   2.680  16.746
 5787TIP3    H267830   4.962   2.582  16.712
 5788TIP3   OH267831   4.798   2.620  17.923
 5788TIP3    H167832   4.745   2.543  17.955
 5788TIP3    H267833   4.882   2.606  17.970
 5789TIP3   OH267834   4.993   2.545  17.066
 5789TIP3    H167835   4.969   2.603  16.992
 5789TIP3    H267836   5.007   2.463  17.015
 5790TIP3   OH267837   4.103   2.567  17.588
 5790TIP3    H167838   4.115   2.605  17.676
 5790TIP3    H267839   4.062   2.482  17.603
 5791TIP3   OH267840   3.901   2.351  16.529
 5791TIP3    H167841   3.948   2.407  16.467
 5791TIP3    H267842   3.828   2.410  16.556
 5792TIP3   OH267843   4.918   2.706  17.521
 5792TIP3    H167844   4.953   2.635  17.463
 5792TIP3    H267845   4.872   2.655  17.590
 5793TIP3   OH267846   4.079   2.462  16.890
 5793TIP3    H167847   3.989   2.474  16.851
 5793TIP3    H267848   4.105   2.377  16.852
 5794TIP3   OH267849   4.439   2.470  16.656
 5794TIP3    H167850   4.536   2.470  16.669
 5794TIP3    H267851   4.422   2.533  16.587
 5795TIP3   OH267852   5.036   2.229  17.329
 5795TIP3    H167853   4.969   2.232  17.398
 5795TIP3    H267854   4.988   2.203  17.249
 5796TIP3   OH267855   4.128   3.040  17.917
 5796TIP3    H167856   4.198   3.066  17.980
 5796TIP3    H267857   4.048   3.048  17.975
 5797TIP3   OH267858   4.648   3.034  16.607
 5797TIP3    H167859   4.568   2.988  16.572
 5797TIP3    H267860   4.625   3.045  16.701
 5798TIP3   OH267861   5.366   2.956  17.486
 5798TIP3    H167862   5.421   3.004  17.422
 5798TIP3    H267863   5.278   2.961  17.440
 5799TIP3   OH267864   5.032   2.315  16.421
 5799TIP3    H167865   4.937   2.330  16.406
 5799TIP3    H267866   5.063   2.402  16.454
 5800TIP3   OH267867   4.787   3.059  17.726
 5800TIP3    H167868   4.765   3.018  17.811
 5800TIP3    H267869   4.778   3.153  17.742
 5801TIP3   OH267870   5.104   2.507  16.589
 5801TIP3    H167871   5.195   2.494  16.625
 5801TIP3    H267872   5.112   2.588  16.537
 5802TIP3   OH267873   4.157   2.972  17.186
 5802TIP3    H167874   4.226   2.966  17.117
 5802TIP3    H267875   4.167   2.886  17.231
 5803TIP3   OH267876   4.857   3.186  16.511
 5803TIP3    H167877   4.823   3.268  16.544
 5803TIP3    H267878   4.786   3.121  16.527
 5804TIP3   OH267879   3.857   2.815  17.711
 5804TIP3    H167880   3.876   2.771  17.795
 5804TIP3    H267881   3.796   2.753  17.667
 5805TIP3   OH267882   4.558   2.770  17.933
 5805TIP3    H167883   4.527   2.744  17.844
 5805TIP3    H267884   4.651   2.739  17.928
 5806TIP3   OH267885   5.588   2.523  16.561
 5806TIP3    H167886   5.538   2.487  16.488
 5806TIP3    H267887   5.601   2.616  16.533
 5807TIP3   OH267888   5.595   3.100  17.843
 5807TIP3    H167889   5.508   3.133  17.809
 5807TIP3    H267890   5.650   3.108  17.763
 5808TIP3   OH267891   5.425   3.406  16.602
 5808TIP3    H167892   5.386   3.325  16.638
 5808TIP3    H267893   5.451   3.384  16.512
 5809TIP3   OH267894   5.145   2.888  17.313
 5809TIP3    H167895   5.050   2.868  17.305
 5809TIP3    H267896   5.185   2.811  17.271
 5810TIP3   OH267897   4.395   3.319  16.917
 5810TIP3    H167898   4.447   3.399  16.904
 5810TIP3    H267899   4.305   3.345  16.891
 5811TIP3   OH267900   4.539   3.087  16.877
 5811TIP3    H167901   4.504   3.178  16.883
 5811TIP3    H267902   4.465   3.038  16.918
 5812TIP3   OH267903   5.618   3.651  16.411
 5812TIP3    H167904   5.689   3.714  16.392
 5812TIP3    H267905   5.545   3.710  16.440
 5813TIP3   OH267906   5.249   3.068  16.610
 5813TIP3    H167907   5.221   2.994  16.665
 5813TIP3    H267908   5.343   3.079  16.631
 5814TIP3   OH267909   3.988   3.469  17.509
 5814TIP3    H167910   4.012   3.375  17.508
 5814TIP3    H267911   4.009   3.496  17.599
 5815TIP3   OH267912   4.459   3.273  16.477
 5815TIP3    H167913   4.483   3.218  16.553
 5815TIP3    H267914   4.465   3.364  16.511
 5816TIP3   OH267915   4.111   2.999  16.527
 5816TIP3    H167916   4.042   3.038  16.584
 5816TIP3    H267917   4.165   3.075  16.504
 5817TIP3   OH267918   4.971   2.221  16.671
 5817TIP3    H167919   4.993   2.269  16.589
 5817TIP3    H267920   5.024   2.268  16.737
 5818TIP3   OH267921   4.692   2.405  16.747
 5818TIP3    H167922   4.774   2.456  16.753
 5818TIP3    H267923   4.669   2.388  16.839
 5819TIP3   OH267924   4.757   2.503  17.666
 5819TIP3    H167925   4.754   2.557  17.747
 5819TIP3    H267926   4.815   2.431  17.688
 5820TIP3   OH267927   4.474   3.545  16.549
 5820TIP3    H167928   4.492   3.626  16.503
 5820TIP3    H267929   4.450   3.575  16.639
 5821TIP3   OH267930   5.227   2.665  17.157
 5821TIP3    H167931   5.144   2.623  17.129
 5821TIP3    H267932   5.272   2.596  17.210
 5822TIP3   OH267933   4.168   3.261  16.415
 5822TIP3    H167934   4.234   3.322  16.450
 5822TIP3    H267935   4.221   3.214  16.349
 5823TIP3   OH267936   5.329   3.590  17.322
 5823TIP3    H167937   5.322   3.658  17.255
 5823TIP3    H267938   5.425   3.597  17.345
 5824TIP3   OH267939   3.979   3.394  16.817
 5824TIP3    H167940   3.895   3.442  16.816
 5824TIP3    H267941   4.027   3.443  16.750
 5825TIP3   OH267942   3.900   3.659  17.948
 5825TIP3    H167943   3.960   3.640  18.023
 5825TIP3    H267944   3.860   3.573  17.930
 5826TIP3   OH267945   4.370   3.554  18.110
 5826TIP3    H167946   4.447   3.503  18.140
 5826TIP3    H267947   4.363   3.522  18.017
 5827TIP3   OH267948   3.893   3.038  18.043
 5827TIP3    H167949   3.907   2.945  18.017
 5827TIP3    H267950   3.815   3.063  17.992
 5828TIP3   OH267951   4.562   3.038  17.986
 5828TIP3    H167952   4.526   3.064  17.901
 5828TIP3    H267953   4.574   2.941  17.975
 5829TIP3   OH267954   5.132   3.026  17.727
 5829TIP3    H167955   5.211   3.083  17.717
 5829TIP3    H267956   5.059   3.089  17.728
 5830TIP3   OH267957   3.984   2.761  17.986
 5830TIP3    H167958   4.023   2.674  17.976
 5830TIP3    H267959   3.958   2.761  18.080
 5831TIP3   OH267960   4.448   2.875  16.489
 5831TIP3    H167961   4.398   2.823  16.554
 5831TIP3    H267962   4.476   2.806  16.425
 5832TIP3   OH267963   4.374   2.661  17.729
 5832TIP3    H167964   4.310   2.731  17.745
 5832TIP3    H267965   4.410   2.688  17.642
 5833TIP3   OH267966   4.553   2.696  16.310
 5833TIP3    H167967   4.546   2.687  16.216
 5833TIP3    H267968   4.650   2.704  16.323
 5834TIP3   OH267969   4.878   2.911  18.058
 5834TIP3    H167970   4.974   2.911  18.043
 5834TIP3    H267971   4.862   2.834  18.114
 5835TIP3   OH267972   4.611   2.780  17.606
 5835TIP3    H167973   4.684   2.763  17.546
 5835TIP3    H267974   4.570   2.860  17.572
 5836TIP3   OH267975   5.048   2.556  18.104
 5836TIP3    H167976   5.071   2.462  18.096
 5836TIP3    H267977   5.135   2.599  18.103
 5837TIP3   OH267978   5.181   2.839  17.919
 5837TIP3    H167979   5.155   2.909  17.856
 5837TIP3    H267980   5.276   2.832  17.896
 5838TIP3   OH267981   4.657   2.408  17.982
 5838TIP3    H167982   4.631   2.386  18.073
 5838TIP3    H267983   4.579   2.385  17.930
 5839TIP3   OH267984   4.928   2.322  17.890
 5839TIP3    H167985   4.833   2.327  17.906
 5839TIP3    H267986   4.959   2.258  17.956
 5840TIP3   OH267987   5.089   2.184  18.082
 5840TIP3    H167988   5.083   2.087  18.086
 5840TIP3    H267989   5.062   2.213  18.173
 5841TIP3   OH267990   3.898   3.229  16.363
 5841TIP3    H167991   3.993   3.235  16.387
 5841TIP3    H267992   3.896   3.162  16.294
 5842TIP3   OH267993   3.771   3.765  16.861
 5842TIP3    H167994   3.699   3.716  16.816
 5842TIP3    H267995   3.798   3.699  16.929
 5843TIP3   OH267996   3.855   3.576  17.048
 5843TIP3    H167997   3.817   3.489  17.069
 5843TIP3    H267998   3.875   3.609  17.137
 5844TIP3   OH267999   5.607   3.651  17.346
 5844TIP3    H168000   5.604   3.673  17.440
 5844TIP3    H268001   5.673   3.713  17.313
 5845TIP3   OH268002   5.408   3.185  18.105
 5845TIP3    H168003   5.321   3.186  18.145
 5845TIP3    H268004   5.449   3.263  18.148
 5846TIP3   OH268005   5.540   3.020  16.652
 5846TIP3    H168006   5.625   3.061  16.669
 5846TIP3    H268007   5.540   2.947  16.718
 5847TIP3   OH268008   5.577   2.830  16.837
 5847TIP3    H168009   5.504   2.775  16.872
 5847TIP3    H268010   5.635   2.838  16.913
 5848TIP3   OH268011   5.555   3.096  17.332
 5848TIP3    H168012   5.638   3.066  17.296
 5848TIP3    H268013   5.564   3.193  17.318
 5849TIP3   OH268014   5.404   3.386  17.562
 5849TIP3    H168015   5.339   3.425  17.621
 5849TIP3    H268016   5.349   3.348  17.491
 5850TIP3   OH268017   5.578   2.802  16.485
 5850TIP3    H168018   5.549   2.847  16.405
 5850TIP3    H268019   5.598   2.880  16.542
 5851TIP3   OH268020   5.353   2.679  16.895
 5851TIP3    H168021   5.345   2.582  16.890
 5851TIP3    H268022   5.318   2.697  16.984
 5852TIP3   OH268023   3.856   2.888  17.299
 5852TIP3    H168024   3.877   2.875  17.204
 5852TIP3    H268025   3.944   2.867  17.337
 5853TIP3   OH268026   5.444   2.871  17.869
 5853TIP3    H168027   5.502   2.794  17.877
 5853TIP3    H268028   5.502   2.950  17.860
 5854TIP3   OH268029   5.366   2.272  16.238
 5854TIP3    H168030   5.425   2.236  16.306
 5854TIP3    H268031   5.278   2.240  16.260
 5855TIP3   OH268032   5.326   2.435  16.742
 5855TIP3    H168033   5.355   2.341  16.751
 5855TIP3    H268034   5.406   2.475  16.702
 5856TIP3   OH268035   5.392   2.483  17.283
 5856TIP3    H168036   5.482   2.516  17.280
 5856TIP3    H268037   5.369   2.503  17.376
 5857TIP3   OH268038   5.389   2.563  17.547
 5857TIP3    H168039   5.308   2.589  17.595
 5857TIP3    H268040   5.438   2.648  17.545
 5858TIP3   OH268041   3.821   2.416  17.918
 5858TIP3    H168042   3.914   2.396  17.934
 5858TIP3    H268043   3.769   2.339  17.944
 5859TIP3   OH268044   5.614   1.962  18.097
 5859TIP3    H168045   5.658   1.900  18.036
 5859TIP3    H268046   5.634   2.046  18.049
 5860TIP3   OH268047   5.392   2.163  16.745
 5860TIP3    H168048   5.411   2.116  16.827
 5860TIP3    H268049   5.331   2.102  16.699
 5861TIP3   OH268050   3.767   2.545  17.304
 5861TIP3    H168051   3.824   2.523  17.228
 5861TIP3    H268052   3.815   2.624  17.333
 5862TIP3   OH268053   5.575   2.172  17.933
 5862TIP3    H168054   5.482   2.203  17.932
 5862TIP3    H268055   5.583   2.122  17.851
 5863TIP3   OH268056   5.575   2.166  16.401
 5863TIP3    H168057   5.617   2.095  16.350
 5863TIP3    H268058   5.642   2.234  16.400
 5864TIP3   OH268059   3.805   2.172  16.716
 5864TIP3    H168060   3.712   2.187  16.695
 5864TIP3    H268061   3.849   2.213  16.640
 5865TIP3   OH268062   5.277   3.667  16.904
 5865TIP3    H168063   5.347   3.633  16.845
 5865TIP3    H268064   5.330   3.718  16.967
 5866TIP3   OH268065   4.024   3.358  17.961
 5866TIP3    H168066   3.940   3.378  17.916
 5866TIP3    H268067   3.995   3.350  18.052
 5867TIP3   OH268068   4.313   3.455  17.587
 5867TIP3    H168069   4.278   3.540  17.558
 5867TIP3    H268070   4.403   3.464  17.556
 5868TIP3   OH268071   5.473   1.985  17.719
 5868TIP3    H168072   5.393   2.014  17.673
 5868TIP3    H268073   5.497   1.907  17.666
 5869TIP3   OH268074   4.056   3.779  17.587
 5869TIP3    H168075   3.982   3.827  17.544
 5869TIP3    H268076   4.021   3.757  17.673
 5870TIP3   OH268077   4.297   3.731  17.489
 5870TIP3    H168078   4.211   3.753  17.532
 5870TIP3    H268079   4.302   3.797  17.416
 5871TIP3   OH268080   4.000   3.646  17.280
 5871TIP3    H168081   3.992   3.597  17.365
 5871TIP3    H268082   4.079   3.605  17.240
 5872TIP3   OH268083   4.214   3.515  17.143
 5872TIP3    H168084   4.190   3.423  17.167
 5872TIP3    H268085   4.296   3.527  17.192
 5873TIP3   OH268086   5.332   1.937  17.152
 5873TIP3    H168087   5.390   1.993  17.100
 5873TIP3    H268088   5.241   1.967  17.130
 5874TIP3   OH268089   5.072   1.987  17.072
 5874TIP3    H168090   5.064   1.997  16.976
 5874TIP3    H268091   5.031   1.898  17.085
 5875TIP3   OH268092   5.198   1.990  16.639
 5875TIP3    H168093   5.122   2.048  16.624
 5875TIP3    H268094   5.155   1.904  16.659
 5876TIP3   OH268095   3.921   3.562  16.605
 5876TIP3    H168096   3.857   3.560  16.533
 5876TIP3    H268097   3.924   3.657  16.621
 5877TIP3   OH268098   5.480   3.645  16.710
 5877TIP3    H168099   5.458   3.566  16.655
 5877TIP3    H268100   5.471   3.717  16.646
 5878TIP3   OH268101   4.107   3.661  16.300
 5878TIP3    H168102   4.073   3.686  16.387
 5878TIP3    H268103   4.179   3.602  16.318
 5879TIP3   OH268104   5.083   1.913  18.057
 5879TIP3    H168105   5.094   1.863  18.139
 5879TIP3    H268106   5.172   1.910  18.017
 5880TIP3   OH268107   5.399   3.517  17.908
 5880TIP3    H168108   5.313   3.501  17.869
 5880TIP3    H268109   5.396   3.604  17.946
 5881TIP3   OH268110   6.846   2.907  16.919
 5881TIP3    H168111   6.850   3.004  16.910
 5881TIP3    H268112   6.778   2.882  16.855
 5882TIP3   OH268113   7.100   3.127  17.092
 5882TIP3    H168114   7.062   3.054  17.143
 5882TIP3    H268115   7.104   3.197  17.159
 5883TIP3   OH268116   6.570   3.070  17.312
 5883TIP3    H168117   6.604   3.009  17.245
 5883TIP3    H268118   6.648   3.087  17.367
 5884TIP3   OH268119   6.895   2.520  17.341
 5884TIP3    H168120   6.899   2.423  17.345
 5884TIP3    H268121   6.875   2.534  17.248
 5885TIP3   OH268122   6.199   2.324  17.068
 5885TIP3    H168123   6.209   2.407  17.020
 5885TIP3    H268124   6.157   2.269  16.998
 5886TIP3   OH268125   6.093   2.215  17.474
 5886TIP3    H168126   6.065   2.266  17.398
 5886TIP3    H268127   6.020   2.233  17.538
 5887TIP3   OH268128   6.811   3.162  16.825
 5887TIP3    H168129   6.790   3.138  16.735
 5887TIP3    H268130   6.789   3.257  16.832
 5888TIP3   OH268131   6.343   2.984  17.503
 5888TIP3    H168132   6.270   3.048  17.515
 5888TIP3    H268133   6.411   3.041  17.464
 5889TIP3   OH268134   6.183   3.185  17.577
 5889TIP3    H168135   6.182   3.272  17.537
 5889TIP3    H268136   6.096   3.177  17.622
 5890TIP3   OH268137   6.483   1.951  17.214
 5890TIP3    H168138   6.474   1.854  17.210
 5890TIP3    H268139   6.396   1.980  17.247
 5891TIP3   OH268140   7.096   3.279  16.840
 5891TIP3    H168141   7.072   3.207  16.782
 5891TIP3    H268142   7.105   3.235  16.926
 5892TIP3   OH268143   6.712   2.835  16.670
 5892TIP3    H168144   6.638   2.882  16.630
 5892TIP3    H268145   6.782   2.836  16.602
 5893TIP3   OH268146   6.721   2.683  16.378
 5893TIP3    H168147   6.793   2.674  16.441
 5893TIP3    H268148   6.744   2.616  16.311
 5894TIP3   OH268149   6.354   3.258  17.218
 5894TIP3    H168150   6.347   3.202  17.139
 5894TIP3    H268151   6.427   3.218  17.267
 5895TIP3   OH268152   6.889   3.346  17.390
 5895TIP3    H168153   6.861   3.409  17.454
 5895TIP3    H268154   6.866   3.260  17.431
 5896TIP3   OH268155   6.344   3.234  17.791
 5896TIP3    H168156   6.306   3.313  17.834
 5896TIP3    H268157   6.282   3.215  17.718
 5897TIP3   OH268158   6.947   2.766  16.527
 5897TIP3    H168159   6.996   2.786  16.608
 5897TIP3    H268160   6.984   2.824  16.461
 5898TIP3   OH268161   6.714   3.442  16.870
 5898TIP3    H168162   6.761   3.469  16.950
 5898TIP3    H268163   6.655   3.515  16.851
 5899TIP3   OH268164   6.171   3.429  17.863
 5899TIP3    H168165   6.163   3.431  17.768
 5899TIP3    H268166   6.077   3.427  17.889
 5900TIP3   OH268167   7.314   1.940  16.515
 5900TIP3    H168168   7.220   1.956  16.541
 5900TIP3    H268169   7.337   2.024  16.475
 5901TIP3   OH268170   7.430   3.380  16.356
 5901TIP3    H168171   7.440   3.477  16.363
 5901TIP3    H268172   7.521   3.350  16.343
 5902TIP3   OH268173   5.724   3.058  17.602
 5902TIP3    H168174   5.676   3.057  17.517
 5902TIP3    H268175   5.729   2.963  17.620
 5903TIP3   OH268176   5.703   3.333  17.285
 5903TIP3    H168177   5.798   3.326  17.277
 5903TIP3    H268178   5.691   3.417  17.332
 5904TIP3   OH268179   7.527   3.399  17.855
 5904TIP3    H168180   7.508   3.307  17.844
 5904TIP3    H268181   7.440   3.435  17.887
 5905TIP3   OH268182   6.623   3.357  17.743
 5905TIP3    H168183   6.623   3.445  17.782
 5905TIP3    H268184   6.533   3.325  17.758
 5906TIP3   OH268185   6.940   3.647  16.693
 5906TIP3    H168186   6.845   3.655  16.707
 5906TIP3    H268187   6.965   3.572  16.749
 5907TIP3   OH268188   5.953   3.184  17.695
 5907TIP3    H168189   5.969   3.161  17.787
 5907TIP3    H268190   5.862   3.152  17.677
 5908TIP3   OH268191   6.216   2.038  17.292
 5908TIP3    H168192   6.127   2.028  17.256
 5908TIP3    H268193   6.208   2.123  17.341
 5909TIP3   OH268194   6.683   2.010  17.630
 5909TIP3    H168195   6.725   1.967  17.707
 5909TIP3    H268196   6.587   1.993  17.643
 5910TIP3   OH268197   6.650   2.265  16.362
 5910TIP3    H168198   6.615   2.261  16.454
 5910TIP3    H268199   6.620   2.178  16.334
 5911TIP3   OH268200   6.772   2.595  16.777
 5911TIP3    H168201   6.735   2.680  16.747
 5911TIP3    H268202   6.848   2.582  16.718
 5912TIP3   OH268203   6.686   2.615  17.927
 5912TIP3    H168204   6.628   2.547  17.961
 5912TIP3    H268205   6.771   2.604  17.973
 5913TIP3   OH268206   6.802   2.709  17.523
 5913TIP3    H168207   6.838   2.640  17.464
 5913TIP3    H268208   6.760   2.656  17.592
 5914TIP3   OH268209   6.483   2.292  17.003
 5914TIP3    H168210   6.390   2.306  17.030
 5914TIP3    H268211   6.529   2.294  17.087
 5915TIP3   OH268212   6.327   2.465  16.655
 5915TIP3    H168213   6.422   2.472  16.670
 5915TIP3    H268214   6.305   2.530  16.588
 5916TIP3   OH268215   6.920   2.222  17.331
 5916TIP3    H168216   6.851   2.231  17.401
 5916TIP3    H268217   6.867   2.203  17.252
 5917TIP3   OH268218   7.250   3.787  17.959
 5917TIP3    H168219   7.273   3.832  17.876
 5917TIP3    H268220   7.317   3.822  18.020
 5918TIP3   OH268221   6.114   2.194  16.842
 5918TIP3    H168222   6.080   2.104  16.833
 5918TIP3    H268223   6.189   2.194  16.782
 5919TIP3   OH268224   6.918   2.313  16.426
 5919TIP3    H168225   6.824   2.328  16.404
 5919TIP3    H268226   6.945   2.402  16.455
 5920TIP3   OH268227   6.685   3.060  17.728
 5920TIP3    H168228   6.647   3.016  17.805
 5920TIP3    H268229   6.660   3.153  17.739
 5921TIP3   OH268230   6.991   2.508  16.590
 5921TIP3    H168231   7.079   2.493  16.630
 5921TIP3    H268232   7.000   2.590  16.539
 5922TIP3   OH268233   6.741   3.183  16.510
 5922TIP3    H168234   6.710   3.267  16.546
 5922TIP3    H268235   6.669   3.123  16.529
 5923TIP3   OH268236   7.309   3.408  16.602
 5923TIP3    H168237   7.272   3.327  16.639
 5923TIP3    H268238   7.337   3.383  16.512
 5924TIP3   OH268239   7.024   2.889  17.304
 5924TIP3    H168240   6.933   2.860  17.305
 5924TIP3    H268241   7.073   2.811  17.276
 5925TIP3   OH268242   6.281   3.318  16.919
 5925TIP3    H168243   6.330   3.398  16.900
 5925TIP3    H268244   6.192   3.341  16.892
 5926TIP3   OH268245   6.294   3.591  16.822
 5926TIP3    H168246   6.198   3.594  16.839
 5926TIP3    H268247   6.324   3.669  16.868
 5927TIP3   OH268248   6.828   3.106  17.483
 5927TIP3    H168249   6.785   3.081  17.567
 5927TIP3    H268250   6.888   3.032  17.464
 5928TIP3   OH268251   7.500   3.650  16.410
 5928TIP3    H168252   7.572   3.709  16.389
 5928TIP3    H268253   7.428   3.707  16.440
 5929TIP3   OH268254   5.875   3.470  17.509
 5929TIP3    H168255   5.895   3.375  17.513
 5929TIP3    H268256   5.890   3.498  17.601
 5930TIP3   OH268257   6.785   2.259  17.553
 5930TIP3    H168258   6.846   2.273  17.626
 5930TIP3    H268259   6.742   2.176  17.580
 5931TIP3   OH268260   6.858   2.224  16.674
 5931TIP3    H168261   6.879   2.269  16.589
 5931TIP3    H268262   6.918   2.271  16.730
 5932TIP3   OH268263   6.582   2.396  16.750
 5932TIP3    H168264   6.658   2.457  16.758
 5932TIP3    H268265   6.550   2.385  16.842
 5933TIP3   OH268266   6.669   2.103  16.845
 5933TIP3    H168267   6.630   2.169  16.905
 5933TIP3    H268268   6.731   2.159  16.794
 5934TIP3   OH268269   6.357   3.542  16.548
 5934TIP3    H168270   6.383   3.623  16.504
 5934TIP3    H268271   6.338   3.571  16.639
 5935TIP3   OH268272   6.055   3.262  16.415
 5935TIP3    H168273   6.117   3.326  16.451
 5935TIP3    H268274   6.105   3.212  16.351
 5936TIP3   OH268275   7.219   3.592  17.327
 5936TIP3    H168276   7.206   3.655  17.255
 5936TIP3    H268277   7.314   3.597  17.341
 5937TIP3   OH268278   5.866   3.403  16.827
 5937TIP3    H168279   5.779   3.441  16.813
 5937TIP3    H268280   5.911   3.441  16.750
 5938TIP3   OH268281   5.823   3.672  17.920
 5938TIP3    H168282   5.846   3.649  18.013
 5938TIP3    H268283   5.755   3.599  17.918
 5939TIP3   OH268284   5.781   3.044  18.045
 5939TIP3    H168285   5.794   2.953  18.019
 5939TIP3    H268286   5.702   3.068  17.992
 5940TIP3   OH268287   7.020   3.033  17.715
 5940TIP3    H168288   7.096   3.089  17.714
 5940TIP3    H268289   6.945   3.089  17.733
 5941TIP3   OH268290   6.764   2.912  18.059
 5941TIP3    H168291   6.858   2.913  18.042
 5941TIP3    H268292   6.748   2.831  18.111
 5942TIP3   OH268293   6.496   2.780  17.600
 5942TIP3    H168294   6.573   2.766  17.544
 5942TIP3    H268295   6.457   2.865  17.572
 5943TIP3   OH268296   6.934   2.559  18.098
 5943TIP3    H168297   6.956   2.465  18.096
 5943TIP3    H268298   7.022   2.599  18.103
 5944TIP3   OH268299   6.417   1.982  17.627
 5944TIP3    H168300   6.402   2.075  17.608
 5944TIP3    H268301   6.347   1.939  17.574
 5945TIP3   OH268302   6.815   2.318  17.885
 5945TIP3    H168303   6.721   2.325  17.901
 5945TIP3    H268304   6.849   2.262  17.958
 5946TIP3   OH268305   6.977   2.185  18.084
 5946TIP3    H168306   6.969   2.088  18.085
 5946TIP3    H268307   6.953   2.214  18.175
 5947TIP3   OH268308   5.968   2.310  17.993
 5947TIP3    H168309   5.974   2.236  17.930
 5947TIP3    H268310   5.946   2.268  18.076
 5948TIP3   OH268311   6.442   1.913  17.890
 5948TIP3    H168312   6.506   1.841  17.888
 5948TIP3    H268313   6.429   1.931  17.794
 5949TIP3   OH268314   6.475   2.079  18.096
 5949TIP3    H168315   6.457   2.022  18.017
 5949TIP3    H268316   6.411   2.150  18.088
 5950TIP3   OH268317   5.652   3.766  16.870
 5950TIP3    H168318   5.586   3.716  16.817
 5950TIP3    H268319   5.687   3.697  16.929
 5951TIP3   OH268320   5.739   3.574  17.049
 5951TIP3    H168321   5.702   3.487  17.068
 5951TIP3    H268322   5.756   3.609  17.138
 5952TIP3   OH268323   7.498   3.652  17.347
 5952TIP3    H168324   7.487   3.677  17.440
 5952TIP3    H268325   7.555   3.720  17.310
 5953TIP3   OH268326   7.242   2.276  16.245
 5953TIP3    H168327   7.304   2.239  16.307
 5953TIP3    H268328   7.158   2.233  16.261
 5954TIP3   OH268329   7.214   2.430  16.728
 5954TIP3    H168330   7.241   2.339  16.751
 5954TIP3    H268331   7.295   2.471  16.701
 5955TIP3   OH268332   7.278   2.162  16.743
 5955TIP3    H168333   7.296   2.118  16.829
 5955TIP3    H268334   7.214   2.101  16.702
 5956TIP3   OH268335   7.452   2.170  17.932
 5956TIP3    H168336   7.363   2.204  17.922
 5956TIP3    H268337   7.466   2.121  17.850
 5957TIP3   OH268338   5.689   2.163  16.701
 5957TIP3    H168339   5.595   2.187  16.698
 5957TIP3    H268340   5.732   2.222  16.641
 5958TIP3   OH268341   5.908   3.343  17.957
 5958TIP3    H168342   5.827   3.380  17.915
 5958TIP3    H268343   5.876   3.353  18.048
 5959TIP3   OH268344   7.360   1.985  17.716
 5959TIP3    H168345   7.277   2.013  17.674
 5959TIP3    H268346   7.380   1.904  17.665
 5960TIP3   OH268347   5.883   3.641  17.278
 5960TIP3    H168348   5.876   3.598  17.366
 5960TIP3    H268349   5.966   3.606  17.245
 5961TIP3   OH268350   6.704   2.127  17.149
 5961TIP3    H168351   6.634   2.064  17.173
 5961TIP3    H268352   6.754   2.075  17.085
 5962TIP3   OH268353   7.214   1.931  17.152
 5962TIP3    H168354   7.275   1.994  17.105
 5962TIP3    H268355   7.127   1.968  17.130
 5963TIP3   OH268356   7.381   2.054  16.980
 5963TIP3    H168357   7.451   1.998  16.938
 5963TIP3    H268358   7.429   2.138  16.995
 5964TIP3   OH268359   5.940   1.993  16.925
 5964TIP3    H168360   5.855   1.972  16.883
 5964TIP3    H268361   5.983   1.906  16.927
 5965TIP3   OH268362   5.811   1.970  16.501
 5965TIP3    H168363   5.864   2.035  16.453
 5965TIP3    H268364   5.757   2.023  16.562
 5966TIP3   OH268365   6.386   1.981  16.909
 5966TIP3    H168366   6.475   2.020  16.902
 5966TIP3    H268367   6.380   1.966  17.003
 5967TIP3   OH268368   6.954   1.989  17.070
 5967TIP3    H168369   6.953   1.994  16.975
 5967TIP3    H268370   6.918   1.898  17.085
 5968TIP3   OH268371   7.083   1.989  16.636
 5968TIP3    H168372   7.007   2.049  16.624
 5968TIP3    H268373   7.040   1.904  16.663
 5969TIP3   OH268374   5.806   3.562  16.603
 5969TIP3    H168375   5.738   3.560  16.533
 5969TIP3    H268376   5.807   3.658  16.621
 5970TIP3   OH268377   6.510   2.189  16.592
 5970TIP3    H168378   6.521   2.128  16.666
 5970TIP3    H268379   6.502   2.274  16.642
 5971TIP3   OH268380   7.372   3.645  16.706
 5971TIP3    H168381   7.343   3.564  16.656
 5971TIP3    H268382   7.355   3.718  16.649
 5972TIP3   OH268383   5.931   2.049  17.877
 5972TIP3    H168384   5.888   1.969  17.915
 5972TIP3    H268385   6.021   2.041  17.914
 5973TIP3   OH268386   6.134   1.970  18.022
 5973TIP3    H168387   6.225   1.940  18.016
 5973TIP3    H268388   6.091   1.902  18.079
 5974TIP3   OH268389   5.992   3.658  16.300
 5974TIP3    H168390   5.959   3.688  16.387
 5974TIP3    H268391   6.067   3.603  16.321
 5975TIP3   OH268392   6.968   1.915  18.051
 5975TIP3    H168393   6.976   1.868  18.137
 5975TIP3    H268394   7.059   1.910  18.018
 5976TIP3   OH268395   7.287   3.516  17.919
 5976TIP3    H168396   7.207   3.501  17.867
 5976TIP3    H268397   7.276   3.611  17.942
 5977TIP3   OH268398   7.857   2.792  17.417
 5977TIP3    H168399   7.850   2.737  17.495
 5977TIP3    H268400   7.927   2.856  17.438
 5978TIP3   OH268401   7.940   3.234  17.284
 5978TIP3    H168402   7.914   3.156  17.236
 5978TIP3    H268403   8.039   3.229  17.278
 5979TIP3   OH268404   8.038   2.337  17.068
 5979TIP3    H168405   8.088   2.411  17.026
 5979TIP3    H268406   8.036   2.269  16.999
 5980TIP3   OH268407   7.964   2.208  17.464
 5980TIP3    H168408   7.945   2.274  17.394
 5980TIP3    H268409   7.909   2.242  17.538
 5981TIP3   OH268410   7.926   2.400  17.285
 5981TIP3    H168411   7.990   2.472  17.305
 5981TIP3    H268412   7.974   2.369  17.203
 5982TIP3   OH268413   8.048   3.189  17.562
 5982TIP3    H168414   8.057   3.284  17.546
 5982TIP3    H268415   7.972   3.186  17.623
 5983TIP3   OH268416   8.057   3.432  17.865
 5983TIP3    H168417   8.052   3.428  17.767
 5983TIP3    H268418   7.962   3.425  17.887
 5984TIP3   OH268419   8.003   2.819  16.712
 5984TIP3    H168420   7.973   2.897  16.664
 5984TIP3    H268421   7.934   2.754  16.694
 5985TIP3   OH268422   7.592   3.337  17.275
 5985TIP3    H168423   7.686   3.318  17.282
 5985TIP3    H268424   7.577   3.413  17.332
 5986TIP3   OH268425   7.828   3.196  17.703
 5986TIP3    H168426   7.859   3.150  17.784
 5986TIP3    H268427   7.750   3.148  17.678
 5987TIP3   OH268428   8.097   2.033  17.302
 5987TIP3    H168429   8.013   2.030  17.252
 5987TIP3    H268430   8.094   2.124  17.332
 5988TIP3   OH268431   8.086   2.536  16.927
 5988TIP3    H168432   7.994   2.520  16.894
 5988TIP3    H268433   8.147   2.516  16.857
 5989TIP3   OH268434   7.545   2.273  16.983
 5989TIP3    H168435   7.612   2.270  17.055
 5989TIP3    H268436   7.591   2.237  16.906
 5990TIP3   OH268437   7.844   2.459  16.881
 5990TIP3    H168438   7.753   2.468  16.854
 5990TIP3    H268439   7.872   2.371  16.853
 5991TIP3   OH268440   8.079   2.573  16.414
 5991TIP3    H168441   8.025   2.546  16.338
 5991TIP3    H268442   8.160   2.598  16.368
 5992TIP3   OH268443   7.898   3.036  17.919
 5992TIP3    H168444   7.969   3.063  17.979
 5992TIP3    H268445   7.822   3.054  17.976
 5993TIP3   OH268446   7.978   2.195  16.841
 5993TIP3    H168447   7.956   2.100  16.844
 5993TIP3    H268448   8.069   2.193  16.807
 5994TIP3   OH268449   7.791   2.287  17.668
 5994TIP3    H168450   7.701   2.323  17.666
 5994TIP3    H268451   7.780   2.202  17.714
 5995TIP3   OH268452  -0.035   2.226  16.489
 5995TIP3    H168453  -0.039   2.310  16.538
 5995TIP3    H268454   0.050   2.187  16.518
 5996TIP3   OH268455   7.852   2.005  17.203
 5996TIP3    H168456   7.836   2.007  17.107
 5996TIP3    H268457   7.813   1.919  17.230
 5997TIP3   OH268458   7.753   3.413  16.817
 5997TIP3    H168459   7.663   3.446  16.810
 5997TIP3    H268460   7.801   3.455  16.745
 5998TIP3   OH268461   7.847   2.314  17.994
 5998TIP3    H168462   7.864   2.241  17.933
 5998TIP3    H268463   7.836   2.266  18.077
 5999TIP3   OH268464   7.582   2.395  17.911
 5999TIP3    H168465   7.676   2.390  17.934
 5999TIP3    H268466   7.541   2.319  17.952
 6000TIP3   OH268467   7.710   2.245  17.204
 6000TIP3    H168468   7.761   2.163  17.222
 6000TIP3    H268469   7.768   2.314  17.239
 6001TIP3   OH268470   7.576   2.171  16.708
 6001TIP3    H168471   7.481   2.189  16.701
 6001TIP3    H268472   7.617   2.219  16.637
 6002TIP3   OH268473   7.573   2.033  17.541
 6002TIP3    H168474   7.506   2.016  17.610
 6002TIP3    H268475   7.528   2.101  17.488
 6003TIP3   OH268476   7.793   3.356  17.955
 6003TIP3    H168477   7.709   3.379  17.911
 6003TIP3    H268478   7.767   3.358  18.046
 6004TIP3   OH268479   8.090   3.457  17.590
 6004TIP3    H168480   8.045   3.535  17.556
 6004TIP3    H268481   8.180   3.466  17.552
 6005TIP3   OH268482   7.822   1.991  16.926
 6005TIP3    H168483   7.741   1.969  16.877
 6005TIP3    H268484   7.869   1.905  16.926
 6006TIP3   OH268485   7.701   1.966  16.507
 6006TIP3    H168486   7.742   2.030  16.447
 6006TIP3    H268487   7.642   2.022  16.559
 6007TIP3   OH268488   7.699   3.568  16.594
 6007TIP3    H168489   7.623   3.558  16.533
 6007TIP3    H268490   7.688   3.657  16.627
 6008TIP3   OH268491   7.813   2.049  17.875
 6008TIP3    H168492   7.776   1.968  17.917
 6008TIP3    H268493   7.904   2.043  17.911
 6009TIP3   OH268494   8.011   1.980  18.033
 6009TIP3    H168495   8.100   1.948  18.012
 6009TIP3    H268496   7.973   1.904  18.081
 6010TIP3   OH268497   7.870   3.636  16.297
 6010TIP3    H168498   7.851   3.679  16.381
 6010TIP3    H268499   7.956   3.598  16.314
 6011TIP3   OH268500   1.072   4.717  17.266
 6011TIP3    H168501   1.074   4.654  17.339
 6011TIP3    H268502   1.042   4.670  17.188
 6012TIP3   OH268503   0.319   4.674  17.407
 6012TIP3    H168504   0.315   4.621  17.490
 6012TIP3    H268505   0.374   4.746  17.441
 6013TIP3   OH268506   0.099   4.490  16.761
 6013TIP3    H168507   0.051   4.565  16.803
 6013TIP3    H268508   0.025   4.427  16.761
 6014TIP3   OH268509   0.188   4.765  17.054
 6014TIP3    H168510   0.162   4.676  17.088
 6014TIP3    H268511   0.213   4.735  16.967
 6015TIP3   OH268512   0.911   4.954  17.316
 6015TIP3    H168513   0.948   4.898  17.247
 6015TIP3    H268514   0.990   4.976  17.365
 6016TIP3   OH268515   0.537   4.215  17.067
 6016TIP3    H168516   0.554   4.293  17.012
 6016TIP3    H268517   0.504   4.153  16.999
 6017TIP3   OH268518   0.266   4.459  17.173
 6017TIP3    H168519   0.279   4.366  17.202
 6017TIP3    H268520   0.216   4.432  17.091
 6018TIP3   OH268521   0.711   4.605  17.074
 6018TIP3    H168522   0.784   4.554  17.110
 6018TIP3    H268523   0.669   4.541  17.014
 6019TIP3   OH268524   1.824   4.265  17.615
 6019TIP3    H168525   1.754   4.332  17.599
 6019TIP3    H268526   1.822   4.253  17.710
 6020TIP3   OH268527   0.467   4.106  17.452
 6020TIP3    H168528   0.412   4.153  17.385
 6020TIP3    H268529   0.395   4.107  17.519
 6021TIP3   OH268530   0.683   4.868  17.499
 6021TIP3    H168531   0.610   4.930  17.512
 6021TIP3    H268532   0.753   4.925  17.464
 6022TIP3   OH268533   0.394   4.276  17.275
 6022TIP3    H168534   0.455   4.338  17.319
 6022TIP3    H268535   0.448   4.234  17.203
 6023TIP3   OH268536   0.141   5.034  16.660
 6023TIP3    H168537   0.108   5.056  16.573
 6023TIP3    H268538   0.140   5.117  16.707
 6024TIP3   OH268539   0.825   3.834  17.216
 6024TIP3    H168540   0.811   3.738  17.210
 6024TIP3    H268541   0.738   3.866  17.248
 6025TIP3   OH268542   1.053   4.713  16.668
 6025TIP3    H168543   0.986   4.774  16.634
 6025TIP3    H268544   1.124   4.720  16.603
 6026TIP3   OH268545   1.059   4.566  16.368
 6026TIP3    H168546   1.127   4.564  16.438
 6026TIP3    H268547   1.091   4.496  16.311
 6027TIP3   OH268548   1.795   4.657  17.497
 6027TIP3    H168549   1.723   4.723  17.503
 6027TIP3    H268550   1.842   4.681  17.416
 6028TIP3   OH268551   1.396   4.558  17.670
 6028TIP3    H168552   1.394   4.635  17.728
 6028TIP3    H268553   1.329   4.585  17.605
 6029TIP3   OH268554   0.560   4.800  16.953
 6029TIP3    H168555   0.528   4.763  16.868
 6029TIP3    H268556   0.624   4.733  16.984
 6030TIP3   OH268557   0.600   4.669  17.316
 6030TIP3    H168558   0.653   4.691  17.238
 6030TIP3    H268559   0.627   4.741  17.377
 6031TIP3   OH268560   1.288   4.654  16.531
 6031TIP3    H168561   1.344   4.670  16.610
 6031TIP3    H268562   1.328   4.702  16.459
 6032TIP3   OH268563   0.382   4.738  17.706
 6032TIP3    H168564   0.381   4.804  17.778
 6032TIP3    H268565   0.289   4.746  17.678
 6033TIP3   OH268566   0.459   4.702  16.716
 6033TIP3    H168567   0.432   4.780  16.663
 6033TIP3    H268568   0.393   4.638  16.689
 6034TIP3   OH268569   1.003   5.623  16.715
 6034TIP3    H168570   0.998   5.613  16.621
 6034TIP3    H268571   1.010   5.718  16.727
 6035TIP3   OH268572   1.581   4.435  17.898
 6035TIP3    H168573   1.535   4.483  17.827
 6035TIP3    H268574   1.579   4.345  17.864
 6036TIP3   OH268575   0.564   3.924  17.292
 6036TIP3    H168576   0.473   3.912  17.255
 6036TIP3    H268577   0.552   4.007  17.342
 6037TIP3   OH268578   0.980   4.149  16.360
 6037TIP3    H168579   0.959   4.145  16.455
 6037TIP3    H268580   0.963   4.058  16.335
 6038TIP3   OH268581   0.567   4.422  17.404
 6038TIP3    H168582   0.507   4.422  17.482
 6038TIP3    H268583   0.577   4.518  17.390
 6039TIP3   OH268584   0.565   4.433  16.906
 6039TIP3    H168585   0.472   4.407  16.887
 6039TIP3    H268586   0.607   4.404  16.821
 6040TIP3   OH268587   1.119   4.481  16.779
 6040TIP3    H168588   1.082   4.567  16.747
 6040TIP3    H268589   1.191   4.465  16.715
 6041TIP3   OH268590   1.030   4.509  17.929
 6041TIP3    H168591   0.976   4.429  17.951
 6041TIP3    H268592   1.114   4.488  17.971
 6042TIP3   OH268593   0.367   4.491  17.575
 6042TIP3    H168594   0.354   4.510  17.670
 6042TIP3    H268595   0.305   4.418  17.575
 6043TIP3   OH268596   0.040   4.070  16.962
 6043TIP3    H168597   0.066   4.138  17.027
 6043TIP3    H268598   0.070   4.111  16.879
 6044TIP3   OH268599   0.132   4.239  16.525
 6044TIP3    H168600   0.179   4.291  16.459
 6044TIP3    H268601   0.057   4.295  16.549
 6045TIP3   OH268602   1.139   4.589  17.518
 6045TIP3    H168603   1.185   4.525  17.465
 6045TIP3    H268604   1.102   4.540  17.593
 6046TIP3   OH268605   0.313   4.347  16.889
 6046TIP3    H168606   0.225   4.358  16.850
 6046TIP3    H268607   0.337   4.261  16.850
 6047TIP3   OH268608   0.669   4.353  16.655
 6047TIP3    H168609   0.765   4.362  16.669
 6047TIP3    H268610   0.645   4.418  16.587
 6048TIP3   OH268611   0.542   4.468  16.410
 6048TIP3    H168612   0.487   4.430  16.340
 6048TIP3    H268613   0.624   4.489  16.363
 6049TIP3   OH268614   0.357   4.921  17.919
 6049TIP3    H168615   0.427   4.950  17.979
 6049TIP3    H268616   0.278   4.940  17.971
 6050TIP3   OH268617   0.457   4.082  16.841
 6050TIP3    H168618   0.422   3.990  16.838
 6050TIP3    H268619   0.533   4.073  16.782
 6051TIP3   OH268620   0.877   4.920  16.604
 6051TIP3    H168621   0.796   4.873  16.572
 6051TIP3    H268622   0.856   4.933  16.698
 6052TIP3   OH268623   1.593   4.841  17.484
 6052TIP3    H168624   1.650   4.886  17.422
 6052TIP3    H268625   1.507   4.843  17.436
 6053TIP3   OH268626   1.333   4.392  16.588
 6053TIP3    H168627   1.422   4.379  16.627
 6053TIP3    H268628   1.341   4.473  16.537
 6054TIP3   OH268629   0.398   4.862  17.189
 6054TIP3    H168630   0.458   4.850  17.114
 6054TIP3    H268631   0.389   4.776  17.231
 6055TIP3   OH268632   1.084   5.068  16.503
 6055TIP3    H168633   1.056   5.151  16.544
 6055TIP3    H268634   1.012   5.007  16.530
 6056TIP3   OH268635   0.093   4.694  17.708
 6056TIP3    H168636   0.108   4.658  17.797
 6056TIP3    H268637   0.024   4.638  17.670
 6057TIP3   OH268638   0.790   4.657  17.931
 6057TIP3    H168639   0.758   4.627  17.845
 6057TIP3    H268640   0.883   4.626  17.928
 6058TIP3   OH268641   1.810   4.414  16.566
 6058TIP3    H168642   1.772   4.372  16.487
 6058TIP3    H268643   1.833   4.503  16.531
 6059TIP3   OH268644   1.372   4.767  17.319
 6059TIP3    H168645   1.278   4.756  17.302
 6059TIP3    H268646   1.413   4.695  17.268
 6060TIP3   OH268647   0.194   4.690  16.391
 6060TIP3    H168648   0.263   4.754  16.414
 6060TIP3    H268649   0.113   4.736  16.412
 6061TIP3   OH268650   0.765   4.971  16.872
 6061TIP3    H168651   0.743   5.064  16.885
 6061TIP3    H268652   0.692   4.926  16.918
 6062TIP3   OH268653   0.237   4.092  17.539
 6062TIP3    H168654   0.176   4.159  17.578
 6062TIP3    H268655   0.272   4.078  17.631
 6063TIP3   OH268656   0.699   5.158  16.479
 6063TIP3    H168657   0.708   5.105  16.558
 6063TIP3    H268658   0.691   5.248  16.510
 6064TIP3   OH268659   0.336   4.882  16.534
 6064TIP3    H168660   0.267   4.923  16.589
 6064TIP3    H268661   0.394   4.955  16.505
 6065TIP3   OH268662   0.971   5.329  16.556
 6065TIP3    H168663   0.888   5.377  16.558
 6065TIP3    H268664   1.024   5.370  16.487
 6066TIP3   OH268665   0.920   4.285  16.754
 6066TIP3    H168666   1.002   4.340  16.755
 6066TIP3    H268667   0.899   4.273  16.846
 6067TIP3   OH268668   1.006   3.994  16.842
 6067TIP3    H168669   0.975   4.056  16.909
 6067TIP3    H268670   1.074   4.045  16.796
 6068TIP3   OH268671   0.584   4.097  16.532
 6068TIP3    H168672   0.572   4.192  16.548
 6068TIP3    H268673   0.677   4.078  16.541
 6069TIP3   OH268674   1.452   4.553  17.166
 6069TIP3    H168675   1.380   4.507  17.125
 6069TIP3    H268676   1.506   4.482  17.207
 6070TIP3   OH268677   0.317   3.884  17.204
 6070TIP3    H168678   0.294   3.891  17.108
 6070TIP3    H268679   0.269   3.802  17.227
 6071TIP3   OH268680   0.791   4.925  17.987
 6071TIP3    H168681   0.759   4.946  17.900
 6071TIP3    H268682   0.802   4.828  17.979
 6072TIP3   OH268683   1.085   5.065  16.226
 6072TIP3    H168684   1.073   5.083  16.321
 6072TIP3    H268685   1.071   4.971  16.217
 6073TIP3   OH268686   1.365   4.908  17.729
 6073TIP3    H168687   1.439   4.967  17.711
 6073TIP3    H268688   1.288   4.968  17.729
 6074TIP3   OH268689   0.214   4.644  17.987
 6074TIP3    H168690   0.251   4.556  17.976
 6074TIP3    H268691   0.184   4.644  18.076
 6075TIP3   OH268692   0.677   4.759  16.492
 6075TIP3    H168693   0.625   4.708  16.555
 6075TIP3    H268694   0.705   4.691  16.426
 6076TIP3   OH268695   0.601   4.543  17.720
 6076TIP3    H168696   0.539   4.612  17.749
 6076TIP3    H268697   0.640   4.582  17.641
 6077TIP3   OH268698   0.779   4.588  16.309
 6077TIP3    H168699   0.770   4.566  16.215
 6077TIP3    H268700   0.877   4.590  16.322
 6078TIP3   OH268701   1.106   4.795  18.054
 6078TIP3    H168702   1.201   4.796  18.042
 6078TIP3    H268703   1.091   4.723  18.116
 6079TIP3   OH268704   0.644   4.280  17.824
 6079TIP3    H168705   0.656   4.207  17.760
 6079TIP3    H268706   0.639   4.360  17.769
 6080TIP3   OH268707   0.685   4.125  17.585
 6080TIP3    H168708   0.736   4.160  17.511
 6080TIP3    H268709   0.599   4.107  17.541
 6081TIP3   OH268710   0.833   4.660  17.598
 6081TIP3    H168711   0.914   4.650  17.548
 6081TIP3    H268712   0.802   4.750  17.576
 6082TIP3   OH268713   1.277   4.441  18.100
 6082TIP3    H168714   1.299   4.347  18.097
 6082TIP3    H268715   1.363   4.485  18.102
 6083TIP3   OH268716   1.412   4.720  17.918
 6083TIP3    H168717   1.384   4.791  17.856
 6083TIP3    H268718   1.507   4.717  17.899
 6084TIP3   OH268719   0.488   4.409  18.020
 6084TIP3    H168720   0.414   4.348  18.005
 6084TIP3    H268721   0.554   4.370  17.958
 6085TIP3   OH268722   0.761   3.860  17.620
 6085TIP3    H168723   0.749   3.957  17.609
 6085TIP3    H268724   0.684   3.826  17.572
 6086TIP3   OH268725   0.885   4.299  17.982
 6086TIP3    H168726   0.857   4.268  18.069
 6086TIP3    H268727   0.808   4.272  17.928
 6087TIP3   OH268728   0.360   4.184  18.016
 6087TIP3    H168729   0.339   4.122  17.944
 6087TIP3    H268730   0.308   4.150  18.093
 6088TIP3   OH268731   0.781   3.792  17.891
 6088TIP3    H168732   0.855   3.732  17.886
 6088TIP3    H268733   0.772   3.819  17.797
 6089TIP3   OH268734   1.806   4.710  16.836
 6089TIP3    H168735   1.732   4.664  16.879
 6089TIP3    H268736   1.864   4.729  16.911
 6090TIP3   OH268737   1.833   4.699  16.474
 6090TIP3    H168738   1.777   4.734  16.405
 6090TIP3    H268739   1.828   4.765  16.545
 6091TIP3   OH268740   1.671   4.757  17.849
 6091TIP3    H168741   1.731   4.683  17.874
 6091TIP3    H268742   1.732   4.830  17.858
 6092TIP3   OH268743   1.823   4.548  17.930
 6092TIP3    H168744   1.735   4.509  17.910
 6092TIP3    H268745   1.881   4.471  17.919
 6093TIP3   OH268746   1.555   4.322  16.730
 6093TIP3    H168747   1.585   4.235  16.759
 6093TIP3    H268748   1.638   4.362  16.702
 6094TIP3   OH268749   1.614   4.378  17.285
 6094TIP3    H168750   1.711   4.394  17.281
 6094TIP3    H268751   1.602   4.380  17.380
 6095TIP3   OH268752   1.620   4.445  17.564
 6095TIP3    H168753   1.535   4.478  17.597
 6095TIP3    H268754   1.666   4.529  17.541
 6096TIP3   OH268755   0.070   4.396  17.957
 6096TIP3    H168756   0.140   4.333  17.932
 6096TIP3    H268757   0.010   4.316  17.966
 6097TIP3   OH268758   0.169   4.101  17.244
 6097TIP3    H168759   0.234   4.028  17.234
 6097TIP3    H268760   0.225   4.180  17.240
 6098TIP3   OH268761   0.045   4.410  17.306
 6098TIP3    H168762   0.063   4.409  17.210
 6098TIP3    H268763   0.057   4.504  17.321
 6099TIP3   OH268764   0.035   4.056  16.705
 6099TIP3    H168765  -0.058   4.075  16.695
 6099TIP3    H268766   0.078   4.105  16.633
 6100TIP3   OH268767   8.168   3.915  17.541
 6100TIP3    H168768   8.103   3.902  17.609
 6100TIP3    H268769   8.128   3.988  17.492
 6101TIP3   OH268770   0.973   5.483  17.878
 6101TIP3    H168771   0.987   5.452  17.970
 6101TIP3    H268772   1.059   5.517  17.849
 6102TIP3   OH268773   1.205   5.612  17.806
 6102TIP3    H168774   1.276   5.554  17.775
 6102TIP3    H268775   1.245   5.654  17.882
 6103TIP3   OH268776   1.001   5.614  17.411
 6103TIP3    H168777   0.960   5.670  17.345
 6103TIP3    H268778   1.020   5.676  17.483
 6104TIP3   OH268779   0.281   3.875  16.931
 6104TIP3    H168780   0.200   3.859  16.878
 6104TIP3    H268781   0.328   3.790  16.923
 6105TIP3   OH268782   0.161   3.848  16.527
 6105TIP3    H168783   0.199   3.913  16.465
 6105TIP3    H268784   0.093   3.907  16.563
 6106TIP3   OH268785   0.730   3.868  16.907
 6106TIP3    H168786   0.819   3.906  16.905
 6106TIP3    H268787   0.723   3.849  17.001
 6107TIP3   OH268788   0.382   4.082  16.390
 6107TIP3    H168789   0.399   4.011  16.327
 6107TIP3    H268790   0.457   4.077  16.451
 6108TIP3   OH268791   0.849   4.074  16.596
 6108TIP3    H168792   0.864   4.012  16.669
 6108TIP3    H268793   0.849   4.160  16.643
 6109TIP3   OH268794   0.269   3.929  17.886
 6109TIP3    H168795   0.233   3.845  17.921
 6109TIP3    H268796   0.363   3.923  17.917
 6110TIP3   OH268797   0.473   3.866  18.035
 6110TIP3    H168798   0.563   3.832  18.014
 6110TIP3    H268799   0.432   3.791  18.081
 6111TIP3   OH268800   2.195   4.680  17.422
 6111TIP3    H168801   2.203   4.620  17.497
 6111TIP3    H268802   2.270   4.740  17.440
 6112TIP3   OH268803   1.954   4.491  16.817
 6112TIP3    H168804   1.905   4.574  16.812
 6112TIP3    H268805   1.901   4.431  16.762
 6113TIP3   OH268806   2.028   4.711  17.039
 6113TIP3    H168807   2.048   4.624  17.077
 6113TIP3    H268808   2.091   4.715  16.964
 6114TIP3   OH268809   3.658   4.124  17.385
 6114TIP3    H168810   3.677   4.180  17.464
 6114TIP3    H268811   3.716   4.165  17.319
 6115TIP3   OH268812   3.121   4.404  17.343
 6115TIP3    H168813   3.129   4.308  17.343
 6115TIP3    H268814   3.106   4.420  17.248
 6116TIP3   OH268815   3.204   4.216  16.901
 6116TIP3    H168816   3.269   4.192  16.972
 6116TIP3    H268817   3.258   4.279  16.849
 6117TIP3   OH268818   3.702   4.263  17.611
 6117TIP3    H168819   3.641   4.340  17.606
 6117TIP3    H268820   3.712   4.255  17.707
 6118TIP3   OH268821   3.379   4.152  17.101
 6118TIP3    H168822   3.360   4.076  17.158
 6118TIP3    H268823   3.446   4.199  17.155
 6119TIP3   OH268824   3.387   5.197  17.337
 6119TIP3    H168825   3.289   5.201  17.341
 6119TIP3    H268826   3.408   5.286  17.311
 6120TIP3   OH268827   3.415   4.029  17.473
 6120TIP3    H168828   3.339   4.087  17.460
 6120TIP3    H268829   3.487   4.066  17.417
 6121TIP3   OH268830   2.713   3.836  17.214
 6121TIP3    H168831   2.706   3.739  17.206
 6121TIP3    H268832   2.628   3.864  17.248
 6122TIP3   OH268833   3.329   5.162  16.840
 6122TIP3    H168834   3.301   5.093  16.779
 6122TIP3    H268835   3.331   5.123  16.927
 6123TIP3   OH268836   3.501   5.020  17.696
 6123TIP3    H168837   3.506   4.958  17.621
 6123TIP3    H268838   3.512   5.106  17.653
 6124TIP3   OH268839   3.285   4.736  16.762
 6124TIP3    H168840   3.212   4.759  16.821
 6124TIP3    H268841   3.334   4.667  16.812
 6125TIP3   OH268842   3.122   5.233  17.389
 6125TIP3    H168843   3.091   5.296  17.453
 6125TIP3    H268844   3.094   5.147  17.428
 6126TIP3   OH268845   3.172   4.653  16.529
 6126TIP3    H168846   3.225   4.675  16.608
 6126TIP3    H268847   3.212   4.703  16.455
 6127TIP3   OH268848   3.654   5.265  16.351
 6127TIP3    H168849   3.667   5.360  16.368
 6127TIP3    H268850   3.747   5.236  16.348
 6128TIP3   OH268851   1.951   4.943  17.606
 6128TIP3    H168852   1.912   4.932  17.519
 6128TIP3    H268853   1.961   4.848  17.630
 6129TIP3   OH268854   3.753   5.288  17.854
 6129TIP3    H168855   3.741   5.194  17.845
 6129TIP3    H268856   3.666   5.314  17.889
 6130TIP3   OH268857   3.191   5.537  16.416
 6130TIP3    H168858   3.241   5.465  16.372
 6130TIP3    H268859   3.202   5.512  16.508
 6131TIP3   OH268860   3.467   4.440  17.893
 6131TIP3    H168861   3.421   4.485  17.823
 6131TIP3    H268862   3.467   4.346  17.867
 6132TIP3   OH268863   2.178   5.080  17.697
 6132TIP3    H168864   2.202   5.043  17.782
 6132TIP3    H268865   2.094   5.034  17.675
 6133TIP3   OH268866   3.243   4.276  17.717
 6133TIP3    H168867   3.185   4.255  17.795
 6133TIP3    H268868   3.220   4.367  17.695
 6134TIP3   OH268869   3.318   4.759  16.302
 6134TIP3    H168870   3.317   4.736  16.207
 6134TIP3    H268871   3.402   4.803  16.312
 6135TIP3   OH268872   3.006   4.485  16.776
 6135TIP3    H168873   2.965   4.566  16.743
 6135TIP3    H268874   3.077   4.471  16.711
 6136TIP3   OH268875   3.110   4.429  17.063
 6136TIP3    H168876   3.082   4.486  16.990
 6136TIP3    H268877   3.124   4.345  17.016
 6137TIP3   OH268878   1.887   4.167  16.977
 6137TIP3    H168879   1.949   4.155  17.051
 6137TIP3    H268880   1.931   4.118  16.906
 6138TIP3   OH268881   2.021   4.240  16.524
 6138TIP3    H168882   2.063   4.295  16.458
 6138TIP3    H268883   1.946   4.292  16.553
 6139TIP3   OH268884   2.712   4.191  17.004
 6139TIP3    H168885   2.617   4.188  17.030
 6139TIP3    H268886   2.758   4.175  17.088
 6140TIP3   OH268887   2.557   4.343  16.651
 6140TIP3    H168888   2.651   4.358  16.673
 6140TIP3    H268889   2.538   4.415  16.591
 6141TIP3   OH268890   3.152   4.113  17.327
 6141TIP3    H168891   3.084   4.121  17.397
 6141TIP3    H268892   3.099   4.089  17.250
 6142TIP3   OH268893   3.480   5.674  17.961
 6142TIP3    H168894   3.499   5.718  17.877
 6142TIP3    H268895   3.546   5.711  18.023
 6143TIP3   OH268896   2.835   4.461  17.189
 6143TIP3    H168897   2.899   4.410  17.140
 6143TIP3    H268898   2.831   4.413  17.273
 6144TIP3   OH268899   2.339   4.078  16.830
 6144TIP3    H168900   2.310   3.986  16.836
 6144TIP3    H268901   2.421   4.075  16.781
 6145TIP3   OH268902   3.479   4.835  17.482
 6145TIP3    H168903   3.535   4.888  17.424
 6145TIP3    H268904   3.393   4.846  17.437
 6146TIP3   OH268905   3.150   4.199  16.421
 6146TIP3    H168906   3.055   4.217  16.413
 6146TIP3    H268907   3.179   4.286  16.456
 6147TIP3   OH268908   3.220   4.390  16.590
 6147TIP3    H168909   3.311   4.381  16.626
 6147TIP3    H268910   3.223   4.474  16.539
 6148TIP3   OH268911   1.974   4.696  17.710
 6148TIP3    H168912   1.991   4.656  17.797
 6148TIP3    H268913   1.910   4.638  17.666
 6149TIP3   OH268914   3.133   5.191  17.721
 6149TIP3    H168915   3.042   5.210  17.699
 6149TIP3    H268916   3.139   5.218  17.816
 6150TIP3   OH268917   3.704   4.408  16.565
 6150TIP3    H168918   3.654   4.374  16.491
 6150TIP3    H268919   3.720   4.500  16.535
 6151TIP3   OH268920   3.537   5.291  16.604
 6151TIP3    H168921   3.499   5.209  16.635
 6151TIP3    H268922   3.569   5.271  16.514
 6152TIP3   OH268923   3.255   4.771  17.317
 6152TIP3    H168924   3.164   4.749  17.299
 6152TIP3    H268925   3.300   4.698  17.270
 6153TIP3   OH268926   2.091   4.690  16.379
 6153TIP3    H168927   2.143   4.758  16.420
 6153TIP3    H268928   2.000   4.714  16.405
 6154TIP3   OH268929   3.049   4.991  17.478
 6154TIP3    H168930   3.020   4.972  17.567
 6154TIP3    H268931   3.119   4.925  17.463
 6155TIP3   OH268932   3.281   5.097  16.395
 6155TIP3    H168933   3.313   5.047  16.472
 6155TIP3    H268934   3.189   5.076  16.397
 6156TIP3   OH268935   3.731   5.533  16.411
 6156TIP3    H168936   3.802   5.596  16.391
 6156TIP3    H268937   3.659   5.593  16.441
 6157TIP3   OH268938   3.362   4.960  16.613
 6157TIP3    H168939   3.337   4.882  16.666
 6157TIP3    H268940   3.458   4.967  16.629
 6158TIP3   OH268941   2.108   5.352  17.508
 6158TIP3    H168942   2.121   5.257  17.511
 6158TIP3    H268943   2.121   5.380  17.599
 6159TIP3   OH268944   3.013   4.148  17.559
 6159TIP3    H168945   3.081   4.156  17.627
 6159TIP3    H268946   2.970   4.063  17.577
 6160TIP3   OH268947   3.093   4.105  16.671
 6160TIP3    H168948   3.106   4.157  16.589
 6160TIP3    H268949   3.142   4.162  16.733
 6161TIP3   OH268950   2.814   4.279  16.752
 6161TIP3    H168951   2.885   4.346  16.755
 6161TIP3    H268952   2.779   4.274  16.843
 6162TIP3   OH268953   2.867   4.387  17.665
 6162TIP3    H168954   2.869   4.440  17.745
 6162TIP3    H268955   2.926   4.314  17.679
 6163TIP3   OH268956   2.900   3.993  16.846
 6163TIP3    H168957   2.856   4.055  16.907
 6163TIP3    H268958   2.952   4.058  16.795
 6164TIP3   OH268959   2.461   4.100  16.511
 6164TIP3    H168960   2.455   4.188  16.552
 6164TIP3    H268961   2.550   4.074  16.540
 6165TIP3   OH268962   3.481   4.173  17.758
 6165TIP3    H168963   3.388   4.202  17.743
 6165TIP3    H268964   3.513   4.172  17.666
 6166TIP3   OH268965   3.343   4.552  17.157
 6166TIP3    H168966   3.259   4.508  17.131
 6166TIP3    H268967   3.387   4.482  17.209
 6167TIP3   OH268968   3.450   5.490  17.331
 6167TIP3    H168969   3.435   5.539  17.248
 6167TIP3    H268970   3.545   5.468  17.334
 6168TIP3   OH268971   2.197   3.892  17.204
 6168TIP3    H168972   2.179   3.893  17.107
 6168TIP3    H268973   2.154   3.808  17.227
 6169TIP3   OH268974   3.136   5.269  17.979
 6169TIP3    H168975   3.102   5.187  18.014
 6169TIP3    H268976   3.208   5.291  18.042
 6170TIP3   OH268977   3.351   5.367  16.269
 6170TIP3    H168978   3.380   5.286  16.316
 6170TIP3    H268979   3.427   5.390  16.214
 6171TIP3   OH268980   2.008   4.919  18.046
 6171TIP3    H168981   2.031   4.831  18.011
 6171TIP3    H268982   1.938   4.952  17.989
 6172TIP3   OH268983   2.095   4.644  17.984
 6172TIP3    H168984   2.139   4.559  17.973
 6172TIP3    H268985   2.077   4.647  18.080
 6173TIP3   OH268986   3.164   4.441  18.104
 6173TIP3    H168987   3.184   4.347  18.094
 6173TIP3    H268988   3.250   4.484  18.105
 6174TIP3   OH268989   3.305   4.728  17.925
 6174TIP3    H168990   3.272   4.790  17.860
 6174TIP3    H268991   3.398   4.718  17.897
 6175TIP3   OH268992   2.640   3.862  17.622
 6175TIP3    H168993   2.633   3.957  17.610
 6175TIP3    H268994   2.568   3.825  17.569
 6176TIP3   OH268995   2.777   4.293  17.971
 6176TIP3    H168996   2.748   4.283  18.062
 6176TIP3    H268997   2.695   4.281  17.922
 6177TIP3   OH268998   3.045   4.203  17.886
 6177TIP3    H168999   2.949   4.215  17.904
 6177TIP3    H269000   3.075   4.147  17.959
 6178TIP3   OH269001   3.195   4.071  18.080
 6178TIP3    H169002   3.202   3.976  18.087
 6178TIP3    H269003   3.178   4.100  18.173
 6179TIP3   OH269004   2.181   4.197  17.990
 6179TIP3    H169005   2.208   4.124  17.932
 6179TIP3    H269006   2.178   4.154  18.078
 6180TIP3   OH269007   2.668   3.796  17.891
 6180TIP3    H169008   2.738   3.731  17.887
 6180TIP3    H269009   2.658   3.820  17.796
 6181TIP3   OH269010   3.730   5.534  17.345
 6181TIP3    H169011   3.742   5.543  17.440
 6181TIP3    H269012   3.799   5.593  17.310
 6182TIP3   OH269013   3.521   5.076  18.102
 6182TIP3    H169014   3.434   5.068  18.145
 6182TIP3    H269015   3.562   5.150  18.152
 6183TIP3   OH269016   3.651   4.906  16.656
 6183TIP3    H169017   3.739   4.946  16.669
 6183TIP3    H269018   3.652   4.832  16.717
 6184TIP3   OH269019   3.665   4.983  17.334
 6184TIP3    H169020   3.749   4.954  17.301
 6184TIP3    H269021   3.677   5.080  17.320
 6185TIP3   OH269022   3.517   5.276  17.562
 6185TIP3    H169023   3.449   5.304  17.623
 6185TIP3    H269024   3.465   5.230  17.493
 6186TIP3   OH269025   3.720   4.697  16.477
 6186TIP3    H169026   3.665   4.730  16.406
 6186TIP3    H269027   3.714   4.770  16.541
 6187TIP3   OH269028   3.469   4.562  16.889
 6187TIP3    H169029   3.458   4.466  16.890
 6187TIP3    H269030   3.441   4.583  16.979
 6188TIP3   OH269031   1.970   4.762  17.298
 6188TIP3    H169032   1.990   4.764  17.202
 6188TIP3    H269033   2.059   4.755  17.337
 6189TIP3   OH269034   3.558   4.759  17.865
 6189TIP3    H169035   3.620   4.682  17.877
 6189TIP3    H269036   3.615   4.836  17.860
 6190TIP3   OH269037   3.710   4.549  17.926
 6190TIP3    H169038   3.623   4.506  17.913
 6190TIP3    H269039   3.769   4.472  17.917
 6191TIP3   OH269040   3.477   4.161  16.241
 6191TIP3    H169041   3.539   4.126  16.305
 6191TIP3    H269042   3.392   4.124  16.264
 6192TIP3   OH269043   3.438   4.317  16.738
 6192TIP3    H169044   3.472   4.226  16.751
 6192TIP3    H269045   3.519   4.360  16.705
 6193TIP3   OH269046   3.502   4.372  17.283
 6193TIP3    H169047   3.595   4.400  17.280
 6193TIP3    H269048   3.482   4.389  17.376
 6194TIP3   OH269049   3.506   4.448  17.560
 6194TIP3    H169050   3.420   4.478  17.593
 6194TIP3    H269051   3.549   4.533  17.542
 6195TIP3   OH269052   1.932   4.296  17.911
 6195TIP3    H169053   2.027   4.281  17.931
 6195TIP3    H269054   1.893   4.216  17.949
 6196TIP3   OH269055   3.739   3.848  18.096
 6196TIP3    H169056   3.774   3.783  18.033
 6196TIP3    H269057   3.746   3.931  18.045
 6197TIP3   OH269058   3.503   4.047  16.745
 6197TIP3    H169059   3.527   4.004  16.830
 6197TIP3    H269060   3.445   3.982  16.701
 6198TIP3   OH269061   2.059   4.130  17.198
 6198TIP3    H169062   2.099   4.045  17.227
 6198TIP3    H269063   2.103   4.198  17.247
 6199TIP3   OH269064   1.885   4.430  17.303
 6199TIP3    H169065   1.935   4.403  17.226
 6199TIP3    H269066   1.924   4.513  17.332
 6200TIP3   OH269067   3.686   4.059  17.935
 6200TIP3    H169068   3.592   4.087  17.928
 6200TIP3    H269069   3.695   4.011  17.851
 6201TIP3   OH269070   3.398   5.549  16.905
 6201TIP3    H169071   3.463   5.515  16.842
 6201TIP3    H269072   3.450   5.599  16.969
 6202TIP3   OH269073   2.136   5.231  17.959
 6202TIP3    H169074   2.055   5.260  17.916
 6202TIP3    H269075   2.112   5.230  18.052
 6203TIP3   OH269076   3.591   3.871  17.714
 6203TIP3    H169077   3.507   3.900  17.674
 6203TIP3    H269078   3.606   3.787  17.664
 6204TIP3   OH269079   2.171   5.668  17.591
 6204TIP3    H169080   2.101   5.712  17.540
 6204TIP3    H269081   2.130   5.642  17.674
 6205TIP3   OH269082   2.111   5.531  17.286
 6205TIP3    H169083   2.107   5.481  17.368
 6205TIP3    H269084   2.189   5.498  17.241
 6206TIP3   OH269085   2.930   4.016  17.144
 6206TIP3    H169086   2.863   3.951  17.175
 6206TIP3    H269087   2.987   3.961  17.089
 6207TIP3   OH269088   3.441   3.818  17.150
 6207TIP3    H169089   3.505   3.877  17.104
 6207TIP3    H269090   3.354   3.857  17.129
 6208TIP3   OH269091   3.608   3.942  16.979
 6208TIP3    H169092   3.677   3.884  16.938
 6208TIP3    H269093   3.659   4.026  16.992
 6209TIP3   OH269094   2.166   3.876  16.929
 6209TIP3    H169095   2.086   3.857  16.878
 6209TIP3    H269096   2.214   3.791  16.925
 6210TIP3   OH269097   2.621   3.863  16.908
 6210TIP3    H169098   2.706   3.908  16.904
 6210TIP3    H269099   2.606   3.850  17.002
 6211TIP3   OH269100   3.173   3.872  17.073
 6211TIP3    H169101   3.189   3.878  16.980
 6211TIP3    H269102   3.150   3.778  17.086
 6212TIP3   OH269103   3.307   3.880  16.652
 6212TIP3    H169104   3.242   3.934  16.607
 6212TIP3    H269105   3.273   3.787  16.655
 6213TIP3   OH269106   2.233   4.047  16.348
 6213TIP3    H169107   2.282   3.982  16.301
 6213TIP3    H269108   2.294   4.077  16.417
 6214TIP3   OH269109   2.730   4.070  16.596
 6214TIP3    H169110   2.750   4.013  16.671
 6214TIP3    H269111   2.731   4.157  16.640
 6215TIP3   OH269112   3.595   5.530  16.709
 6215TIP3    H169113   3.574   5.451  16.653
 6215TIP3    H269114   3.587   5.602  16.645
 6216TIP3   OH269115   2.157   3.929  17.875
 6216TIP3    H169116   2.120   3.851  17.919
 6216TIP3    H269117   2.247   3.927  17.912
 6217TIP3   OH269118   2.359   3.868  18.040
 6217TIP3    H169119   2.445   3.833  18.012
 6217TIP3    H269120   2.319   3.789  18.082
 6218TIP3   OH269121   3.514   5.403  17.919
 6218TIP3    H169122   3.433   5.384  17.870
 6218TIP3    H269123   3.506   5.497  17.941
 6219TIP3   OH269124   3.836   4.489  16.817
 6219TIP3    H169125   3.790   4.573  16.818
 6219TIP3    H269126   3.781   4.433  16.761
 6220TIP3   OH269127   5.546   4.124  17.385
 6220TIP3    H169128   5.565   4.177  17.465
 6220TIP3    H269129   5.601   4.167  17.318
 6221TIP3   OH269130   5.000   4.398  17.341
 6221TIP3    H169131   5.017   4.305  17.337
 6221TIP3    H269132   4.992   4.422  17.248
 6222TIP3   OH269133   5.591   4.267  17.616
 6222TIP3    H169134   5.526   4.337  17.609
 6222TIP3    H269135   5.592   4.249  17.711
 6223TIP3   OH269136   4.161   4.286  17.270
 6223TIP3    H169137   4.220   4.353  17.304
 6223TIP3    H269138   4.209   4.247  17.195
 6224TIP3   OH269139   4.303   5.069  17.584
 6224TIP3    H169140   4.292   5.150  17.534
 6224TIP3    H269141   4.212   5.059  17.619
 6225TIP3   OH269142   3.906   5.030  16.655
 6225TIP3    H169143   3.881   5.063  16.568
 6225TIP3    H269144   3.912   5.114  16.705
 6226TIP3   OH269145   4.474   5.154  17.229
 6226TIP3    H169146   4.460   5.096  17.153
 6226TIP3    H269147   4.546   5.107  17.273
 6227TIP3   OH269148   4.467   5.124  17.788
 6227TIP3    H169149   4.421   5.194  17.834
 6227TIP3    H269150   4.400   5.098  17.719
 6228TIP3   OH269151   5.429   3.834  16.522
 6228TIP3    H169152   5.333   3.838  16.535
 6228TIP3    H269153   5.449   3.914  16.470
 6229TIP3   OH269154   3.818   5.219  17.280
 6229TIP3    H169155   3.914   5.211  17.276
 6229TIP3    H269156   3.804   5.300  17.331
 6230TIP3   OH269157   5.638   5.289  17.852
 6230TIP3    H169158   5.627   5.192  17.848
 6230TIP3    H269159   5.553   5.311  17.890
 6231TIP3   OH269160   4.735   5.248  17.739
 6231TIP3    H169161   4.742   5.331  17.786
 6231TIP3    H269162   4.647   5.212  17.757
 6232TIP3   OH269163   5.058   5.535  16.698
 6232TIP3    H169164   4.961   5.539  16.703
 6232TIP3    H269165   5.080   5.455  16.747
 6233TIP3   OH269166   4.069   5.085  17.699
 6233TIP3    H169167   4.088   5.046  17.785
 6233TIP3    H269168   3.984   5.046  17.677
 6234TIP3   OH269169   4.329   3.923  17.294
 6234TIP3    H169170   4.239   3.916  17.255
 6234TIP3    H269171   4.325   4.008  17.338
 6235TIP3   OH269172   5.126   4.274  17.719
 6235TIP3    H169173   5.075   4.261  17.800
 6235TIP3    H269174   5.108   4.364  17.693
 6236TIP3   OH269175   3.770   4.155  16.983
 6236TIP3    H169176   3.838   4.160  17.053
 6236TIP3    H269177   3.820   4.125  16.906
 6237TIP3   OH269178   4.916   4.594  17.526
 6237TIP3    H169179   4.947   4.530  17.459
 6237TIP3    H269180   4.870   4.538  17.588
 6238TIP3   OH269181   4.076   4.343  16.893
 6238TIP3    H169182   3.990   4.362  16.852
 6238TIP3    H269183   4.108   4.262  16.850
 6239TIP3   OH269184   5.357   5.681  17.965
 6239TIP3    H169185   5.384   5.716  17.878
 6239TIP3    H269186   5.433   5.708  18.020
 6240TIP3   OH269187   4.225   4.077  16.833
 6240TIP3    H169188   4.194   3.986  16.837
 6240TIP3    H269189   4.305   4.076  16.780
 6241TIP3   OH269190   5.594   4.409  16.562
 6241TIP3    H169191   5.540   4.375  16.490
 6241TIP3    H269192   5.604   4.503  16.534
 6242TIP3   OH269193   5.596   5.013  17.842
 6242TIP3    H169194   5.505   5.005  17.809
 6242TIP3    H269195   5.645   4.981  17.766
 6243TIP3   OH269196   5.621   5.541  16.419
 6243TIP3    H169197   5.686   5.605  16.388
 6243TIP3    H269198   5.543   5.597  16.440
 6244TIP3   OH269199   4.017   4.176  17.671
 6244TIP3    H169200   3.927   4.208  17.660
 6244TIP3    H269201   4.008   4.089  17.712
 6245TIP3   OH269202   4.584   5.197  16.234
 6245TIP3    H169203   4.600   5.119  16.183
 6245TIP3    H269204   4.550   5.159  16.317
 6246TIP3   OH269205   4.755   4.389  17.663
 6246TIP3    H169206   4.752   4.438  17.747
 6246TIP3    H269207   4.811   4.314  17.683
 6247TIP3   OH269208   5.369   4.182  17.755
 6247TIP3    H169209   5.274   4.203  17.743
 6247TIP3    H269210   5.399   4.171  17.664
 6248TIP3   OH269211   4.081   3.890  17.204
 6248TIP3    H169212   4.063   3.894  17.108
 6248TIP3    H269213   4.040   3.804  17.230
 6249TIP3   OH269214   3.895   4.927  18.041
 6249TIP3    H169215   3.913   4.835  18.017
 6249TIP3    H269216   3.817   4.950  17.993
 6250TIP3   OH269217   4.575   4.924  17.985
 6250TIP3    H169218   4.530   4.954  17.904
 6250TIP3    H269219   4.579   4.829  17.977
 6251TIP3   OH269220   4.642   4.305  17.974
 6251TIP3    H169221   4.627   4.276  18.065
 6251TIP3    H269222   4.567   4.269  17.928
 6252TIP3   OH269223   3.894   5.112  16.365
 6252TIP3    H169224   3.987   5.124  16.387
 6252TIP3    H269225   3.899   5.048  16.293
 6253TIP3   OH269226   3.767   5.652  16.869
 6253TIP3    H169227   3.702   5.602  16.813
 6253TIP3    H269228   3.801   5.582  16.925
 6254TIP3   OH269229   5.611   5.541  17.344
 6254TIP3    H169230   5.607   5.561  17.437
 6254TIP3    H269231   5.678   5.603  17.313
 6255TIP3   OH269232   5.547   4.896  16.650
 6255TIP3    H169233   5.627   4.946  16.672
 6255TIP3    H269234   5.539   4.833  16.722
 6256TIP3   OH269235   5.604   4.694  16.477
 6256TIP3    H169236   5.552   4.732  16.407
 6256TIP3    H269237   5.597   4.765  16.545
 6257TIP3   OH269238   5.591   4.545  17.936
 6257TIP3    H169239   5.507   4.509  17.911
 6257TIP3    H269240   5.651   4.472  17.920
 6258TIP3   OH269241   5.328   4.321  16.732
 6258TIP3    H169242   5.356   4.229  16.749
 6258TIP3    H269243   5.408   4.362  16.700
 6259TIP3   OH269244   5.389   4.385  17.280
 6259TIP3    H169245   5.486   4.393  17.281
 6259TIP3    H269246   5.366   4.381  17.372
 6260TIP3   OH269247   3.816   4.298  17.909
 6260TIP3    H169248   3.910   4.284  17.930
 6260TIP3    H269249   3.774   4.217  17.944
 6261TIP3   OH269250   5.625   3.854  18.100
 6261TIP3    H169251   5.655   3.784  18.039
 6261TIP3    H269252   5.635   3.933  18.044
 6262TIP3   OH269253   5.391   4.047  16.744
 6262TIP3    H169254   5.414   4.002  16.827
 6262TIP3    H269255   5.329   3.986  16.701
 6263TIP3   OH269256   3.940   4.130  17.203
 6263TIP3    H169257   3.988   4.048  17.224
 6263TIP3    H269258   3.996   4.200  17.241
 6264TIP3   OH269259   5.575   4.065  17.930
 6264TIP3    H169260   5.480   4.089  17.924
 6264TIP3    H269261   5.582   4.008  17.852
 6265TIP3   OH269262   5.574   4.053  16.401
 6265TIP3    H169263   5.614   3.983  16.348
 6265TIP3    H269264   5.644   4.120  16.401
 6266TIP3   OH269265   3.803   4.048  16.701
 6266TIP3    H169266   3.709   4.076  16.700
 6266TIP3    H269267   3.847   4.108  16.642
 6267TIP3   OH269268   3.800   3.923  17.542
 6267TIP3    H169269   3.733   3.903  17.609
 6267TIP3    H269270   3.754   3.989  17.486
 6268TIP3   OH269271   4.021   5.233  17.956
 6268TIP3    H169272   3.940   5.264  17.912
 6268TIP3    H269273   3.996   5.237  18.049
 6269TIP3   OH269274   4.981   5.607  17.805
 6269TIP3    H169275   5.050   5.546  17.780
 6269TIP3    H269276   5.014   5.650  17.886
 6270TIP3   OH269277   5.007   5.500  17.506
 6270TIP3    H169278   4.918   5.521  17.476
 6270TIP3    H269279   5.050   5.586  17.502
 6271TIP3   OH269280   4.049   3.874  16.927
 6271TIP3    H169281   3.969   3.852  16.878
 6271TIP3    H269282   4.100   3.791  16.923
 6272TIP3   OH269283   3.928   3.855  16.501
 6272TIP3    H169284   3.976   3.918  16.448
 6272TIP3    H269285   3.871   3.909  16.559
 6273TIP3   OH269286   3.918   5.447  16.601
 6273TIP3    H169287   3.851   5.451  16.530
 6273TIP3    H269288   3.924   5.541  16.623
 6274TIP3   OH269289   5.480   5.528  16.707
 6274TIP3    H169290   5.458   5.454  16.649
 6274TIP3    H269291   5.471   5.603  16.645
 6275TIP3   OH269292   4.041   3.932  17.876
 6275TIP3    H169293   4.006   3.853  17.919
 6275TIP3    H269294   4.132   3.930  17.913
 6276TIP3   OH269295   4.243   3.866  18.033
 6276TIP3    H169296   4.330   3.832  18.013
 6276TIP3    H269297   4.205   3.789  18.079
 6277TIP3   OH269298   6.840   4.792  16.926
 6277TIP3    H169299   6.850   4.885  16.909
 6277TIP3    H269300   6.778   4.765  16.856
 6278TIP3   OH269301   6.731   4.716  17.269
 6278TIP3    H169302   6.734   4.650  17.339
 6278TIP3    H269303   6.702   4.669  17.191
 6279TIP3   OH269304   5.966   4.682  17.423
 6279TIP3    H169305   5.975   4.614  17.492
 6279TIP3    H269306   6.040   4.740  17.443
 6280TIP3   OH269307   6.059   5.129  17.272
 6280TIP3    H169308   6.027   5.041  17.241
 6280TIP3    H269309   6.154   5.108  17.276
 6281TIP3   OH269310   5.727   4.488  16.815
 6281TIP3    H169311   5.682   4.573  16.818
 6281TIP3    H269312   5.667   4.432  16.765
 6282TIP3   OH269313   7.434   4.121  17.387
 6282TIP3    H169314   7.449   4.177  17.466
 6282TIP3    H269315   7.486   4.166  17.320
 6283TIP3   OH269316   5.858   4.449  17.138
 6283TIP3    H169317   5.929   4.400  17.184
 6283TIP3    H269318   5.873   4.423  17.046
 6284TIP3   OH269319   6.374   4.606  17.072
 6284TIP3    H169320   6.443   4.551  17.111
 6284TIP3    H269321   6.324   4.540  17.020
 6285TIP3   OH269322   7.481   4.273  17.617
 6285TIP3    H169323   7.409   4.335  17.603
 6285TIP3    H269324   7.475   4.246  17.708
 6286TIP3   OH269325   6.084   4.099  17.472
 6286TIP3    H169326   6.061   4.158  17.398
 6286TIP3    H269327   6.018   4.126  17.540
 6287TIP3   OH269328   6.342   4.867  17.492
 6287TIP3    H169329   6.270   4.929  17.516
 6287TIP3    H269330   6.414   4.927  17.470
 6288TIP3   OH269331   6.042   4.292  17.264
 6288TIP3    H169332   6.108   4.354  17.305
 6288TIP3    H269333   6.097   4.243  17.202
 6289TIP3   OH269334   6.180   5.063  17.576
 6289TIP3    H169335   6.179   5.156  17.544
 6289TIP3    H269336   6.093   5.058  17.622
 6290TIP3   OH269337   5.789   5.028  16.653
 6290TIP3    H169338   5.770   5.062  16.565
 6290TIP3    H269339   5.801   5.111  16.704
 6291TIP3   OH269340   7.187   4.024  17.476
 6291TIP3    H169341   7.116   4.086  17.464
 6291TIP3    H269342   7.258   4.061  17.420
 6292TIP3   OH269343   6.711   4.718  16.669
 6292TIP3    H169344   6.640   4.774  16.630
 6292TIP3    H269345   6.782   4.723  16.602
 6293TIP3   OH269346   7.454   4.653  17.504
 6293TIP3    H169347   7.393   4.727  17.511
 6293TIP3    H269348   7.500   4.675  17.420
 6294TIP3   OH269349   6.219   4.804  16.953
 6294TIP3    H169350   6.184   4.763  16.870
 6294TIP3    H269351   6.278   4.733  16.987
 6295TIP3   OH269352   6.350   5.141  17.221
 6295TIP3    H169353   6.347   5.088  17.140
 6295TIP3    H269354   6.428   5.104  17.266
 6296TIP3   OH269355   6.251   4.676  17.316
 6296TIP3    H169356   6.307   4.689  17.237
 6296TIP3    H269357   6.287   4.741  17.379
 6297TIP3   OH269358   6.345   5.114  17.787
 6297TIP3    H169359   6.311   5.192  17.835
 6297TIP3    H269360   6.280   5.100  17.716
 6298TIP3   OH269361   6.040   4.736  17.707
 6298TIP3    H169362   6.041   4.803  17.778
 6298TIP3    H269363   5.948   4.742  17.679
 6299TIP3   OH269364   6.170   5.322  17.864
 6299TIP3    H169365   6.165   5.313  17.767
 6299TIP3    H269366   6.076   5.310  17.890
 6300TIP3   OH269367   6.113   4.704  16.714
 6300TIP3    H169368   6.088   4.782  16.661
 6300TIP3    H269369   6.045   4.639  16.692
 6301TIP3   OH269370   5.700   5.222  17.275
 6301TIP3    H169371   5.795   5.206  17.280
 6301TIP3    H269372   5.690   5.302  17.330
 6302TIP3   OH269373   6.658   5.620  16.714
 6302TIP3    H169374   6.657   5.611  16.619
 6302TIP3    H269375   6.666   5.716  16.730
 6303TIP3   OH269376   6.028   5.505  16.897
 6303TIP3    H169377   6.041   5.466  16.986
 6303TIP3    H269378   5.942   5.467  16.874
 6304TIP3   OH269379   5.949   5.079  17.698
 6304TIP3    H169380   5.971   5.040  17.785
 6304TIP3    H269381   5.865   5.038  17.676
 6305TIP3   OH269382   6.229   4.420  17.411
 6305TIP3    H169383   6.162   4.419  17.481
 6305TIP3    H269384   6.228   4.513  17.381
 6306TIP3   OH269385   6.223   4.442  16.901
 6306TIP3    H169386   6.130   4.413  16.892
 6306TIP3    H269387   6.264   4.406  16.822
 6307TIP3   OH269388   6.779   4.483  16.781
 6307TIP3    H169389   6.738   4.565  16.749
 6307TIP3    H269390   6.848   4.465  16.715
 6308TIP3   OH269391   6.686   4.498  17.926
 6308TIP3    H169392   6.629   4.428  17.960
 6308TIP3    H269393   6.766   4.489  17.977
 6309TIP3   OH269394   6.872   4.427  17.061
 6309TIP3    H169395   6.857   4.487  16.988
 6309TIP3    H269396   6.893   4.346  17.013
 6310TIP3   OH269397   5.993   4.451  17.588
 6310TIP3    H169398   5.999   4.490  17.677
 6310TIP3    H269399   5.950   4.366  17.605
 6311TIP3   OH269400   5.661   4.165  16.977
 6311TIP3    H169401   5.722   4.155  17.053
 6311TIP3    H269402   5.703   4.116  16.905
 6312TIP3   OH269403   5.789   4.235  16.523
 6312TIP3    H169404   5.834   4.292  16.459
 6312TIP3    H269405   5.717   4.294  16.552
 6313TIP3   OH269406   6.797   4.590  17.520
 6313TIP3    H169407   6.842   4.529  17.462
 6313TIP3    H269408   6.753   4.537  17.589
 6314TIP3   OH269409   5.966   4.346  16.888
 6314TIP3    H169410   5.876   4.361  16.853
 6314TIP3    H269411   5.988   4.260  16.850
 6315TIP3   OH269412   6.197   4.461  16.414
 6315TIP3    H169413   6.140   4.433  16.341
 6315TIP3    H269414   6.276   4.488  16.367
 6316TIP3   OH269415   6.010   4.925  17.919
 6316TIP3    H169416   6.082   4.949  17.980
 6316TIP3    H269417   5.932   4.931  17.977
 6317TIP3   OH269418   6.534   4.919  16.606
 6317TIP3    H169419   6.455   4.873  16.572
 6317TIP3    H269420   6.513   4.933  16.700
 6318TIP3   OH269421   6.988   4.392  16.587
 6318TIP3    H169422   7.076   4.377  16.627
 6318TIP3    H269423   6.998   4.471  16.533
 6319TIP3   OH269424   6.050   4.862  17.187
 6319TIP3    H169425   6.113   4.850  17.113
 6319TIP3    H269426   6.046   4.773  17.226
 6320TIP3   OH269427   6.446   4.648  17.934
 6320TIP3    H169428   6.413   4.631  17.844
 6320TIP3    H269429   6.540   4.628  17.925
 6321TIP3   OH269430   6.280   5.207  16.928
 6321TIP3    H169431   6.331   5.284  16.900
 6321TIP3    H269432   6.193   5.228  16.891
 6322TIP3   OH269433   5.857   4.694  16.372
 6322TIP3    H169434   5.919   4.754  16.418
 6322TIP3    H269435   5.771   4.717  16.412
 6323TIP3   OH269436   6.422   4.972  16.876
 6323TIP3    H169437   6.392   5.064  16.884
 6323TIP3    H269438   6.349   4.924  16.919
 6324TIP3   OH269439   6.470   5.387  17.513
 6324TIP3    H169440   6.512   5.471  17.490
 6324TIP3    H269441   6.526   5.357  17.587
 6325TIP3   OH269442   6.290   5.470  16.831
 6325TIP3    H169443   6.194   5.484  16.843
 6325TIP3    H269444   6.327   5.554  16.864
 6326TIP3   OH269445   7.099   5.455  17.728
 6326TIP3    H169446   7.036   5.399  17.679
 6326TIP3    H269447   7.125   5.518  17.661
 6327TIP3   OH269448   5.907   4.173  17.665
 6327TIP3    H169449   5.817   4.207  17.664
 6327TIP3    H269450   5.896   4.090  17.714
 6328TIP3   OH269451   5.871   5.353  17.508
 6328TIP3    H169452   5.898   5.261  17.508
 6328TIP3    H269453   5.897   5.381  17.596
 6329TIP3   OH269454   6.340   5.160  16.478
 6329TIP3    H169455   6.370   5.105  16.552
 6329TIP3    H269456   6.353   5.251  16.512
 6330TIP3   OH269457   5.995   4.882  16.530
 6330TIP3    H169458   5.926   4.924  16.584
 6330TIP3    H269459   6.046   4.961  16.504
 6331TIP3   OH269460   6.623   5.322  16.549
 6331TIP3    H169461   6.544   5.376  16.560
 6331TIP3    H269462   6.679   5.376  16.492
 6332TIP3   OH269463   6.639   4.389  17.668
 6332TIP3    H169464   6.641   4.444  17.747
 6332TIP3    H269465   6.695   4.314  17.684
 6333TIP3   OH269466   6.358   5.429  16.553
 6333TIP3    H169467   6.377   5.512  16.504
 6333TIP3    H269468   6.339   5.462  16.644
 6334TIP3   OH269469   6.230   4.102  16.515
 6334TIP3    H169470   6.221   4.192  16.548
 6334TIP3    H269471   6.319   4.076  16.539
 6335TIP3   OH269472   6.058   5.145  16.419
 6335TIP3    H169473   6.123   5.209  16.449
 6335TIP3    H269474   6.103   5.099  16.348
 6336TIP3   OH269475   5.951   3.896  17.210
 6336TIP3    H169476   5.945   3.895  17.113
 6336TIP3    H269477   5.923   3.806  17.232
 6337TIP3   OH269478   5.865   5.283  16.819
 6337TIP3    H169479   5.780   5.327  16.815
 6337TIP3    H269480   5.913   5.328  16.748
 6338TIP3   OH269481   5.789   5.549  17.948
 6338TIP3    H169482   5.846   5.526  18.023
 6338TIP3    H269483   5.746   5.464  17.928
 6339TIP3   OH269484   6.251   5.437  18.110
 6339TIP3    H169485   6.329   5.390  18.141
 6339TIP3    H269486   6.250   5.411  18.015
 6340TIP3   OH269487   7.122   5.368  16.266
 6340TIP3    H169488   7.148   5.289  16.314
 6340TIP3    H269489   7.200   5.389  16.215
 6341TIP3   OH269490   6.443   4.924  17.986
 6341TIP3    H169491   6.416   4.956  17.898
 6341TIP3    H269492   6.460   4.828  17.971
 6342TIP3   OH269493   6.758   5.076  16.227
 6342TIP3    H169494   6.723   5.091  16.316
 6342TIP3    H269495   6.739   4.983  16.219
 6343TIP3   OH269496   5.872   4.648  17.987
 6343TIP3    H169497   5.908   4.559  17.975
 6343TIP3    H269498   5.838   4.648  18.076
 6344TIP3   OH269499   6.335   4.758  16.493
 6344TIP3    H169500   6.282   4.706  16.555
 6344TIP3    H269501   6.358   4.693  16.426
 6345TIP3   OH269502   6.259   4.544  17.725
 6345TIP3    H169503   6.196   4.614  17.748
 6345TIP3    H269504   6.296   4.576  17.641
 6346TIP3   OH269505   6.341   4.119  17.575
 6346TIP3    H169506   6.389   4.164  17.506
 6346TIP3    H269507   6.251   4.108  17.539
 6347TIP3   OH269508   6.495   4.666  17.607
 6347TIP3    H169509   6.570   4.650  17.548
 6347TIP3    H269510   6.458   4.749  17.573
 6348TIP3   OH269511   6.145   4.404  18.017
 6348TIP3    H169512   6.067   4.347  18.002
 6348TIP3    H269513   6.210   4.367  17.957
 6349TIP3   OH269514   5.951   4.198  17.993
 6349TIP3    H169515   5.977   4.125  17.934
 6349TIP3    H269516   5.950   4.152  18.080
 6350TIP3   OH269517   6.424   5.649  16.412
 6350TIP3    H169518   6.520   5.662  16.429
 6350TIP3    H269519   6.406   5.721  16.351
 6351TIP3   OH269520   5.658   5.651  16.863
 6351TIP3    H169521   5.585   5.603  16.817
 6351TIP3    H269522   5.682   5.584  16.930
 6352TIP3   OH269523   5.741   5.462  17.048
 6352TIP3    H169524   5.702   5.376  17.069
 6352TIP3    H269525   5.759   5.496  17.138
 6353TIP3   OH269526   7.289   5.286  17.557
 6353TIP3    H169527   7.224   5.307  17.624
 6353TIP3    H269528   7.238   5.231  17.497
 6354TIP3   OH269529   7.473   4.533  17.903
 6354TIP3    H169530   7.384   4.500  17.910
 6354TIP3    H269531   7.535   4.461  17.921
 6355TIP3   OH269532   7.254   4.170  16.245
 6355TIP3    H169533   7.311   4.132  16.311
 6355TIP3    H269534   7.168   4.132  16.266
 6356TIP3   OH269535   7.214   4.321  16.735
 6356TIP3    H169536   7.240   4.230  16.750
 6356TIP3    H269537   7.294   4.360  16.699
 6357TIP3   OH269538   5.709   4.299  17.911
 6357TIP3    H169539   5.801   4.278  17.934
 6357TIP3    H269540   5.662   4.218  17.941
 6358TIP3   OH269541   7.492   3.850  18.088
 6358TIP3    H169542   7.542   3.785  18.037
 6358TIP3    H269543   7.524   3.932  18.051
 6359TIP3   OH269544   5.827   4.129  17.197
 6359TIP3    H169545   5.871   4.047  17.228
 6359TIP3    H269546   5.879   4.199  17.240
 6360TIP3   OH269547   5.660   4.423  17.311
 6360TIP3    H169548   5.711   4.402  17.230
 6360TIP3    H269549   5.702   4.507  17.330
 6361TIP3   OH269550   5.690   4.053  16.705
 6361TIP3    H169551   5.596   4.072  16.697
 6361TIP3    H269552   5.734   4.107  16.637
 6362TIP3   OH269553   5.908   5.245  17.959
 6362TIP3    H169554   5.822   5.263  17.916
 6362TIP3    H269555   5.884   5.236  18.052
 6363TIP3   OH269556   6.199   5.339  17.584
 6363TIP3    H169557   6.164   5.425  17.558
 6363TIP3    H269558   6.292   5.350  17.555
 6364TIP3   OH269559   6.629   5.484  17.879
 6364TIP3    H169560   6.646   5.446  17.968
 6364TIP3    H269561   6.717   5.511  17.849
 6365TIP3   OH269562   6.862   5.610  17.807
 6365TIP3    H169563   6.933   5.549  17.781
 6365TIP3    H269564   6.899   5.653  17.884
 6366TIP3   OH269565   7.353   3.867  17.717
 6366TIP3    H169566   7.276   3.903  17.669
 6366TIP3    H269567   7.380   3.795  17.660
 6367TIP3   OH269568   5.941   5.661  17.585
 6367TIP3    H169569   5.869   5.714  17.545
 6367TIP3    H269570   5.909   5.651  17.676
 6368TIP3   OH269571   6.188   5.620  17.494
 6368TIP3    H169572   6.099   5.640  17.533
 6368TIP3    H269573   6.184   5.678  17.415
 6369TIP3   OH269574   6.656   5.613  17.413
 6369TIP3    H169575   6.616   5.670  17.345
 6369TIP3    H269576   6.672   5.680  17.484
 6370TIP3   OH269577   6.895   5.503  17.504
 6370TIP3    H169578   6.803   5.522  17.476
 6370TIP3    H269579   6.932   5.591  17.494
 6371TIP3   OH269580   5.887   5.530  17.279
 6371TIP3    H169581   5.880   5.484  17.366
 6371TIP3    H269582   5.968   5.492  17.240
 6372TIP3   OH269583   6.095   5.399  17.144
 6372TIP3    H169584   6.077   5.306  17.168
 6372TIP3    H269585   6.181   5.414  17.189
 6373TIP3   OH269586   6.359   5.448  17.231
 6373TIP3    H169587   6.368   5.355  17.205
 6373TIP3    H269588   6.358   5.443  17.328
 6374TIP3   OH269589   5.815   3.852  16.503
 6374TIP3    H169590   5.862   3.917  16.447
 6374TIP3    H269591   5.758   3.909  16.558
 6375TIP3   OH269592   5.809   5.448  16.600
 6375TIP3    H169593   5.737   5.447  16.534
 6375TIP3    H269594   5.808   5.543  16.621
 6376TIP3   OH269595   6.001   4.042  16.356
 6376TIP3    H169596   6.053   3.985  16.299
 6376TIP3    H269597   6.066   4.080  16.417
 6377TIP3   OH269598   6.691   5.581  16.431
 6377TIP3    H169599   6.783   5.601  16.418
 6377TIP3    H269600   6.671   5.525  16.355
 6378TIP3   OH269601   5.925   3.936  17.883
 6378TIP3    H169602   5.889   3.849  17.914
 6378TIP3    H269603   6.018   3.925  17.913
 6379TIP3   OH269604   6.125   3.870  18.042
 6379TIP3    H169605   6.214   3.840  18.015
 6379TIP3    H269606   6.089   3.788  18.081
 6380TIP3   OH269607   5.989   5.547  16.299
 6380TIP3    H169608   5.961   5.573  16.387
 6380TIP3    H269609   6.065   5.489  16.317
 6381TIP3   OH269610   7.864   4.675  17.418
 6381TIP3    H169611   7.860   4.620  17.498
 6381TIP3    H269612   7.928   4.742  17.445
 6382TIP3   OH269613   7.910   5.110  17.304
 6382TIP3    H169614   7.894   5.036  17.244
 6382TIP3    H269615   8.007   5.103  17.305
 6383TIP3   OH269616   8.023   5.025  17.539
 6383TIP3    H169617   8.058   5.116  17.534
 6383TIP3    H269618   7.970   5.041  17.620
 6384TIP3   OH269619   7.690   5.033  16.659
 6384TIP3    H169620   7.652   5.049  16.572
 6384TIP3    H269621   7.680   5.118  16.706
 6385TIP3   OH269622   7.922   4.732  17.707
 6385TIP3    H169623   7.930   4.800  17.776
 6385TIP3    H269624   7.831   4.747  17.680
 6386TIP3   OH269625   8.018   5.370  17.908
 6386TIP3    H169626   8.051   5.347  17.820
 6386TIP3    H269627   7.942   5.310  17.910
 6387TIP3   OH269628   7.900   5.512  16.894
 6387TIP3    H169629   7.923   5.472  16.979
 6387TIP3    H269630   7.820   5.463  16.872
 6388TIP3   OH269631   7.825   5.081  17.705
 6388TIP3    H169632   7.856   5.035  17.785
 6388TIP3    H269633   7.749   5.032  17.676
 6389TIP3   OH269634   8.082   4.471  17.520
 6389TIP3    H169635   8.019   4.407  17.488
 6389TIP3    H269636   8.106   4.495  17.429
 6390TIP3   OH269637   7.894   4.925  17.920
 6390TIP3    H169638   7.969   4.950  17.978
 6390TIP3    H269639   7.819   4.945  17.975
 6391TIP3   OH269640   7.928   4.861  17.194
 6391TIP3    H169641   7.997   4.851  17.126
 6391TIP3    H269642   7.932   4.773  17.235
 6392TIP3   OH269643   7.636   4.700  17.711
 6392TIP3    H169644   7.649   4.655  17.794
 6392TIP3    H269645   7.565   4.646  17.669
 6393TIP3   OH269646   7.738   4.692  16.376
 6393TIP3    H169647   7.801   4.752  16.420
 6393TIP3    H269648   7.654   4.721  16.412
 6394TIP3   OH269649   7.756   5.354  17.510
 6394TIP3    H169650   7.781   5.260  17.506
 6394TIP3    H269651   7.782   5.379  17.598
 6395TIP3   OH269652   7.880   4.881  16.525
 6395TIP3    H169653   7.812   4.917  16.586
 6395TIP3    H269654   7.931   4.961  16.506
 6396TIP3   OH269655   7.950   5.137  16.424
 6396TIP3    H169656   8.001   5.214  16.446
 6396TIP3    H269657   7.988   5.100  16.344
 6397TIP3   OH269658   7.749   5.285  16.816
 6397TIP3    H169659   7.663   5.329  16.815
 6397TIP3    H269660   7.801   5.331  16.750
 6398TIP3   OH269661   7.627   5.461  17.050
 6398TIP3    H169662   7.589   5.375  17.068
 6398TIP3    H269663   7.647   5.497  17.138
 6399TIP3   OH269664   7.635   4.755  17.295
 6399TIP3    H169665   7.652   4.761  17.200
 6399TIP3    H269666   7.724   4.751  17.334
 6400TIP3   OH269667   7.786   5.230  17.960
 6400TIP3    H169668   7.709   5.264  17.914
 6400TIP3    H269669   7.763   5.242  18.053
 6401TIP3   OH269670   8.040   5.389  17.488
 6401TIP3    H169671   8.028   5.455  17.558
 6401TIP3    H269672   8.131   5.369  17.523
 6402TIP3   OH269673   7.826   5.665  17.589
 6402TIP3    H169674   7.755   5.711  17.543
 6402TIP3    H269675   7.788   5.641  17.674
 6403TIP3   OH269676   8.065   5.632  17.491
 6403TIP3    H169677   7.974   5.641  17.526
 6403TIP3    H269678   8.068   5.687  17.410
 6404TIP3   OH269679   7.777   5.537  17.282
 6404TIP3    H169680   7.768   5.483  17.363
 6404TIP3    H269681   7.855   5.494  17.239
 6405TIP3   OH269682   7.973   5.418  17.172
 6405TIP3    H169683   7.955   5.323  17.169
 6405TIP3    H269684   8.067   5.418  17.197
 6406TIP3   OH269685   8.014   3.857  18.017
 6406TIP3    H169686   8.107   3.833  18.016
 6406TIP3    H269687   7.974   3.795  18.078
 6407TIP3   OH269688   7.879   5.549  16.295
 6407TIP3    H169689   7.843   5.569  16.382
 6407TIP3    H269690   7.952   5.492  16.316
 6408TIP3   OH269691   1.191   6.680  16.920
 6408TIP3    H169692   1.193   6.776  16.915
 6408TIP3    H269693   1.119   6.660  16.861
 6409TIP3   OH269694   1.445   6.898  17.094
 6409TIP3    H169695   1.402   6.827  17.142
 6409TIP3    H269696   1.447   6.969  17.161
 6410TIP3   OH269697   0.088   6.374  16.765
 6410TIP3    H169698   0.049   6.456  16.804
 6410TIP3    H269699   0.013   6.324  16.742
 6411TIP3   OH269700   0.158   6.593  17.046
 6411TIP3    H169701   0.170   6.502  17.075
 6411TIP3    H269702   0.210   6.598  16.962
 6412TIP3   OH269703   1.158   7.413  17.118
 6412TIP3    H169704   1.220   7.343  17.088
 6412TIP3    H269705   1.136   7.380  17.205
 6413TIP3   OH269706   1.783   6.015  17.400
 6413TIP3    H169707   1.795   6.079  17.473
 6413TIP3    H269708   1.830   6.056  17.328
 6414TIP3   OH269709   1.318   6.107  16.902
 6414TIP3    H169710   1.380   6.073  16.968
 6414TIP3    H269711   1.374   6.162  16.845
 6415TIP3   OH269712   1.822   6.157  17.613
 6415TIP3    H169713   1.752   6.223  17.604
 6415TIP3    H269714   1.821   6.138  17.708
 6416TIP3   OH269715   0.133   6.920  16.660
 6416TIP3    H169716   0.114   6.944  16.570
 6416TIP3    H269717   0.147   7.003  16.707
 6417TIP3   OH269718   1.500   7.078  17.329
 6417TIP3    H169719   1.405   7.091  17.345
 6417TIP3    H269720   1.526   7.172  17.315
 6418TIP3   OH269721   1.332   7.260  16.996
 6418TIP3    H169722   1.365   7.188  16.938
 6418TIP3    H269723   1.361   7.339  16.950
 6419TIP3   OH269724   1.436   7.053  16.841
 6419TIP3    H169725   1.415   6.983  16.778
 6419TIP3    H269726   1.450   7.003  16.923
 6420TIP3   OH269727   1.791   6.540  17.494
 6420TIP3    H169728   1.728   6.615  17.503
 6420TIP3    H269729   1.842   6.559  17.416
 6421TIP3   OH269730   1.401   6.622  16.761
 6421TIP3    H169731   1.327   6.644  16.822
 6421TIP3    H269732   1.449   6.554  16.812
 6422TIP3   OH269733   1.391   6.438  17.668
 6422TIP3    H169734   1.394   6.517  17.726
 6422TIP3    H269735   1.328   6.467  17.601
 6423TIP3   OH269736   1.230   7.119  17.383
 6423TIP3    H169737   1.211   7.182  17.454
 6423TIP3    H269738   1.209   7.033  17.426
 6424TIP3   OH269739   1.084   7.187  16.921
 6424TIP3    H169740   1.124   7.255  16.972
 6424TIP3    H269741   1.018   7.243  16.873
 6425TIP3   OH269742   0.508   7.218  17.863
 6425TIP3    H169743   0.510   7.192  17.770
 6425TIP3    H269744   0.417   7.194  17.887
 6426TIP3   OH269745   0.107   6.802  17.583
 6426TIP3    H169746   0.032   6.832  17.526
 6426TIP3    H269747   0.066   6.727  17.625
 6427TIP3   OH269748   0.049   7.105  17.281
 6427TIP3    H169749   0.144   7.094  17.277
 6427TIP3    H269750   0.038   7.184  17.335
 6428TIP3   OH269751   1.056   7.583  16.679
 6428TIP3    H169752   0.998   7.512  16.642
 6428TIP3    H269753   0.993   7.637  16.730
 6429TIP3   OH269754   0.374   7.356  16.858
 6429TIP3    H169755   0.388   7.356  16.957
 6429TIP3    H269756   0.279   7.351  16.865
 6430TIP3   OH269757   1.306   7.422  16.414
 6430TIP3    H169758   1.357   7.350  16.371
 6430TIP3    H269759   1.317   7.403  16.509
 6431TIP3   OH269760   1.283   7.419  16.696
 6431TIP3    H169761   1.185   7.427  16.708
 6431TIP3    H269762   1.302   7.340  16.747
 6432TIP3   OH269763   1.582   6.322  17.898
 6432TIP3    H169764   1.535   6.368  17.827
 6432TIP3    H269765   1.581   6.231  17.864
 6433TIP3   OH269766   0.284   6.974  17.701
 6433TIP3    H169767   0.319   6.925  17.778
 6433TIP3    H269768   0.208   6.920  17.671
 6434TIP3   OH269769   1.025   5.787  17.636
 6434TIP3    H169770   1.069   5.733  17.705
 6434TIP3    H269771   0.931   5.760  17.646
 6435TIP3   OH269772   1.360   6.162  17.724
 6435TIP3    H169773   1.295   6.145  17.796
 6435TIP3    H269774   1.340   6.252  17.694
 6436TIP3   OH269775   0.990   6.034  16.363
 6436TIP3    H169776   0.961   6.032  16.456
 6436TIP3    H269777   0.965   5.947  16.333
 6437TIP3   OH269778   1.228   6.323  17.059
 6437TIP3    H169779   1.195   6.374  16.986
 6437TIP3    H269780   1.236   6.233  17.022
 6438TIP3   OH269781   0.040   6.040  16.919
 6438TIP3    H169782   0.063   6.038  17.016
 6438TIP3    H269783   0.085   5.966  16.882
 6439TIP3   OH269784   0.148   6.141  16.534
 6439TIP3    H169785   0.181   6.190  16.459
 6439TIP3    H269786   0.066   6.188  16.554
 6440TIP3   OH269787   1.580   7.570  17.969
 6440TIP3    H169788   1.607   7.599  17.881
 6440TIP3    H269789   1.656   7.598  18.020
 6441TIP3   OH269790   0.365   6.834  17.915
 6441TIP3    H169791   0.434   6.837  17.980
 6441TIP3    H269792   0.283   6.828  17.969
 6442TIP3   OH269793   1.591   6.720  17.479
 6442TIP3    H169794   1.646   6.778  17.427
 6442TIP3    H269795   1.503   6.732  17.437
 6443TIP3   OH269796   1.264   6.080  16.422
 6443TIP3    H169797   1.170   6.099  16.404
 6443TIP3    H269798   1.291   6.170  16.450
 6444TIP3   OH269799   1.336   6.279  16.593
 6444TIP3    H169800   1.427   6.266  16.624
 6444TIP3    H269801   1.339   6.357  16.536
 6445TIP3   OH269802   0.384   6.738  17.184
 6445TIP3    H169803   0.451   6.740  17.116
 6445TIP3    H269804   0.394   6.655  17.227
 6446TIP3   OH269805   1.087   6.951  16.513
 6446TIP3    H169806   1.054   7.040  16.540
 6446TIP3    H269807   1.011   6.895  16.529
 6447TIP3   OH269808   1.244   7.063  17.725
 6447TIP3    H169809   1.158   7.097  17.700
 6447TIP3    H269810   1.256   7.106  17.813
 6448TIP3   OH269811   1.819   6.298  16.564
 6448TIP3    H169812   1.770   6.261  16.490
 6448TIP3    H269813   1.833   6.389  16.533
 6449TIP3   OH269814   1.369   6.660  17.311
 6449TIP3    H169815   1.277   6.634  17.300
 6449TIP3    H269816   1.414   6.582  17.271
 6450TIP3   OH269817   0.633   7.363  16.825
 6450TIP3    H169818   0.538   7.367  16.844
 6450TIP3    H269819   0.670   7.443  16.863
 6451TIP3   OH269820   1.169   6.882  17.481
 6451TIP3    H169821   1.129   6.856  17.565
 6451TIP3    H269822   1.228   6.809  17.460
 6452TIP3   OH269823   1.394   6.980  16.391
 6452TIP3    H169824   1.424   6.934  16.472
 6452TIP3    H269825   1.298   6.966  16.397
 6453TIP3   OH269826   1.440   7.334  17.727
 6453TIP3    H169827   1.376   7.283  17.675
 6453TIP3    H269828   1.466   7.405  17.664
 6454TIP3   OH269829   0.254   6.058  17.669
 6454TIP3    H169830   0.166   6.098  17.662
 6454TIP3    H269831   0.234   5.973  17.707
 6455TIP3   OH269832   1.477   6.848  16.613
 6455TIP3    H169833   1.453   6.765  16.662
 6455TIP3    H269834   1.572   6.854  16.633
 6456TIP3   OH269835   0.199   7.232  17.529
 6456TIP3    H169836   0.244   7.147  17.509
 6456TIP3    H269837   0.248   7.264  17.604
 6457TIP3   OH269838   1.116   6.041  17.565
 6457TIP3    H169839   1.195   6.043  17.620
 6457TIP3    H269840   1.088   5.948  17.574
 6458TIP3   OH269841   1.201   5.991  16.670
 6458TIP3    H169842   1.223   6.041  16.588
 6458TIP3    H269843   1.252   6.040  16.737
 6459TIP3   OH269844   0.951   7.187  16.482
 6459TIP3    H169845   0.897   7.235  16.550
 6459TIP3    H269846   1.022   7.251  16.491
 6460TIP3   OH269847   0.926   6.162  16.752
 6460TIP3    H169848   0.999   6.225  16.753
 6460TIP3    H269849   0.896   6.160  16.844
 6461TIP3   OH269850   0.689   7.318  16.548
 6461TIP3    H169851   0.726   7.397  16.506
 6461TIP3    H269852   0.686   7.344  16.644
 6462TIP3   OH269853   1.598   6.064  17.756
 6462TIP3    H169854   1.503   6.087  17.742
 6462TIP3    H269855   1.626   6.054  17.664
 6463TIP3   OH269856   1.457   6.441  17.159
 6463TIP3    H169857   1.375   6.395  17.131
 6463TIP3    H269858   1.503   6.367  17.208
 6464TIP3   OH269859   1.563   7.353  17.320
 6464TIP3    H169860   1.551   7.424  17.255
 6464TIP3    H269861   1.657   7.364  17.341
 6465TIP3   OH269862   0.198   7.161  16.811
 6465TIP3    H169863   0.122   7.217  16.818
 6465TIP3    H269864   0.259   7.216  16.757
 6466TIP3   OH269865   0.153   7.426  17.937
 6466TIP3    H169866   0.194   7.409  18.023
 6466TIP3    H269867   0.089   7.352  17.930
 6467TIP3   OH269868   0.597   7.324  18.108
 6467TIP3    H169869   0.672   7.272  18.140
 6467TIP3    H269870   0.594   7.297  18.014
 6468TIP3   OH269871   1.249   7.162  17.981
 6468TIP3    H169872   1.217   7.075  18.011
 6468TIP3    H269873   1.326   7.177  18.041
 6469TIP3   OH269874   1.462   7.250  16.267
 6469TIP3    H169875   1.490   7.171  16.316
 6469TIP3    H269876   1.539   7.281  16.218
 6470TIP3   OH269877   0.142   6.806  18.031
 6470TIP3    H169878   0.142   6.711  18.010
 6470TIP3    H269879   0.066   6.838  17.978
 6471TIP3   OH269880   1.363   6.796  17.720
 6471TIP3    H169881   1.439   6.855  17.715
 6471TIP3    H269882   1.293   6.862  17.730
 6472TIP3   OH269883   0.626   6.167  17.814
 6472TIP3    H169884   0.654   6.094  17.758
 6472TIP3    H269885   0.642   6.246  17.764
 6473TIP3   OH269886   0.677   6.003  17.579
 6473TIP3    H169887   0.734   6.047  17.514
 6473TIP3    H269888   0.591   5.997  17.536
 6474TIP3   OH269889   1.275   6.328  18.100
 6474TIP3    H169890   1.298   6.235  18.096
 6474TIP3    H269891   1.361   6.372  18.105
 6475TIP3   OH269892   1.411   6.609  17.919
 6475TIP3    H169893   1.383   6.679  17.857
 6475TIP3    H269894   1.507   6.604  17.900
 6476TIP3   OH269895   0.760   5.748  17.623
 6476TIP3    H169896   0.747   5.844  17.611
 6476TIP3    H269897   0.685   5.711  17.576
 6477TIP3   OH269898   1.159   6.094  17.891
 6477TIP3    H169899   1.063   6.098  17.899
 6477TIP3    H269900   1.187   6.026  17.953
 6478TIP3   OH269901   0.291   6.074  17.991
 6478TIP3    H169902   0.330   6.008  17.934
 6478TIP3    H269903   0.297   6.039  18.081
 6479TIP3   OH269904   0.767   7.539  16.411
 6479TIP3    H169905   0.864   7.547  16.427
 6479TIP3    H269906   0.748   7.608  16.350
 6480TIP3   OH269907   8.161   7.530  16.904
 6480TIP3    H169908   8.095   7.493  16.838
 6480TIP3    H269909   8.188   7.446  16.944
 6481TIP3   OH269910   0.080   7.340  17.052
 6481TIP3    H169911   0.056   7.248  17.070
 6481TIP3    H269912   0.116   7.376  17.134
 6482TIP3   OH269913   1.637   6.960  18.104
 6482TIP3    H169914   1.548   6.953  18.143
 6482TIP3    H269915   1.673   7.037  18.148
 6483TIP3   OH269916   1.770   6.787  16.649
 6483TIP3    H169917   1.852   6.831  16.672
 6483TIP3    H269918   1.767   6.718  16.719
 6484TIP3   OH269919   1.806   6.598  16.837
 6484TIP3    H169920   1.729   6.548  16.875
 6484TIP3    H269921   1.865   6.613  16.912
 6485TIP3   OH269922   1.634   7.160  17.557
 6485TIP3    H169923   1.571   7.194  17.622
 6485TIP3    H269924   1.578   7.116  17.492
 6486TIP3   OH269925   1.836   6.584  16.473
 6486TIP3    H169926   1.774   6.616  16.407
 6486TIP3    H269927   1.827   6.651  16.544
 6487TIP3   OH269928   1.586   6.448  16.894
 6487TIP3    H169929   1.569   6.353  16.889
 6487TIP3    H269930   1.551   6.469  16.982
 6488TIP3   OH269931   0.085   6.649  17.297
 6488TIP3    H169932   0.106   6.647  17.200
 6488TIP3    H269933   0.173   6.647  17.336
 6489TIP3   OH269934   1.671   6.643  17.860
 6489TIP3    H169935   1.733   6.568  17.875
 6489TIP3    H269936   1.731   6.719  17.860
 6490TIP3   OH269937   1.821   6.433  17.927
 6490TIP3    H169938   1.732   6.392  17.913
 6490TIP3    H269939   1.878   6.354  17.918
 6491TIP3   OH269940   1.594   6.044  16.237
 6491TIP3    H169941   1.654   6.011  16.307
 6491TIP3    H269942   1.509   6.011  16.265
 6492TIP3   OH269943   1.557   6.204  16.744
 6492TIP3    H169944   1.586   6.110  16.752
 6492TIP3    H269945   1.634   6.244  16.701
 6493TIP3   OH269946   1.617   6.264  17.281
 6493TIP3    H169947   1.713   6.284  17.282
 6493TIP3    H269948   1.597   6.267  17.376
 6494TIP3   OH269949   1.621   6.332  17.560
 6494TIP3    H169950   1.535   6.363  17.596
 6494TIP3    H269951   1.668   6.416  17.540
 6495TIP3   OH269952   0.054   6.168  17.896
 6495TIP3    H169953   0.147   6.164  17.929
 6495TIP3    H269954   0.009   6.100  17.947
 6496TIP3   OH269955   1.858   5.739  18.099
 6496TIP3    H169956   1.876   5.670  18.035
 6496TIP3    H269957   1.863   5.819  18.046
 6497TIP3   OH269958   1.618   5.936  16.743
 6497TIP3    H169959   1.634   5.890  16.826
 6497TIP3    H269960   1.561   5.871  16.696
 6498TIP3   OH269961   0.170   6.013  17.193
 6498TIP3    H169962   0.214   5.934  17.225
 6498TIP3    H269963   0.218   6.082  17.239
 6499TIP3   OH269964   0.015   6.353  17.230
 6499TIP3    H169965   0.067   6.273  17.214
 6499TIP3    H269966   0.051   6.384  17.314
 6500TIP3   OH269967   1.804   5.940  16.397
 6500TIP3    H169968   1.846   5.866  16.351
 6500TIP3    H269969   1.876   6.004  16.402
 6501TIP3   OH269970   8.183   5.845  17.565
 6501TIP3    H169971   8.118   5.782  17.600
 6501TIP3    H269972   8.131   5.873  17.488
 6502TIP3   OH269973   0.246   7.131  17.959
 6502TIP3    H169974   0.164   7.143  17.911
 6502TIP3    H269975   0.219   7.121  18.050
 6503TIP3   OH269976   0.974   7.372  17.876
 6503TIP3    H169977   0.990   7.333  17.964
 6503TIP3    H269978   1.064   7.400  17.849
 6504TIP3   OH269979   1.204   7.495  17.805
 6504TIP3    H169980   1.277   7.435  17.783
 6504TIP3    H269981   1.241   7.539  17.885
 6505TIP3   OH269982   0.287   7.542  17.587
 6505TIP3    H169983   0.222   7.601  17.547
 6505TIP3    H269984   0.256   7.531  17.678
 6506TIP3   OH269985   0.535   7.511  17.491
 6506TIP3    H169986   0.445   7.518  17.531
 6506TIP3    H269987   0.526   7.567  17.413
 6507TIP3   OH269988   1.003   7.500  17.410
 6507TIP3    H169989   0.957   7.556  17.345
 6507TIP3    H269990   1.018   7.564  17.483
 6508TIP3   OH269991   1.234   7.381  17.508
 6508TIP3    H169992   1.145   7.406  17.478
 6508TIP3    H269993   1.277   7.468  17.502
 6509TIP3   OH269994   1.484   7.540  17.536
 6509TIP3    H169995   1.482   7.636  17.514
 6509TIP3    H269996   1.513   7.502  17.451
 6510TIP3   OH269997   0.249   7.306  17.292
 6510TIP3    H169998   0.237   7.358  17.374
 6510TIP3    H269999   0.309   7.370  17.247
 6511TIP3   OH270000   1.290   5.756  17.069
 6511TIP3    H170001   1.298   5.767  16.975
 6511TIP3    H270002   1.261   5.665  17.083
 6512TIP3   OH270003   1.426   5.762  16.644
 6512TIP3    H170004   1.353   5.821  16.622
 6512TIP3    H270005   1.386   5.675  16.654
 6513TIP3   OH270006   0.156   7.335  16.593
 6513TIP3    H170007   0.082   7.332  16.533
 6513TIP3    H270008   0.147   7.425  16.631
 6514TIP3   OH270009   0.843   5.957  16.593
 6514TIP3    H170010   0.866   5.899  16.666
 6514TIP3    H270011   0.849   6.044  16.640
 6515TIP3   OH270012   1.029   7.471  16.425
 6515TIP3    H170013   1.126   7.487  16.422
 6515TIP3    H270014   1.018   7.407  16.355
 6516TIP3   OH270015   0.343   7.381  16.296
 6516TIP3    H170016   0.315   7.449  16.359
 6516TIP3    H270017   0.431   7.367  16.325
 6517TIP3   OH270018   3.075   6.676  16.916
 6517TIP3    H170019   3.075   6.774  16.911
 6517TIP3    H270020   3.002   6.653  16.856
 6518TIP3   OH270021   2.959   6.603  17.267
 6518TIP3    H170022   2.960   6.537  17.338
 6518TIP3    H270023   2.928   6.553  17.190
 6519TIP3   OH270024   1.952   6.367  16.818
 6519TIP3    H170025   1.911   6.456  16.814
 6519TIP3    H270026   1.894   6.318  16.760
 6520TIP3   OH270027   2.798   6.843  17.312
 6520TIP3    H170028   2.833   6.779  17.248
 6520TIP3    H270029   2.875   6.856  17.367
 6521TIP3   OH270030   3.666   6.000  17.389
 6521TIP3    H170031   3.676   6.067  17.462
 6521TIP3    H270032   3.713   6.050  17.320
 6522TIP3   OH270033   3.117   6.287  17.345
 6522TIP3    H170034   3.129   6.190  17.344
 6522TIP3    H270035   3.105   6.305  17.249
 6523TIP3   OH270036   3.202   6.113  16.906
 6523TIP3    H170037   3.264   6.071  16.967
 6523TIP3    H270038   3.257   6.164  16.845
 6524TIP3   OH270039   2.084   6.334  17.142
 6524TIP3    H170040   2.156   6.284  17.185
 6524TIP3    H270041   2.101   6.313  17.049
 6525TIP3   OH270042   2.607   6.492  17.070
 6525TIP3    H170043   2.672   6.434  17.112
 6525TIP3    H270044   2.553   6.427  17.021
 6526TIP3   OH270045   3.703   6.145  17.614
 6526TIP3    H170046   3.643   6.223  17.602
 6526TIP3    H270047   3.708   6.140  17.710
 6527TIP3   OH270048   3.044   6.936  16.827
 6527TIP3    H170049   3.018   6.909  16.738
 6527TIP3    H270050   3.016   7.030  16.830
 6528TIP3   OH270051   2.570   6.752  17.495
 6528TIP3    H170052   2.498   6.815  17.515
 6528TIP3    H270053   2.639   6.813  17.465
 6529TIP3   OH270054   2.270   6.182  17.264
 6529TIP3    H170055   2.338   6.238  17.306
 6529TIP3    H270056   2.322   6.129  17.202
 6530TIP3   OH270057   2.413   6.956  17.588
 6530TIP3    H170058   2.408   7.039  17.539
 6530TIP3    H270059   2.322   6.940  17.618
 6531TIP3   OH270060   2.019   6.912  16.659
 6531TIP3    H170061   1.998   6.943  16.570
 6531TIP3    H270062   2.030   6.996  16.705
 6532TIP3   OH270063   3.415   5.903  17.464
 6532TIP3    H170064   3.348   5.973  17.470
 6532TIP3    H270065   3.485   5.955  17.420
 6533TIP3   OH270066   3.332   7.050  16.843
 6533TIP3    H170067   3.298   6.983  16.782
 6533TIP3    H270068   3.329   7.005  16.927
 6534TIP3   OH270069   3.498   6.909  17.694
 6534TIP3    H170070   3.504   6.847  17.618
 6534TIP3    H270071   3.507   6.996  17.653
 6535TIP3   OH270072   2.941   6.600  16.667
 6535TIP3    H170073   2.870   6.658  16.630
 6535TIP3    H270074   3.011   6.609  16.600
 6536TIP3   OH270075   3.678   6.541  17.495
 6536TIP3    H170076   3.613   6.614  17.501
 6536TIP3    H270077   3.726   6.566  17.415
 6537TIP3   OH270078   3.284   6.617  16.760
 6537TIP3    H170079   3.213   6.647  16.822
 6537TIP3    H270080   3.334   6.554  16.816
 6538TIP3   OH270081   3.279   6.438  17.670
 6538TIP3    H170082   3.280   6.518  17.725
 6538TIP3    H270083   3.215   6.469  17.602
 6539TIP3   OH270084   2.449   6.688  16.949
 6539TIP3    H170085   2.412   6.646  16.869
 6539TIP3    H270086   2.505   6.618  16.987
 6540TIP3   OH270087   2.581   7.029  17.219
 6540TIP3    H170088   2.573   6.972  17.141
 6540TIP3    H270089   2.656   6.990  17.267
 6541TIP3   OH270090   2.482   6.559  17.316
 6541TIP3    H170091   2.534   6.575  17.236
 6541TIP3    H270092   2.514   6.628  17.377
 6542TIP3   OH270093   2.577   7.007  17.788
 6542TIP3    H170094   2.536   7.080  17.835
 6542TIP3    H270095   2.512   6.984  17.717
 6543TIP3   OH270096   3.172   6.542  16.530
 6543TIP3    H170097   3.229   6.560  16.609
 6543TIP3    H270098   3.212   6.592  16.459
 6544TIP3   OH270099   2.268   6.621  17.708
 6544TIP3    H170100   2.269   6.690  17.776
 6544TIP3    H270101   2.175   6.628  17.678
 6545TIP3   OH270102   2.937   7.210  16.876
 6545TIP3    H170103   2.987   7.245  16.950
 6545TIP3    H270104   2.887   7.286  16.846
 6546TIP3   OH270105   3.545   5.714  16.516
 6546TIP3    H170106   3.450   5.725  16.541
 6546TIP3    H270107   3.565   5.800  16.475
 6547TIP3   OH270108   2.346   6.590  16.709
 6547TIP3    H170109   2.316   6.669  16.659
 6547TIP3    H270110   2.278   6.525  16.691
 6548TIP3   OH270111   2.846   7.132  17.736
 6548TIP3    H170112   2.854   7.214  17.788
 6548TIP3    H270113   2.760   7.094  17.761
 6549TIP3   OH270114   2.890   7.506  16.716
 6549TIP3    H170115   2.884   7.498  16.620
 6549TIP3    H270116   2.896   7.602  16.732
 6550TIP3   OH270117   3.466   6.322  17.897
 6550TIP3    H170118   3.421   6.369  17.825
 6550TIP3    H270119   3.468   6.231  17.865
 6551TIP3   OH270120   3.247   6.164  17.720
 6551TIP3    H170121   3.185   6.140  17.793
 6551TIP3    H270122   3.224   6.255  17.694
 6552TIP3   OH270123   2.461   6.309  17.416
 6552TIP3    H170124   2.386   6.305  17.477
 6552TIP3    H270125   2.456   6.400  17.380
 6553TIP3   OH270126   2.455   6.321  16.902
 6553TIP3    H170127   2.362   6.294  16.893
 6553TIP3    H270128   2.493   6.290  16.818
 6554TIP3   OH270129   3.009   6.369  16.781
 6554TIP3    H170130   2.967   6.451  16.748
 6554TIP3    H270131   3.075   6.354  16.713
 6555TIP3   OH270132   2.914   6.389  17.924
 6555TIP3    H170133   2.861   6.313  17.957
 6555TIP3    H270134   2.997   6.379  17.973
 6556TIP3   OH270135   3.109   6.316  17.066
 6556TIP3    H170136   3.083   6.373  16.992
 6556TIP3    H270137   3.121   6.234  17.015
 6557TIP3   OH270138   1.895   6.065  16.977
 6557TIP3    H170139   1.954   6.044  17.049
 6557TIP3    H270140   1.928   6.010  16.904
 6558TIP3   OH270141   2.018   6.122  16.526
 6558TIP3    H170142   2.060   6.178  16.459
 6558TIP3    H270143   1.945   6.180  16.553
 6559TIP3   OH270144   3.031   6.476  17.521
 6559TIP3    H170145   3.068   6.409  17.462
 6559TIP3    H270146   2.985   6.423  17.589
 6560TIP3   OH270147   2.714   6.074  17.004
 6560TIP3    H170148   2.621   6.076  17.028
 6560TIP3    H270149   2.758   6.062  17.088
 6561TIP3   OH270150   2.192   6.231  16.889
 6561TIP3    H170151   2.104   6.248  16.850
 6561TIP3    H270152   2.220   6.148  16.851
 6562TIP3   OH270153   2.554   6.239  16.654
 6562TIP3    H170154   2.651   6.241  16.669
 6562TIP3    H270155   2.534   6.303  16.586
 6563TIP3   OH270156   2.426   6.353  16.415
 6563TIP3    H170157   2.371   6.315  16.344
 6563TIP3    H270158   2.507   6.374  16.367
 6564TIP3   OH270159   2.244   6.805  17.918
 6564TIP3    H170160   2.311   6.835  17.979
 6564TIP3    H270161   2.162   6.823  17.969
 6565TIP3   OH270162   2.838   6.348  17.193
 6565TIP3    H170163   2.898   6.296  17.140
 6565TIP3    H270164   2.824   6.296  17.273
 6566TIP3   OH270165   2.707   6.189  17.433
 6566TIP3    H170166   2.620   6.235  17.443
 6566TIP3    H270167   2.757   6.220  17.511
 6567TIP3   OH270168   2.763   6.800  16.606
 6567TIP3    H170169   2.681   6.759  16.573
 6567TIP3    H270170   2.738   6.819  16.699
 6568TIP3   OH270171   3.479   6.726  17.484
 6568TIP3    H170172   3.537   6.774  17.423
 6568TIP3    H270173   3.392   6.733  17.438
 6569TIP3   OH270174   3.147   6.093  16.409
 6569TIP3    H170175   3.051   6.105  16.410
 6569TIP3    H270176   3.179   6.173  16.456
 6570TIP3   OH270177   2.909   6.829  17.730
 6570TIP3    H170178   2.876   6.791  17.812
 6570TIP3    H270179   2.892   6.924  17.738
 6571TIP3   OH270180   3.220   6.276  16.590
 6571TIP3    H170181   3.312   6.266  16.623
 6571TIP3    H270182   3.225   6.358  16.537
 6572TIP3   OH270183   2.970   6.955  16.505
 6572TIP3    H170184   2.936   7.037  16.547
 6572TIP3    H270185   2.899   6.893  16.529
 6573TIP3   OH270186   1.969   6.584  17.711
 6573TIP3    H170187   1.992   6.542  17.795
 6573TIP3    H270188   1.911   6.520  17.667
 6574TIP3   OH270189   2.671   6.536  17.930
 6574TIP3    H170190   2.642   6.516  17.839
 6574TIP3    H270191   2.766   6.515  17.926
 6575TIP3   OH270192   3.706   6.294  16.563
 6575TIP3    H170193   3.657   6.260  16.487
 6575TIP3    H270194   3.721   6.386  16.533
 6576TIP3   OH270195   3.709   6.875  17.844
 6576TIP3    H170196   3.623   6.905  17.806
 6576TIP3    H270197   3.764   6.876  17.763
 6577TIP3   OH270198   3.259   6.655  17.314
 6577TIP3    H170199   3.164   6.639  17.303
 6577TIP3    H270200   3.300   6.580  17.269
 6578TIP3   OH270201   2.511   7.089  16.922
 6578TIP3    H170202   2.559   7.171  16.903
 6578TIP3    H270203   2.424   7.112  16.890
 6579TIP3   OH270204   2.088   6.581  16.368
 6579TIP3    H170205   2.146   6.638  16.421
 6579TIP3    H270206   2.001   6.600  16.407
 6580TIP3   OH270207   2.654   6.855  16.877
 6580TIP3    H170208   2.625   6.948  16.884
 6580TIP3    H270209   2.578   6.809  16.919
 6581TIP3   OH270210   2.706   7.270  17.510
 6581TIP3    H170211   2.740   7.357  17.486
 6581TIP3    H270212   2.758   7.242  17.586
 6582TIP3   OH270213   2.521   7.356  16.833
 6582TIP3    H170214   2.426   7.368  16.841
 6582TIP3    H270215   2.555   7.441  16.864
 6583TIP3   OH270216   3.276   6.978  16.384
 6583TIP3    H170217   3.311   6.938  16.467
 6583TIP3    H270218   3.182   6.963  16.400
 6584TIP3   OH270219   3.362   6.840  16.608
 6584TIP3    H170220   3.337   6.766  16.666
 6584TIP3    H270221   3.455   6.855  16.632
 6585TIP3   OH270222   2.222   6.768  16.528
 6585TIP3    H170223   2.158   6.808  16.590
 6585TIP3    H270224   2.282   6.841  16.505
 6586TIP3   OH270225   3.087   5.997  16.669
 6586TIP3    H170226   3.106   6.045  16.587
 6586TIP3    H270227   3.142   6.041  16.734
 6587TIP3   OH270228   2.852   7.207  16.547
 6587TIP3    H170229   2.769   7.259  16.560
 6587TIP3    H270230   2.909   7.265  16.498
 6588TIP3   OH270231   2.805   6.171  16.752
 6588TIP3    H170232   2.887   6.224  16.757
 6588TIP3    H270233   2.781   6.152  16.844
 6589TIP3   OH270234   2.863   6.267  17.670
 6589TIP3    H170235   2.873   6.327  17.746
 6589TIP3    H270236   2.932   6.200  17.681
 6590TIP3   OH270237   2.898   5.873  16.846
 6590TIP3    H170238   2.857   5.942  16.899
 6590TIP3    H270239   2.958   5.927  16.791
 6591TIP3   OH270240   2.600   7.314  16.554
 6591TIP3    H170241   2.599   7.396  16.501
 6591TIP3    H270242   2.567   7.345  16.640
 6592TIP3   OH270243   2.457   5.984  16.521
 6592TIP3    H170244   2.456   6.076  16.549
 6592TIP3    H270245   2.550   5.960  16.535
 6593TIP3   OH270246   3.481   6.056  17.755
 6593TIP3    H170247   3.388   6.089  17.743
 6593TIP3    H270248   3.511   6.060  17.663
 6594TIP3   OH270249   3.343   6.436  17.155
 6594TIP3    H170250   3.259   6.394  17.131
 6594TIP3    H270251   3.389   6.368  17.209
 6595TIP3   OH270252   3.131   7.165  17.987
 6595TIP3    H170253   3.102   7.074  18.006
 6595TIP3    H270254   3.212   7.172  18.039
 6596TIP3   OH270255   2.005   6.805  18.043
 6596TIP3    H170256   2.024   6.716  18.009
 6596TIP3    H270257   1.935   6.841  17.988
 6597TIP3   OH270258   2.682   6.810  17.985
 6597TIP3    H170259   2.643   6.837  17.901
 6597TIP3    H270260   2.683   6.712  17.978
 6598TIP3   OH270261   3.249   6.796  17.733
 6598TIP3    H170262   3.324   6.855  17.714
 6598TIP3    H270263   3.173   6.856  17.726
 6599TIP3   OH270264   2.101   6.533  17.987
 6599TIP3    H170265   2.138   6.445  17.973
 6599TIP3    H270266   2.070   6.530  18.078
 6600TIP3   OH270267   2.565   6.646  16.492
 6600TIP3    H170268   2.511   6.596  16.555
 6600TIP3    H270269   2.589   6.577  16.426
 6601TIP3   OH270270   2.487   6.428  17.724
 6601TIP3    H170271   2.425   6.499  17.746
 6601TIP3    H270272   2.525   6.464  17.642
 6602TIP3   OH270273   2.671   6.465  16.313
 6602TIP3    H170274   2.652   6.459  16.217
 6602TIP3    H270275   2.765   6.486  16.317
 6603TIP3   OH270276   2.994   6.683  18.059
 6603TIP3    H170277   3.089   6.683  18.043
 6603TIP3    H270278   2.978   6.605  18.114
 6604TIP3   OH270279   2.721   6.547  17.604
 6604TIP3    H170280   2.798   6.536  17.547
 6604TIP3    H270281   2.687   6.634  17.575
 6605TIP3   OH270282   3.162   6.329  18.100
 6605TIP3    H170283   3.185   6.235  18.097
 6605TIP3    H270284   3.249   6.371  18.105
 6606TIP3   OH270285   3.295   6.607  17.917
 6606TIP3    H170286   3.270   6.680  17.856
 6606TIP3    H270287   3.390   6.604  17.898
 6607TIP3   OH270288   2.378   6.284  18.023
 6607TIP3    H170289   2.297   6.236  18.001
 6607TIP3    H270290   2.439   6.262  17.953
 6608TIP3   OH270291   2.770   6.179  17.982
 6608TIP3    H170292   2.745   6.155  18.072
 6608TIP3    H270293   2.695   6.156  17.926
 6609TIP3   OH270294   3.047   6.100  17.898
 6609TIP3    H170295   2.950   6.095  17.900
 6609TIP3    H270296   3.071   6.025  17.953
 6610TIP3   OH270297   2.664   7.531  16.406
 6610TIP3    H170298   2.752   7.558  16.432
 6610TIP3    H270299   2.629   7.604  16.352
 6611TIP3   OH270300   3.652   6.785  16.648
 6611TIP3    H170301   3.737   6.833  16.667
 6611TIP3    H270302   3.656   6.718  16.719
 6612TIP3   OH270303   3.689   6.600  16.836
 6612TIP3    H170304   3.616   6.548  16.876
 6612TIP3    H270305   3.752   6.612  16.910
 6613TIP3   OH270306   3.667   6.870  17.332
 6613TIP3    H170307   3.750   6.833  17.299
 6613TIP3    H270308   3.683   6.965  17.317
 6614TIP3   OH270309   3.721   6.585  16.473
 6614TIP3    H170310   3.657   6.615  16.409
 6614TIP3    H270311   3.714   6.654  16.543
 6615TIP3   OH270312   3.470   6.448  16.893
 6615TIP3    H170313   3.458   6.352  16.891
 6615TIP3    H270314   3.439   6.469  16.983
 6616TIP3   OH270315   3.556   6.644  17.865
 6616TIP3    H170316   3.619   6.570  17.876
 6616TIP3    H270317   3.617   6.720  17.859
 6617TIP3   OH270318   3.709   6.433  17.929
 6617TIP3    H170319   3.620   6.393  17.913
 6617TIP3    H270320   3.765   6.355  17.921
 6618TIP3   OH270321   3.479   6.043  16.237
 6618TIP3    H170322   3.538   6.009  16.306
 6618TIP3    H270323   3.391   6.012  16.262
 6619TIP3   OH270324   3.440   6.206  16.740
 6619TIP3    H170325   3.469   6.112  16.751
 6619TIP3    H270326   3.520   6.246  16.702
 6620TIP3   OH270327   3.503   6.261  17.284
 6620TIP3    H170328   3.598   6.283  17.282
 6620TIP3    H270329   3.484   6.273  17.378
 6621TIP3   OH270330   3.507   6.331  17.560
 6621TIP3    H170331   3.421   6.362  17.595
 6621TIP3    H270332   3.551   6.417  17.539
 6622TIP3   OH270333   1.932   6.187  17.919
 6622TIP3    H170334   2.026   6.166  17.932
 6622TIP3    H270335   1.887   6.106  17.945
 6623TIP3   OH270336   3.738   5.737  18.097
 6623TIP3    H170337   3.769   5.669  18.037
 6623TIP3    H270338   3.747   5.819  18.045
 6624TIP3   OH270339   3.504   5.933  16.743
 6624TIP3    H170340   3.525   5.890  16.829
 6624TIP3    H270341   3.442   5.869  16.701
 6625TIP3   OH270342   1.880   6.317  17.302
 6625TIP3    H170343   1.940   6.293  17.228
 6625TIP3    H270344   1.931   6.392  17.333
 6626TIP3   OH270345   3.690   5.945  17.933
 6626TIP3    H170346   3.596   5.974  17.928
 6626TIP3    H270347   3.693   5.895  17.850
 6627TIP3   OH270348   3.688   5.936  16.403
 6627TIP3    H170349   3.731   5.866  16.350
 6627TIP3    H270350   3.753   6.006  16.405
 6628TIP3   OH270351   1.921   5.947  16.717
 6628TIP3    H170352   1.826   5.955  16.697
 6628TIP3    H270353   1.961   5.986  16.637
 6629TIP3   OH270354   2.858   7.373  17.879
 6629TIP3    H170355   2.875   7.333  17.967
 6629TIP3    H270356   2.948   7.394  17.851
 6630TIP3   OH270357   3.589   5.757  17.714
 6630TIP3    H170358   3.505   5.791  17.677
 6630TIP3    H270359   3.606   5.674  17.669
 6631TIP3   OH270360   2.886   7.500  17.410
 6631TIP3    H170361   2.841   7.555  17.344
 6631TIP3    H270362   2.904   7.565  17.481
 6632TIP3   OH270363   3.450   5.709  17.160
 6632TIP3    H170364   3.506   5.764  17.099
 6632TIP3    H270365   3.361   5.732  17.128
 6633TIP3   OH270366   3.609   5.830  16.985
 6633TIP3    H170367   3.675   5.773  16.938
 6633TIP3    H270368   3.660   5.915  16.989
 6634TIP3   OH270369   3.311   5.761  16.638
 6634TIP3    H170370   3.235   5.820  16.622
 6634TIP3    H270371   3.268   5.677  16.660
 6635TIP3   OH270372   2.925   7.466  16.445
 6635TIP3    H170373   3.014   7.496  16.426
 6635TIP3    H270374   2.885   7.416  16.374
 6636TIP3   OH270375   2.154   5.810  17.879
 6636TIP3    H170376   2.122   5.735  17.928
 6636TIP3    H270377   2.245   5.821  17.910
 6637TIP3   OH270378   3.200   5.686  18.053
 6637TIP3    H170379   3.205   5.638  18.137
 6637TIP3    H270380   3.290   5.680  18.018
 6638TIP3   OH270381   4.959   6.676  16.918
 6638TIP3    H170382   4.962   6.775  16.912
 6638TIP3    H270383   4.889   6.654  16.855
 6639TIP3   OH270384   4.848   6.604  17.267
 6639TIP3    H170385   4.845   6.537  17.336
 6639TIP3    H270386   4.817   6.555  17.189
 6640TIP3   OH270387   4.079   6.572  17.423
 6640TIP3    H170388   4.090   6.499  17.489
 6640TIP3    H270389   4.158   6.623  17.444
 6641TIP3   OH270390   4.177   7.011  17.283
 6641TIP3    H170391   4.143   6.931  17.238
 6641TIP3    H270392   4.271   6.996  17.275
 6642TIP3   OH270393   3.837   6.371  16.818
 6642TIP3    H170394   3.793   6.458  16.815
 6642TIP3    H270395   3.782   6.318  16.759
 6643TIP3   OH270396   3.909   6.592  17.035
 6643TIP3    H170397   3.936   6.510  17.080
 6643TIP3    H270398   3.979   6.604  16.969
 6644TIP3   OH270399   4.684   6.842  17.311
 6644TIP3    H170400   4.721   6.779  17.249
 6644TIP3    H270401   4.762   6.862  17.366
 6645TIP3   OH270402   5.547   6.011  17.391
 6645TIP3    H170403   5.559   6.071  17.465
 6645TIP3    H270404   5.601   6.048  17.321
 6646TIP3   OH270405   5.001   6.287  17.344
 6646TIP3    H170406   5.019   6.192  17.343
 6646TIP3    H270407   4.993   6.305  17.248
 6647TIP3   OH270408   5.090   6.106  16.904
 6647TIP3    H170409   5.156   6.076  16.970
 6647TIP3    H270410   5.141   6.163  16.846
 6648TIP3   OH270411   3.975   6.336  17.143
 6648TIP3    H170412   4.048   6.287  17.185
 6648TIP3    H270413   3.986   6.308  17.050
 6649TIP3   OH270414   4.931   6.937  16.827
 6649TIP3    H170415   4.908   6.910  16.737
 6649TIP3    H270416   4.901   7.029  16.828
 6650TIP3   OH270417   4.457   6.754  17.495
 6650TIP3    H170418   4.385   6.817  17.515
 6650TIP3    H270419   4.526   6.816  17.466
 6651TIP3   OH270420   5.268   6.040  17.103
 6651TIP3    H170421   5.245   5.962  17.156
 6651TIP3    H270422   5.332   6.084  17.161
 6652TIP3   OH270423   4.297   6.954  17.580
 6652TIP3    H170424   4.292   7.042  17.539
 6652TIP3    H270425   4.209   6.946  17.620
 6653TIP3   OH270426   3.878   6.916  16.650
 6653TIP3    H170427   3.887   6.954  16.563
 6653TIP3    H270428   3.920   6.987  16.705
 6654TIP3   OH270429   5.302   5.911  17.474
 6654TIP3    H170430   5.225   5.969  17.463
 6654TIP3    H270431   5.370   5.949  17.417
 6655TIP3   OH270432   4.827   6.597  16.666
 6655TIP3    H170433   4.758   6.658  16.633
 6655TIP3    H270434   4.897   6.610  16.601
 6656TIP3   OH270435   4.835   6.456  16.373
 6656TIP3    H170436   4.905   6.452  16.440
 6656TIP3    H270437   4.863   6.387  16.312
 6657TIP3   OH270438   5.560   6.542  17.493
 6657TIP3    H170439   5.500   6.617  17.503
 6657TIP3    H270440   5.611   6.568  17.414
 6658TIP3   OH270441   5.169   6.620  16.760
 6658TIP3    H170442   5.096   6.646  16.821
 6658TIP3    H270443   5.218   6.555  16.813
 6659TIP3   OH270444   5.165   6.439  17.670
 6659TIP3    H170445   5.164   6.517  17.727
 6659TIP3    H270446   5.100   6.467  17.601
 6660TIP3   OH270447   4.334   6.685  16.953
 6660TIP3    H170448   4.299   6.653  16.866
 6660TIP3    H270449   4.393   6.615  16.981
 6661TIP3   OH270450   4.369   6.564  17.315
 6661TIP3    H170451   4.425   6.580  17.240
 6661TIP3    H270452   4.402   6.628  17.381
 6662TIP3   OH270453   4.455   6.998  17.792
 6662TIP3    H170454   4.426   7.082  17.831
 6662TIP3    H270455   4.395   6.986  17.715
 6663TIP3   OH270456   5.059   6.537  16.525
 6663TIP3    H170457   5.110   6.559  16.607
 6663TIP3    H270458   5.098   6.596  16.460
 6664TIP3   OH270459   4.154   6.625  17.706
 6664TIP3    H170460   4.155   6.690  17.778
 6664TIP3    H270461   4.061   6.630  17.681
 6665TIP3   OH270462   4.841   7.219  16.859
 6665TIP3    H170463   4.875   7.238  16.947
 6665TIP3    H270464   4.769   7.281  16.848
 6666TIP3   OH270465   4.287   7.209  17.862
 6666TIP3    H170466   4.278   7.196  17.766
 6666TIP3    H270467   4.194   7.202  17.890
 6667TIP3   OH270468   5.432   5.714  16.512
 6667TIP3    H170469   5.339   5.728  16.541
 6667TIP3    H270470   5.452   5.801  16.475
 6668TIP3   OH270471   4.232   6.592  16.712
 6668TIP3    H170472   4.201   6.671  16.661
 6668TIP3    H270473   4.164   6.527  16.692
 6669TIP3   OH270474   3.833   6.833  17.600
 6669TIP3    H170475   3.790   6.823  17.514
 6669TIP3    H270476   3.847   6.739  17.623
 6670TIP3   OH270477   3.813   7.102  17.287
 6670TIP3    H170478   3.909   7.092  17.273
 6670TIP3    H270479   3.805   7.184  17.336
 6671TIP3   OH270480   5.640   7.174  17.851
 6671TIP3    H170481   5.632   7.078  17.847
 6671TIP3    H270482   5.554   7.196  17.889
 6672TIP3   OH270483   5.352   6.326  17.895
 6672TIP3    H170484   5.304   6.368  17.823
 6672TIP3    H270485   5.353   6.233  17.866
 6673TIP3   OH270486   5.128   6.159  17.717
 6673TIP3    H170487   5.070   6.142  17.796
 6673TIP3    H270488   5.111   6.252  17.695
 6674TIP3   OH270489   4.760   6.031  16.359
 6674TIP3    H170490   4.737   6.033  16.453
 6674TIP3    H270491   4.735   5.943  16.334
 6675TIP3   OH270492   4.895   6.371  16.783
 6675TIP3    H170493   4.853   6.451  16.747
 6675TIP3    H270494   4.960   6.352  16.715
 6676TIP3   OH270495   4.799   6.395  17.926
 6676TIP3    H170496   4.746   6.317  17.952
 6676TIP3    H270497   4.882   6.376  17.972
 6677TIP3   OH270498   4.991   6.315  17.065
 6677TIP3    H170499   4.969   6.374  16.991
 6677TIP3    H270500   5.008   6.233  17.015
 6678TIP3   OH270501   4.099   6.339  17.588
 6678TIP3    H170502   4.118   6.373  17.676
 6678TIP3    H270503   4.068   6.249  17.604
 6679TIP3   OH270504   3.770   6.041  16.983
 6679TIP3    H170505   3.840   6.047  17.051
 6679TIP3    H270506   3.819   6.009  16.905
 6680TIP3   OH270507   4.919   6.476  17.523
 6680TIP3    H170508   4.953   6.409  17.461
 6680TIP3    H270509   4.873   6.425  17.591
 6681TIP3   OH270510   4.074   6.231  16.895
 6681TIP3    H170511   3.990   6.246  16.850
 6681TIP3    H270512   4.113   6.150  16.855
 6682TIP3   OH270513   4.444   6.232  16.649
 6682TIP3    H170514   4.536   6.249  16.671
 6682TIP3    H270515   4.417   6.303  16.589
 6683TIP3   OH270516   5.038   5.999  17.324
 6683TIP3    H170517   4.972   6.003  17.398
 6683TIP3    H270518   4.986   5.973  17.248
 6684TIP3   OH270519   4.314   6.353  16.414
 6684TIP3    H170520   4.257   6.317  16.345
 6684TIP3    H270521   4.395   6.376  16.367
 6685TIP3   OH270522   4.128   6.816  17.916
 6685TIP3    H170523   4.198   6.834  17.980
 6685TIP3    H270524   4.049   6.824  17.973
 6686TIP3   OH270525   4.732   6.353  17.199
 6686TIP3    H170526   4.783   6.298  17.138
 6686TIP3    H270527   4.714   6.295  17.273
 6687TIP3   OH270528   4.230   5.962  16.841
 6687TIP3    H170529   4.192   5.874  16.831
 6687TIP3    H270530   4.301   5.965  16.776
 6688TIP3   OH270531   4.652   6.801  16.607
 6688TIP3    H170532   4.569   6.763  16.570
 6688TIP3    H270533   4.626   6.819  16.699
 6689TIP3   OH270534   5.033   6.089  16.416
 6689TIP3    H170535   4.938   6.102  16.408
 6689TIP3    H270536   5.064   6.173  16.455
 6690TIP3   OH270537   4.798   6.829  17.730
 6690TIP3    H170538   4.762   6.791  17.811
 6690TIP3    H270539   4.775   6.923  17.737
 6691TIP3   OH270540   5.105   6.277  16.586
 6691TIP3    H170541   5.193   6.264  16.626
 6691TIP3    H270542   5.113   6.360  16.539
 6692TIP3   OH270543   4.158   6.742  17.186
 6692TIP3    H170544   4.227   6.740  17.117
 6692TIP3    H270545   4.166   6.656  17.229
 6693TIP3   OH270546   3.858   6.586  17.710
 6693TIP3    H170547   3.875   6.543  17.796
 6693TIP3    H270548   3.797   6.523  17.668
 6694TIP3   OH270549   4.558   6.541  17.933
 6694TIP3    H170550   4.528   6.516  17.845
 6694TIP3    H270551   4.652   6.512  17.929
 6695TIP3   OH270552   5.592   6.295  16.561
 6695TIP3    H170553   5.539   6.261  16.488
 6695TIP3    H270554   5.601   6.388  16.534
 6696TIP3   OH270555   5.589   6.878  17.841
 6696TIP3    H170556   5.505   6.901  17.802
 6696TIP3    H270557   5.648   6.874  17.763
 6697TIP3   OH270558   5.141   6.652  17.321
 6697TIP3    H170559   5.048   6.638  17.298
 6697TIP3    H270560   5.187   6.584  17.268
 6698TIP3   OH270561   3.971   6.581  16.370
 6698TIP3    H170562   4.032   6.639  16.420
 6698TIP3    H270563   3.886   6.600  16.412
 6699TIP3   OH270564   4.540   6.854  16.877
 6699TIP3    H170565   4.510   6.946  16.881
 6699TIP3    H270566   4.462   6.811  16.918
 6700TIP3   OH270567   4.406   7.362  16.822
 6700TIP3    H170568   4.311   7.362  16.837
 6700TIP3    H270569   4.437   7.438  16.871
 6701TIP3   OH270570   4.939   6.881  17.480
 6701TIP3    H170571   4.900   6.856  17.566
 6701TIP3    H270572   4.998   6.808  17.458
 6702TIP3   OH270573   4.019   6.061  17.677
 6702TIP3    H170574   3.930   6.092  17.658
 6702TIP3    H270575   4.012   5.971  17.707
 6703TIP3   OH270576   5.250   6.836  16.605
 6703TIP3    H170577   5.222   6.768  16.668
 6703TIP3    H270578   5.341   6.854  16.630
 6704TIP3   OH270579   4.456   7.044  16.477
 6704TIP3    H170580   4.483   6.991  16.554
 6704TIP3    H270581   4.468   7.135  16.510
 6705TIP3   OH270582   4.106   6.767  16.522
 6705TIP3    H170583   4.049   6.808  16.591
 6705TIP3    H270584   4.166   6.844  16.510
 6706TIP3   OH270585   4.900   6.029  17.552
 6706TIP3    H170586   4.965   6.042  17.624
 6706TIP3    H270587   4.856   5.947  17.579
 6707TIP3   OH270588   4.974   5.990  16.669
 6707TIP3    H170589   4.995   6.041  16.589
 6707TIP3    H270590   5.024   6.038  16.737
 6708TIP3   OH270591   4.473   7.314  16.550
 6708TIP3    H170592   4.490   7.397  16.501
 6708TIP3    H270593   4.452   7.343  16.640
 6709TIP3   OH270594   5.371   6.062  17.754
 6709TIP3    H170595   5.276   6.088  17.743
 6709TIP3    H270596   5.397   6.060  17.661
 6710TIP3   OH270597   5.227   6.436  17.155
 6710TIP3    H170598   5.143   6.396  17.129
 6710TIP3    H270599   5.270   6.367  17.209
 6711TIP3   OH270600   4.168   7.028  16.413
 6711TIP3    H170601   4.231   7.092  16.450
 6711TIP3    H270602   4.224   6.984  16.349
 6712TIP3   OH270603   4.078   5.777  17.205
 6712TIP3    H170604   4.067   5.783  17.108
 6712TIP3    H270605   4.041   5.691  17.225
 6713TIP3   OH270606   3.964   7.170  16.814
 6713TIP3    H170607   3.886   7.224  16.810
 6713TIP3    H270608   4.029   7.211  16.757
 6714TIP3   OH270609   4.368   7.322  18.111
 6714TIP3    H170610   4.449   7.281  18.143
 6714TIP3    H270611   4.363   7.296  18.017
 6715TIP3   OH270612   3.891   6.808  18.046
 6715TIP3    H170613   3.907   6.717  18.015
 6715TIP3    H270614   3.819   6.838  17.988
 6716TIP3   OH270615   4.559   6.808  17.987
 6716TIP3    H170616   4.531   6.839  17.900
 6716TIP3    H270617   4.574   6.713  17.975
 6717TIP3   OH270618   3.983   6.535  17.985
 6717TIP3    H170619   4.021   6.448  17.971
 6717TIP3    H270620   3.959   6.534  18.080
 6718TIP3   OH270621   4.451   6.643  16.490
 6718TIP3    H170622   4.397   6.594  16.554
 6718TIP3    H270623   4.478   6.576  16.426
 6719TIP3   OH270624   4.375   6.428  17.725
 6719TIP3    H170625   4.313   6.499  17.746
 6719TIP3    H270626   4.409   6.461  17.640
 6720TIP3   OH270627   4.553   6.462  16.311
 6720TIP3    H170628   4.543   6.454  16.215
 6720TIP3    H270629   4.650   6.474  16.324
 6721TIP3   OH270630   4.880   6.677  18.050
 6721TIP3    H170631   4.975   6.681  18.047
 6721TIP3    H270632   4.860   6.608  18.114
 6722TIP3   OH270633   4.609   6.548  17.603
 6722TIP3    H170634   4.684   6.537  17.545
 6722TIP3    H270635   4.572   6.633  17.575
 6723TIP3   OH270636   5.048   6.327  18.101
 6723TIP3    H170637   5.072   6.234  18.097
 6723TIP3    H270638   5.135   6.370  18.105
 6724TIP3   OH270639   5.181   6.607  17.919
 6724TIP3    H170640   5.155   6.676  17.858
 6724TIP3    H270641   5.277   6.599  17.899
 6725TIP3   OH270642   4.659   6.184  17.990
 6725TIP3    H170643   4.630   6.155  18.078
 6725TIP3    H270644   4.584   6.155  17.936
 6726TIP3   OH270645   4.928   6.092  17.890
 6726TIP3    H170646   4.832   6.099  17.904
 6726TIP3    H270647   4.958   6.030  17.958
 6727TIP3   OH270648   5.090   5.958  18.083
 6727TIP3    H170649   5.085   5.861  18.086
 6727TIP3    H270650   5.061   5.984  18.174
 6728TIP3   OH270651   4.544   7.533  16.409
 6728TIP3    H170652   4.637   7.552  16.428
 6728TIP3    H270653   4.518   7.602  16.348
 6729TIP3   OH270654   5.609   7.425  17.344
 6729TIP3    H170655   5.610   7.444  17.438
 6729TIP3    H270656   5.679   7.481  17.309
 6730TIP3   OH270657   5.540   6.786  16.652
 6730TIP3    H170658   5.625   6.832  16.669
 6730TIP3    H270659   5.539   6.717  16.720
 6731TIP3   OH270660   5.555   6.869  17.342
 6731TIP3    H170661   5.633   6.833  17.298
 6731TIP3    H270662   5.565   6.963  17.317
 6732TIP3   OH270663   5.609   6.580  16.472
 6732TIP3    H170664   5.548   6.616  16.407
 6732TIP3    H270665   5.602   6.650  16.541
 6733TIP3   OH270666   5.357   6.445  16.891
 6733TIP3    H170667   5.342   6.350  16.891
 6733TIP3    H270668   5.324   6.472  16.979
 6734TIP3   OH270669   3.858   6.656  17.300
 6734TIP3    H170670   3.878   6.647  17.204
 6734TIP3    H270671   3.947   6.639  17.337
 6735TIP3   OH270672   5.443   6.644  17.868
 6735TIP3    H170673   5.504   6.567  17.876
 6735TIP3    H270674   5.505   6.719  17.860
 6736TIP3   OH270675   5.591   6.436  17.933
 6736TIP3    H170676   5.506   6.391  17.914
 6736TIP3    H270677   5.654   6.364  17.922
 6737TIP3   OH270678   5.365   6.046  16.238
 6737TIP3    H170679   5.427   6.010  16.304
 6737TIP3    H270680   5.279   6.010  16.261
 6738TIP3   OH270681   5.325   6.207  16.738
 6738TIP3    H170682   5.355   6.114  16.752
 6738TIP3    H270683   5.406   6.247  16.702
 6739TIP3   OH270684   5.390   6.259  17.283
 6739TIP3    H170685   5.481   6.287  17.281
 6739TIP3    H270686   5.367   6.275  17.377
 6740TIP3   OH270687   5.393   6.331  17.555
 6740TIP3    H170688   5.307   6.360  17.593
 6740TIP3    H270689   5.439   6.418  17.544
 6741TIP3   OH270690   3.819   6.185  17.913
 6741TIP3    H170691   3.912   6.167  17.931
 6741TIP3    H270692   3.773   6.104  17.944
 6742TIP3   OH270693   5.624   5.734  18.097
 6742TIP3    H170694   5.656   5.668  18.033
 6742TIP3    H270695   5.632   5.817  18.045
 6743TIP3   OH270696   5.390   5.934  16.745
 6743TIP3    H170697   5.409   5.886  16.828
 6743TIP3    H270698   5.330   5.871  16.699
 6744TIP3   OH270699   3.941   6.015  17.200
 6744TIP3    H170700   3.991   5.935  17.226
 6744TIP3    H270701   3.991   6.085  17.241
 6745TIP3   OH270702   3.768   6.314  17.303
 6745TIP3    H170703   3.826   6.290  17.227
 6745TIP3    H270704   3.814   6.395  17.331
 6746TIP3   OH270705   5.571   5.941  17.935
 6746TIP3    H170706   5.480   5.976  17.927
 6746TIP3    H270707   5.581   5.897  17.850
 6747TIP3   OH270708   5.574   5.939  16.401
 6747TIP3    H170709   5.616   5.867  16.351
 6747TIP3    H270710   5.645   6.005  16.402
 6748TIP3   OH270711   3.802   5.939  16.709
 6748TIP3    H170712   3.708   5.960  16.698
 6748TIP3    H270713   3.846   5.989  16.641
 6749TIP3   OH270714   3.795   5.802  17.535
 6749TIP3    H170715   3.738   5.794  17.613
 6749TIP3    H270716   3.760   5.881  17.489
 6750TIP3   OH270717   5.476   5.755  17.715
 6750TIP3    H170718   5.391   5.786  17.678
 6750TIP3    H270719   5.488   5.676  17.661
 6751TIP3   OH270720   4.056   7.552  17.588
 6751TIP3    H170721   3.984   7.597  17.544
 6751TIP3    H270722   4.025   7.530  17.676
 6752TIP3   OH270723   4.305   7.504  17.497
 6752TIP3    H170724   4.216   7.522  17.531
 6752TIP3    H270725   4.304   7.564  17.419
 6753TIP3   OH270726   5.330   5.712  17.157
 6753TIP3    H170727   5.392   5.760  17.099
 6753TIP3    H270728   5.243   5.738  17.129
 6754TIP3   OH270729   5.498   5.833  16.977
 6754TIP3    H170730   5.566   5.772  16.939
 6754TIP3    H270731   5.550   5.912  16.987
 6755TIP3   OH270732   4.048   5.763  16.932
 6755TIP3    H170733   3.970   5.742  16.878
 6755TIP3    H270734   4.096   5.680  16.928
 6756TIP3   OH270735   3.925   5.737  16.516
 6756TIP3    H170736   3.978   5.794  16.457
 6756TIP3    H270737   3.867   5.798  16.563
 6757TIP3   OH270738   5.199   5.760  16.638
 6757TIP3    H170739   5.123   5.819  16.624
 6757TIP3    H270740   5.155   5.675  16.659
 6758TIP3   OH270741   5.084   5.686  18.053
 6758TIP3    H170742   5.094   5.635  18.134
 6758TIP3    H270743   5.175   5.680  18.017
 6759TIP3   OH270744   6.572   6.843  17.308
 6759TIP3    H170745   6.603   6.780  17.243
 6759TIP3    H270746   6.646   6.858  17.367
 6760TIP3   OH270747   6.883   6.284  17.343
 6760TIP3    H170748   6.904   6.192  17.339
 6760TIP3    H270749   6.877   6.308  17.250
 6761TIP3   OH270750   6.205   6.095  17.066
 6761TIP3    H170751   6.207   6.180  17.021
 6761TIP3    H270752   6.156   6.043  16.998
 6762TIP3   OH270753   5.780   6.915  16.657
 6762TIP3    H170754   5.773   6.944  16.564
 6762TIP3    H270755   5.800   6.998  16.701
 6763TIP3   OH270756   6.482   5.722  17.219
 6763TIP3    H170757   6.470   5.626  17.209
 6763TIP3    H270758   6.393   5.751  17.247
 6764TIP3   OH270759   7.448   6.541  17.498
 6764TIP3    H170760   7.381   6.612  17.505
 6764TIP3    H270761   7.500   6.559  17.417
 6765TIP3   OH270762   7.055   6.616  16.761
 6765TIP3    H170763   6.985   6.648  16.820
 6765TIP3    H270764   7.101   6.549  16.812
 6766TIP3   OH270765   6.859   7.106  17.390
 6766TIP3    H170766   6.862   7.175  17.457
 6766TIP3    H270767   6.867   7.026  17.442
 6767TIP3   OH270768   6.345   7.004  17.785
 6767TIP3    H170769   6.309   7.082  17.831
 6767TIP3    H270770   6.279   6.989  17.717
 6768TIP3   OH270771   6.945   6.538  16.526
 6768TIP3    H170772   6.995   6.560  16.608
 6768TIP3    H270773   6.986   6.592  16.458
 6769TIP3   OH270774   6.717   7.217  16.868
 6769TIP3    H170775   6.757   7.242  16.951
 6769TIP3    H270776   6.657   7.290  16.849
 6770TIP3   OH270777   6.170   7.207  17.864
 6770TIP3    H170778   6.165   7.200  17.767
 6770TIP3    H270779   6.076   7.196  17.888
 6771TIP3   OH270780   5.724   6.829  17.603
 6771TIP3    H170781   5.677   6.828  17.516
 6771TIP3    H270782   5.731   6.735  17.619
 6772TIP3   OH270783   5.702   7.103  17.289
 6772TIP3    H170784   5.798   7.098  17.279
 6772TIP3    H270785   5.692   7.190  17.330
 6773TIP3   OH270786   6.618   7.136  17.732
 6773TIP3    H170787   6.628   7.217  17.786
 6773TIP3    H270788   6.534   7.097  17.760
 6774TIP3   OH270789   6.659   7.511  16.719
 6774TIP3    H170790   6.653   7.496  16.622
 6774TIP3    H270791   6.665   7.606  16.728
 6775TIP3   OH270792   6.025   7.389  16.896
 6775TIP3    H170793   6.042   7.351  16.985
 6775TIP3    H270794   5.939   7.351  16.871
 6776TIP3   OH270795   6.933   7.430  16.715
 6776TIP3    H170796   6.836   7.422  16.712
 6776TIP3    H270797   6.958   7.342  16.746
 6777TIP3   OH270798   5.952   6.966  17.697
 6777TIP3    H170799   5.973   6.931  17.783
 6777TIP3    H270800   5.869   6.921  17.673
 6778TIP3   OH270801   6.218   5.810  17.298
 6778TIP3    H170802   6.129   5.797  17.256
 6778TIP3    H270803   6.207   5.898  17.334
 6779TIP3   OH270804   6.682   5.777  17.628
 6779TIP3    H170805   6.722   5.740  17.708
 6779TIP3    H270806   6.586   5.763  17.642
 6780TIP3   OH270807   6.777   6.374  16.779
 6780TIP3    H170808   6.736   6.452  16.742
 6780TIP3    H270809   6.847   6.352  16.714
 6781TIP3   OH270810   5.780   6.116  16.513
 6781TIP3    H170811   5.832   6.180  16.464
 6781TIP3    H270812   5.716   6.178  16.555
 6782TIP3   OH270813   6.482   6.065  17.002
 6782TIP3    H170814   6.389   6.074  17.032
 6782TIP3    H270815   6.531   6.067  17.085
 6783TIP3   OH270816   6.111   5.965  16.836
 6783TIP3    H170817   6.081   5.873  16.835
 6783TIP3    H270818   6.190   5.962  16.781
 6784TIP3   OH270819   7.249   6.727  17.483
 6784TIP3    H170820   7.306   6.773  17.423
 6784TIP3    H270821   7.164   6.728  17.438
 6785TIP3   OH270822   6.912   6.087  16.426
 6785TIP3    H170823   6.820   6.106  16.406
 6785TIP3    H270824   6.949   6.173  16.455
 6786TIP3   OH270825   6.990   6.281  16.592
 6786TIP3    H170826   7.081   6.262  16.625
 6786TIP3    H270827   6.999   6.361  16.537
 6787TIP3   OH270828   6.745   6.948  16.529
 6787TIP3    H170829   6.713   7.038  16.548
 6787TIP3    H270830   6.668   6.893  16.528
 6788TIP3   OH270831   6.277   7.095  16.929
 6788TIP3    H170832   6.332   7.168  16.899
 6788TIP3    H270833   6.193   7.113  16.886
 6789TIP3   OH270834   6.466   7.275  17.513
 6789TIP3    H170835   6.511   7.355  17.485
 6789TIP3    H270836   6.528   7.240  17.580
 6790TIP3   OH270837   6.289   7.360  16.826
 6790TIP3    H170838   6.193   7.372  16.840
 6790TIP3    H270839   6.326   7.439  16.868
 6791TIP3   OH270840   5.867   7.237  17.507
 6791TIP3    H170841   5.893   7.145  17.513
 6791TIP3    H270842   5.897   7.269  17.594
 6792TIP3   OH270843   6.350   7.042  16.478
 6792TIP3    H170844   6.369   6.992  16.558
 6792TIP3    H270845   6.351   7.135  16.510
 6793TIP3   OH270846   6.855   5.998  16.675
 6793TIP3    H170847   6.879   6.039  16.588
 6793TIP3    H270848   6.917   6.043  16.732
 6794TIP3   OH270849   6.627   7.215  16.561
 6794TIP3    H170850   6.540   7.258  16.558
 6794TIP3    H270851   6.675   7.259  16.491
 6795TIP3   OH270852   6.577   6.173  16.753
 6795TIP3    H170853   6.659   6.225  16.758
 6795TIP3    H270854   6.553   6.156  16.846
 6796TIP3   OH270855   6.663   5.877  16.843
 6796TIP3    H170856   6.629   5.943  16.906
 6796TIP3    H270857   6.730   5.929  16.793
 6797TIP3   OH270858   6.362   7.314  16.553
 6797TIP3    H170859   6.375   7.396  16.501
 6797TIP3    H270860   6.335   7.345  16.641
 6798TIP3   OH270861   5.975   5.772  17.203
 6798TIP3    H170862   5.949   5.781  17.109
 6798TIP3    H270863   5.926   5.691  17.227
 6799TIP3   OH270864   5.791   7.433  17.946
 6799TIP3    H170865   5.849   7.410  18.021
 6799TIP3    H270866   5.748   7.349  17.928
 6800TIP3   OH270867   6.250   7.319  18.111
 6800TIP3    H170868   6.329   7.276  18.143
 6800TIP3    H270869   6.248   7.298  18.016
 6801TIP3   OH270870   6.335   6.002  17.575
 6801TIP3    H170871   6.386   6.052  17.511
 6801TIP3    H270872   6.246   5.997  17.539
 6802TIP3   OH270873   6.935   6.328  18.104
 6802TIP3    H170874   6.951   6.233  18.107
 6802TIP3    H270875   7.020   6.372  18.109
 6803TIP3   OH270876   6.416   5.747  17.623
 6803TIP3    H170877   6.401   5.843  17.613
 6803TIP3    H270878   6.342   5.710  17.573
 6804TIP3   OH270879   6.446   5.687  17.890
 6804TIP3    H170880   6.509   5.612  17.887
 6804TIP3    H270881   6.427   5.700  17.795
 6805TIP3   OH270882   6.474   5.849  18.098
 6805TIP3    H170883   6.458   5.796  18.017
 6805TIP3    H270884   6.412   5.922  18.089
 6806TIP3   OH270885   6.425   7.539  16.417
 6806TIP3    H170886   6.522   7.549  16.426
 6806TIP3    H270887   6.400   7.602  16.349
 6807TIP3   OH270888   5.784   6.996  16.367
 6807TIP3    H170889   5.879   7.007  16.386
 6807TIP3    H270890   5.789   6.935  16.292
 6808TIP3   OH270891   5.658   7.536  16.860
 6808TIP3    H170892   5.583   7.491  16.820
 6808TIP3    H270893   5.681   7.475  16.931
 6809TIP3   OH270894   5.746   6.654  17.296
 6809TIP3    H170895   5.764   6.647  17.202
 6809TIP3    H270896   5.833   6.637  17.334
 6810TIP3   OH270897   7.327   6.646  17.858
 6810TIP3    H170898   7.387   6.571  17.877
 6810TIP3    H270899   7.387   6.720  17.858
 6811TIP3   OH270900   7.476   6.431  17.924
 6811TIP3    H170901   7.390   6.391  17.907
 6811TIP3    H270902   7.538   6.358  17.912
 6812TIP3   OH270903   7.209   6.205  16.739
 6812TIP3    H170904   7.238   6.114  16.750
 6812TIP3    H270905   7.286   6.246  16.698
 6813TIP3   OH270906   7.275   6.259  17.282
 6813TIP3    H170907   7.365   6.289  17.283
 6813TIP3    H270908   7.250   6.274  17.375
 6814TIP3   OH270909   7.275   6.336  17.556
 6814TIP3    H170910   7.192   6.365  17.596
 6814TIP3    H270911   7.324   6.419  17.541
 6815TIP3   OH270912   5.689   5.938  16.705
 6815TIP3    H170913   5.595   5.959  16.696
 6815TIP3    H270914   5.733   5.992  16.637
 6816TIP3   OH270915   5.686   5.806  17.540
 6816TIP3    H170916   5.621   5.792  17.611
 6816TIP3    H270917   5.640   5.872  17.486
 6817TIP3   OH270918   5.907   7.119  17.960
 6817TIP3    H170919   5.825   7.147  17.914
 6817TIP3    H270920   5.880   7.119  18.053
 6818TIP3   OH270921   6.197   7.223  17.582
 6818TIP3    H170922   6.162   7.310  17.559
 6818TIP3    H270923   6.291   7.235  17.556
 6819TIP3   OH270924   6.633   7.364  17.882
 6819TIP3    H170925   6.651   7.335  17.971
 6819TIP3    H270926   6.719   7.397  17.851
 6820TIP3   OH270927   5.938   7.549  17.585
 6820TIP3    H170928   5.863   7.596  17.545
 6820TIP3    H270929   5.909   7.530  17.674
 6821TIP3   OH270930   5.883   7.415  17.278
 6821TIP3    H170931   5.880   7.371  17.365
 6821TIP3    H270932   5.965   7.380  17.239
 6822TIP3   OH270933   6.091   7.285  17.145
 6822TIP3    H170934   6.079   7.192  17.165
 6822TIP3    H270935   6.179   7.304  17.188
 6823TIP3   OH270936   6.340   7.326  17.232
 6823TIP3    H170937   6.377   7.243  17.202
 6823TIP3    H270938   6.362   7.329  17.326
 6824TIP3   OH270939   5.936   5.760  16.930
 6824TIP3    H170940   5.855   5.742  16.880
 6824TIP3    H270941   5.984   5.676  16.926
 6825TIP3   OH270942   5.812   5.740  16.500
 6825TIP3    H170943   5.864   5.806  16.453
 6825TIP3    H270944   5.757   5.794  16.560
 6826TIP3   OH270945   6.386   5.751  16.909
 6826TIP3    H170946   6.474   5.792  16.904
 6826TIP3    H270947   6.379   5.737  17.004
 6827TIP3   OH270948   5.805   7.335  16.604
 6827TIP3    H170949   5.740   7.330  16.533
 6827TIP3    H270950   5.808   7.430  16.621
 6828TIP3   OH270951   6.502   5.959  16.595
 6828TIP3    H170952   6.523   5.899  16.668
 6828TIP3    H270953   6.505   6.046  16.641
 6829TIP3   OH270954   6.692   7.464  16.435
 6829TIP3    H170955   6.783   7.492  16.420
 6829TIP3    H270956   6.671   7.410  16.358
 6830TIP3   OH270957   5.924   5.815  17.876
 6830TIP3    H170958   5.890   5.737  17.920
 6830TIP3    H270959   6.015   5.817  17.911
 6831TIP3   OH270960   6.129   5.750  18.035
 6831TIP3    H170961   6.217   5.717  18.017
 6831TIP3    H270962   6.089   5.674  18.081
 6832TIP3   OH270963   5.987   7.424  16.301
 6832TIP3    H170964   5.962   7.455  16.389
 6832TIP3    H270965   6.067   7.374  16.317
 6833TIP3   OH270966   7.943   7.012  17.274
 6833TIP3    H170967   7.913   6.926  17.242
 6833TIP3    H270968   8.040   6.996  17.283
 6834TIP3   OH270969   7.610   6.370  16.813
 6834TIP3    H170970   7.570   6.458  16.817
 6834TIP3    H270971   7.549   6.318  16.763
 6835TIP3   OH270972   8.073   6.111  17.127
 6835TIP3    H170973   8.091   6.184  17.060
 6835TIP3    H270974   8.051   6.052  17.052
 6836TIP3   OH270975   7.970   5.985  17.471
 6836TIP3    H170976   7.953   6.040  17.394
 6836TIP3    H270977   7.906   6.011  17.538
 6837TIP3   OH270978   8.048   6.959  17.561
 6837TIP3    H170979   8.059   7.054  17.547
 6837TIP3    H270980   7.971   6.956  17.622
 6838TIP3   OH270981   7.677   6.915  16.652
 6838TIP3    H170982   7.650   6.947  16.565
 6838TIP3    H270983   7.685   6.999  16.702
 6839TIP3   OH270984   8.079   6.687  16.956
 6839TIP3    H170985   8.070   6.656  16.863
 6839TIP3    H270986   8.159   6.637  16.983
 6840TIP3   OH270987   7.923   6.625  17.709
 6840TIP3    H170988   7.925   6.689  17.781
 6840TIP3    H270989   7.832   6.631  17.679
 6841TIP3   OH270990   8.054   7.208  17.859
 6841TIP3    H170991   8.050   7.192  17.762
 6841TIP3    H270992   7.962   7.194  17.887
 6842TIP3   OH270993   8.001   6.591  16.715
 6842TIP3    H170994   7.975   6.668  16.662
 6842TIP3    H270995   7.934   6.527  16.691
 6843TIP3   OH270996   7.612   6.833  17.597
 6843TIP3    H170997   7.565   6.823  17.514
 6843TIP3    H270998   7.616   6.739  17.626
 6844TIP3   OH270999   7.978   7.374  16.829
 6844TIP3    H171000   7.974   7.369  16.929
 6844TIP3    H271001   7.881   7.378  16.824
 6845TIP3   OH271002   7.826   6.968  17.704
 6845TIP3    H171003   7.859   6.922  17.783
 6845TIP3    H271004   7.749   6.917  17.674
 6846TIP3   OH271005   8.100   5.806  17.294
 6846TIP3    H171006   8.011   5.802  17.253
 6846TIP3    H271007   8.098   5.896  17.330
 6847TIP3   OH271008   8.105   6.314  17.476
 6847TIP3    H171009   8.013   6.298  17.489
 6847TIP3    H271010   8.101   6.375  17.402
 6848TIP3   OH271011   8.071   6.293  16.939
 6848TIP3    H171012   7.993   6.295  16.885
 6848TIP3    H271013   8.143   6.287  16.872
 6849TIP3   OH271014   8.082   6.343  16.411
 6849TIP3    H171015   8.026   6.316  16.337
 6849TIP3    H271016   8.163   6.374  16.368
 6850TIP3   OH271017   7.899   6.806  17.920
 6850TIP3    H171018   7.967   6.836  17.981
 6850TIP3    H271019   7.820   6.822  17.973
 6851TIP3   OH271020   7.928   6.739  17.177
 6851TIP3    H171021   8.002   6.736  17.114
 6851TIP3    H271022   7.938   6.659  17.230
 6852TIP3   OH271023   7.627   6.586  17.710
 6852TIP3    H171024   7.648   6.544  17.795
 6852TIP3    H271025   7.566   6.521  17.670
 6853TIP3   OH271026   7.735   6.578  16.374
 6853TIP3    H171027   7.801   6.636  16.416
 6853TIP3    H271028   7.655   6.610  16.414
 6854TIP3   OH271029   7.881   6.768  16.527
 6854TIP3    H171030   7.812   6.806  16.586
 6854TIP3    H271031   7.932   6.847  16.506
 6855TIP3   OH271032  -0.043   5.971  16.527
 6855TIP3    H171033  -0.043   6.065  16.543
 6855TIP3    H271034   0.054   5.957  16.528
 6856TIP3   OH271035   7.944   7.025  16.419
 6856TIP3    H171036   8.000   7.098  16.447
 6856TIP3    H271037   7.991   6.988  16.345
 6857TIP3   OH271038   7.851   5.782  17.199
 6857TIP3    H171039   7.833   5.774  17.105
 6857TIP3    H271040   7.814   5.696  17.228
 6858TIP3   OH271041   7.737   7.141  16.765
 6858TIP3    H171042   7.666   7.196  16.803
 6858TIP3    H271043   7.806   7.207  16.750
 6859TIP3   OH271044   7.658   7.419  17.962
 6859TIP3    H171045   7.728   7.403  18.026
 6859TIP3    H271046   7.627   7.337  17.931
 6860TIP3   OH271047   7.756   6.533  17.985
 6860TIP3    H171048   7.791   6.444  17.971
 6860TIP3    H271049   7.726   6.528  18.075
 6861TIP3   OH271050   8.020   6.289  18.034
 6861TIP3    H171051   7.948   6.236  17.998
 6861TIP3    H271052   8.089   6.263  17.968
 6862TIP3   OH271053   7.672   6.990  16.367
 6862TIP3    H171054   7.766   7.006  16.388
 6862TIP3    H271055   7.672   6.931  16.292
 6863TIP3   OH271056   7.546   7.303  17.111
 6863TIP3    H171057   7.594   7.234  17.068
 6863TIP3    H271058   7.620   7.363  17.138
 6864TIP3   OH271059   7.789   7.132  17.960
 6864TIP3    H171060   7.707   7.147  17.914
 6864TIP3    H271061   7.764   7.124  18.053
 6865TIP3   OH271062   8.091   7.219  17.596
 6865TIP3    H171063   8.045   7.297  17.558
 6865TIP3    H271064   8.180   7.233  17.557
 6866TIP3   OH271065   7.809   7.520  17.580
 6866TIP3    H171066   7.750   7.588  17.538
 6866TIP3    H271067   7.788   7.525  17.675
 6867TIP3   OH271068   8.014   7.417  17.465
 6867TIP3    H171069   7.974   7.477  17.534
 6867TIP3    H271070   8.047   7.498  17.420
 6868TIP3   OH271071   7.776   7.392  17.287
 6868TIP3    H171072   7.779   7.365  17.379
 6868TIP3    H271073   7.863   7.372  17.249
 6869TIP3   OH271074   7.993   7.286  17.156
 6869TIP3    H171075   7.968   7.193  17.173
 6869TIP3    H271076   8.077   7.295  17.201
 6870TIP3   OH271077   7.884   5.929  16.355
 6870TIP3    H171078   7.938   5.875  16.296
 6870TIP3    H271079   7.953   5.960  16.416
 6871TIP3   OH271080   8.014   5.753  18.034
 6871TIP3    H171081   8.100   5.718  18.013
 6871TIP3    H271082   7.971   5.677  18.077
 6872TIP3   OH271083   7.923   7.337  16.313
 6872TIP3    H171084   7.873   7.412  16.358
 6872TIP3    H271085   8.010   7.369  16.324
 6873TIP3   OH271086   1.764   7.903  17.356
 6873TIP3    H171087   1.785   7.935  17.447
 6873TIP3    H271088   1.836   7.943  17.308
 6874TIP3   OH271089   0.559   7.986  17.065
 6874TIP3    H171090   0.546   8.068  17.017
 6874TIP3    H271091   0.503   7.928  17.007
 6875TIP3   OH271092   1.318   7.993  16.901
 6875TIP3    H171093   1.381   7.962  16.969
 6875TIP3    H271094   1.377   8.049  16.848
 6876TIP3   OH271095   1.810   7.969  17.589
 6876TIP3    H171096   1.778   8.062  17.579
 6876TIP3    H271097   1.835   7.987  17.681
 6877TIP3   OH271098   0.433   7.867  17.473
 6877TIP3    H171099   0.408   7.925  17.397
 6877TIP3    H271100   0.365   7.900  17.537
 6878TIP3   OH271101   1.497   7.925  17.100
 6878TIP3    H171102   1.469   7.850  17.155
 6878TIP3    H271103   1.559   7.972  17.157
 6879TIP3   OH271104   0.421   8.061  17.309
 6879TIP3    H171105   0.465   8.145  17.301
 6879TIP3    H271106   0.433   8.020  17.217
 6880TIP3   OH271107   1.528   7.800  17.476
 6880TIP3    H171108   1.451   7.856  17.461
 6880TIP3    H271109   1.597   7.837  17.417
 6881TIP3   OH271110   0.825   7.606  17.216
 6881TIP3    H171111   0.814   7.511  17.210
 6881TIP3    H271112   0.737   7.637  17.246
 6882TIP3   OH271113   0.567   7.699  17.294
 6882TIP3    H171114   0.479   7.684  17.253
 6882TIP3    H271115   0.548   7.780  17.344
 6883TIP3   OH271116   1.027   7.662  17.630
 6883TIP3    H171117   1.068   7.619  17.708
 6883TIP3    H271118   0.930   7.648  17.643
 6884TIP3   OH271119   1.360   8.047  17.718
 6884TIP3    H171120   1.302   8.028  17.796
 6884TIP3    H271121   1.330   8.135  17.694
 6885TIP3   OH271122   0.988   7.921  16.360
 6885TIP3    H171123   0.962   7.915  16.454
 6885TIP3    H271124   0.964   7.832  16.333
 6886TIP3   OH271125   0.092   7.906  17.176
 6886TIP3    H171126   0.069   7.951  17.097
 6886TIP3    H271127   0.080   7.823  17.124
 6887TIP3   OH271128   0.175   8.011  16.497
 6887TIP3    H171129   0.200   8.086  16.447
 6887TIP3    H271130   0.102   8.057  16.545
 6888TIP3   OH271131   0.824   7.957  17.002
 6888TIP3    H171132   0.730   7.956  17.033
 6888TIP3    H271133   0.875   7.944  17.084
 6889TIP3   OH271134   0.351   8.073  16.844
 6889TIP3    H171135   0.256   8.099  16.827
 6889TIP3    H271136   0.341   7.977  16.845
 6890TIP3   OH271137   0.673  -0.029  16.643
 6890TIP3    H171138   0.763  -0.010  16.676
 6890TIP3    H271139   0.648   0.046  16.588
 6891TIP3   OH271140   1.271   7.873  17.332
 6891TIP3    H171141   1.198   7.894  17.395
 6891TIP3    H271142   1.219   7.864  17.251
 6892TIP3   OH271143   0.463   7.846  16.838
 6892TIP3    H171144   0.427   7.756  16.836
 6892TIP3    H271145   0.537   7.843  16.778
 6893TIP3   OH271146   0.820   8.069  17.428
 6893TIP3    H171147   0.738   8.117  17.440
 6893TIP3    H271148   0.868   8.097  17.508
 6894TIP3   OH271149   1.256   7.986  16.446
 6894TIP3    H171150   1.167   7.991  16.407
 6894TIP3    H271151   1.293   8.074  16.453
 6895TIP3   OH271152   0.261   7.964  17.644
 6895TIP3    H171153   0.169   7.989  17.655
 6895TIP3    H271154   0.251   7.874  17.686
 6896TIP3   OH271155   1.119   7.919  17.567
 6896TIP3    H171156   1.194   7.927  17.627
 6896TIP3    H271157   1.086   7.829  17.583
 6897TIP3   OH271158   1.193   7.885  16.677
 6897TIP3    H171159   1.226   7.922  16.592
 6897TIP3    H271160   1.260   7.920  16.738
 6898TIP3   OH271161   0.923   8.063  16.751
 6898TIP3    H171162   1.009   8.106  16.758
 6898TIP3    H271163   0.899   8.040  16.843
 6899TIP3   OH271164   0.954  -0.033  17.700
 6899TIP3    H171165   0.977   0.054  17.737
 6899TIP3    H271166   1.044  -0.062  17.676
 6900TIP3   OH271167   1.005   7.771  16.848
 6900TIP3    H171168   0.977   7.834  16.915
 6900TIP3    H271169   1.076   7.816  16.796
 6901TIP3   OH271170   0.575   7.872  16.514
 6901TIP3    H171171   0.569   7.962  16.551
 6901TIP3    H271172   0.665   7.848  16.540
 6902TIP3   OH271173   1.598   7.943  17.754
 6902TIP3    H171174   1.504   7.972  17.747
 6902TIP3    H271175   1.624   7.941  17.662
 6903TIP3   OH271176   0.304   7.704  17.215
 6903TIP3    H171177   0.303   7.686  17.120
 6903TIP3    H271178   0.288   7.610  17.234
 6904TIP3   OH271179   0.602   8.037  17.819
 6904TIP3    H171180   0.648   7.973  17.762
 6904TIP3    H271181   0.631   8.121  17.781
 6905TIP3   OH271182   0.683   7.893  17.582
 6905TIP3    H171183   0.737   7.933  17.511
 6905TIP3    H271184   0.595   7.880  17.540
 6906TIP3   OH271185   0.761   7.637  17.624
 6906TIP3    H171186   0.743   7.733  17.611
 6906TIP3    H271187   0.687   7.597  17.573
 6907TIP3   OH271188   0.904   8.021  17.993
 6907TIP3    H171189   0.870   8.041  18.083
 6907TIP3    H271190   0.820   8.033  17.947
 6908TIP3   OH271191   1.162   7.974  17.886
 6908TIP3    H171192   1.067   7.985  17.904
 6908TIP3    H271193   1.191   7.918  17.959
 6909TIP3   OH271194   1.337   7.813  18.068
 6909TIP3    H171195   1.309   7.720  18.080
 6909TIP3    H271196   1.305   7.854  18.150
 6910TIP3   OH271197   0.341   7.979  18.006
 6910TIP3    H171198   0.334   7.910  17.938
 6910TIP3    H271199   0.301   7.930  18.082
 6911TIP3   OH271200   0.782   7.572  17.889
 6911TIP3    H171201   0.849   7.501  17.887
 6911TIP3    H271202   0.772   7.588  17.794
 6912TIP3   OH271203   0.817   7.730  18.101
 6912TIP3    H171204   0.804   7.684  18.015
 6912TIP3    H271205   0.761   7.810  18.091
 6913TIP3   OH271206   1.587   7.829  16.364
 6913TIP3    H171207   1.667   7.874  16.332
 6913TIP3    H271208   1.525   7.877  16.303
 6914TIP3   OH271209   1.552   8.086  16.744
 6914TIP3    H171210   1.586   7.995  16.750
 6914TIP3    H271211   1.626   8.130  16.700
 6915TIP3   OH271212   1.618   0.001  17.283
 6915TIP3    H171213   1.712   0.020  17.278
 6915TIP3    H271214   1.593   0.014  17.375
 6916TIP3   OH271215   0.125   8.124  17.958
 6916TIP3    H171216   0.187   8.056  17.931
 6916TIP3    H271217   0.048   8.064  17.965
 6917TIP3   OH271218   1.620   7.818  16.745
 6917TIP3    H171219   1.638   7.770  16.828
 6917TIP3    H271220   1.557   7.759  16.698
 6918TIP3   OH271221   0.310   7.936  17.139
 6918TIP3    H171222   0.262   7.854  17.177
 6918TIP3    H271223   0.245   7.975  17.206
 6919TIP3   OH271224   1.827   7.823  16.408
 6919TIP3    H171225   1.852   7.750  16.352
 6919TIP3    H271226   1.892   7.893  16.406
 6920TIP3   OH271227   0.137   8.010  16.737
 6920TIP3    H171228   0.052   7.970  16.739
 6920TIP3    H271229   0.163   7.939  16.674
 6921TIP3   OH271230   8.263   7.765  17.645
 6921TIP3    H171231   8.179   7.716  17.663
 6921TIP3    H271232   8.210   7.801  17.572
 6922TIP3   OH271233   1.040   7.786  17.141
 6922TIP3    H171234   0.977   7.721  17.173
 6922TIP3    H271235   1.099   7.734  17.085
 6923TIP3   OH271236   1.731   7.706  16.987
 6923TIP3    H171237   1.795   7.659  16.934
 6923TIP3    H271238   1.770   7.794  16.990
 6924TIP3   OH271239   0.289   7.654  16.909
 6924TIP3    H171240   0.202   7.623  16.884
 6924TIP3    H271241   0.332   7.568  16.934
 6925TIP3   OH271242   0.277   7.643  16.585
 6925TIP3    H171243   0.268   7.677  16.494
 6925TIP3    H271244   0.184   7.609  16.579
 6926TIP3   OH271245   0.733   7.642  16.910
 6926TIP3    H171246   0.824   7.675  16.903
 6926TIP3    H271247   0.724   7.619  17.002
 6927TIP3   OH271248   1.302   7.639  17.072
 6927TIP3    H171249   1.294   7.655  16.978
 6927TIP3    H271250   1.259   7.551  17.084
 6928TIP3   OH271251   1.428   7.649  16.647
 6928TIP3    H171252   1.355   7.705  16.619
 6928TIP3    H271253   1.383   7.562  16.656
 6929TIP3   OH271254   0.381   7.842  16.331
 6929TIP3    H171255   0.398   7.753  16.304
 6929TIP3    H271256   0.422   7.850  16.419
 6930TIP3   OH271257   0.845   7.848  16.597
 6930TIP3    H171258   0.869   7.786  16.668
 6930TIP3    H271259   0.846   7.932  16.647
 6931TIP3   OH271260   0.311   7.656  17.857
 6931TIP3    H171261   0.246   7.617  17.917
 6931TIP3    H271262   0.378   7.691  17.919
 6932TIP3   OH271263   0.476   7.640  18.054
 6932TIP3    H171264   0.558   7.604  18.015
 6932TIP3    H271265   0.434   7.557  18.082
 6933TIP3   OH271266   1.309   7.560  18.053
 6933TIP3    H171267   1.321   7.521  18.141
 6933TIP3    H271268   1.401   7.566  18.019
 6934TIP3   OH271269   3.198   7.995  16.903
 6934TIP3    H171270   3.264   7.964  16.971
 6934TIP3    H271271   3.262   8.045  16.850
 6935TIP3   OH271272   3.664   8.026  17.605
 6935TIP3    H171273   3.638   8.114  17.586
 6935TIP3    H271274   3.704   8.024  17.695
 6936TIP3   OH271275   2.317   7.874  17.473
 6936TIP3    H171276   2.289   7.926  17.396
 6936TIP3    H271277   2.248   7.898  17.538
 6937TIP3   OH271278   3.379   7.921  17.099
 6937TIP3    H171279   3.360   7.849  17.159
 6937TIP3    H271280   3.443   7.970  17.153
 6938TIP3   OH271281   2.273   8.062  17.270
 6938TIP3    H171282   2.336   8.126  17.303
 6938TIP3    H271283   2.322   8.014  17.202
 6939TIP3   OH271284   2.715   7.607  17.215
 6939TIP3    H171285   2.700   7.511  17.210
 6939TIP3    H271286   2.630   7.638  17.249
 6940TIP3   OH271287   2.909   7.666  17.629
 6940TIP3    H171288   2.950   7.625  17.707
 6940TIP3    H271289   2.814   7.652  17.645
 6941TIP3   OH271290   3.243   8.047  17.718
 6941TIP3    H171291   3.188   8.029  17.798
 6941TIP3    H271292   3.219   8.136  17.695
 6942TIP3   OH271293   2.893   7.900  16.373
 6942TIP3    H171294   2.844   7.912  16.457
 6942TIP3    H271295   2.841   7.831  16.332
 6943TIP3   OH271296   2.557   7.958  16.274
 6943TIP3    H171297   2.514   7.915  16.350
 6943TIP3    H271298   2.484   7.989  16.222
 6944TIP3   OH271299   2.005   7.992  16.512
 6944TIP3    H171300   2.061   8.059  16.471
 6944TIP3    H271301   1.948   8.057  16.556
 6945TIP3   OH271302   2.714   7.957  17.005
 6945TIP3    H171303   2.621   7.962  17.031
 6945TIP3    H271304   2.761   7.948  17.089
 6946TIP3   OH271305   2.558  -0.030  16.641
 6946TIP3    H171306   2.648  -0.012  16.674
 6946TIP3    H271307   2.537   0.046  16.588
 6947TIP3   OH271308   3.153   7.879  17.328
 6947TIP3    H171309   3.084   7.896  17.396
 6947TIP3    H271310   3.099   7.862  17.250
 6948TIP3   OH271311   2.706   8.071  17.432
 6948TIP3    H171312   2.623   8.120  17.441
 6948TIP3    H271313   2.757   8.099  17.510
 6949TIP3   OH271314   3.150   7.978  16.423
 6949TIP3    H171315   3.053   7.983  16.410
 6949TIP3    H271316   3.177   8.065  16.452
 6950TIP3   OH271317   2.137   7.941  17.668
 6950TIP3    H171318   2.049   7.982  17.659
 6950TIP3    H271319   2.123   7.857  17.711
 6951TIP3   OH271320   3.008   7.922  17.555
 6951TIP3    H171321   3.078   7.927  17.622
 6951TIP3    H271322   2.970   7.834  17.577
 6952TIP3   OH271323   3.082   7.884  16.672
 6952TIP3    H171324   3.111   7.926  16.589
 6952TIP3    H271325   3.144   7.921  16.737
 6953TIP3   OH271326   2.812   8.053  16.751
 6953TIP3    H171327   2.888   8.112  16.757
 6953TIP3    H271328   2.780   8.045  16.843
 6954TIP3   OH271329   2.834  -0.044  17.701
 6954TIP3    H171330   2.852   0.041  17.746
 6954TIP3    H271331   2.923  -0.074  17.676
 6955TIP3   OH271332   2.897   7.764  16.845
 6955TIP3    H171333   2.860   7.830  16.906
 6955TIP3    H271334   2.963   7.817  16.795
 6956TIP3   OH271335   2.462   7.871  16.508
 6956TIP3    H171336   2.454   7.958  16.552
 6956TIP3    H271337   2.551   7.845  16.539
 6957TIP3   OH271338   3.484   7.949  17.757
 6957TIP3    H171339   3.390   7.972  17.746
 6957TIP3    H271340   3.511   7.944  17.663
 6958TIP3   OH271341   2.491   8.037  17.822
 6958TIP3    H171342   2.537   7.974  17.762
 6958TIP3    H271343   2.516   8.120  17.779
 6959TIP3   OH271344   2.566   7.889  17.582
 6959TIP3    H171345   2.620   7.932  17.512
 6959TIP3    H271346   2.479   7.878  17.537
 6960TIP3   OH271347   2.788   8.018  17.996
 6960TIP3    H171348   2.755   8.040  18.085
 6960TIP3    H271349   2.707   8.033  17.947
 6961TIP3   OH271350   3.044   7.976  17.882
 6961TIP3    H171351   2.950   7.985  17.906
 6961TIP3    H271352   3.076   7.921  17.956
 6962TIP3   OH271353   3.205   7.841  18.085
 6962TIP3    H171354   3.195   7.744  18.086
 6962TIP3    H271355   3.179   7.870  18.175
 6963TIP3   OH271356   2.195   7.967  17.997
 6963TIP3    H171357   2.216   7.897  17.933
 6963TIP3    H271358   2.176   7.918  18.078
 6964TIP3   OH271359   2.683   7.582  17.891
 6964TIP3    H171360   2.737   7.500  17.891
 6964TIP3    H271361   2.655   7.587  17.799
 6965TIP3   OH271362   2.700   7.728  18.105
 6965TIP3    H171363   2.691   7.684  18.017
 6965TIP3    H271364   2.648   7.809  18.089
 6966TIP3   OH271365   3.447   8.084  16.752
 6966TIP3    H171366   3.479   7.992  16.751
 6966TIP3    H271367   3.516   8.130  16.700
 6967TIP3   OH271368   3.534  -0.027  17.336
 6967TIP3    H171369   3.592   0.031  17.285
 6967TIP3    H271370   3.475   0.030  17.383
 6968TIP3   OH271371   1.948   8.041  17.979
 6968TIP3    H171372   2.035   8.040  17.933
 6968TIP3    H271373   1.892   7.973  17.942
 6969TIP3   OH271374   1.917   7.832  16.717
 6969TIP3    H171375   1.823   7.842  16.695
 6969TIP3    H271376   1.960   7.871  16.639
 6970TIP3   OH271377   2.928   7.786  17.147
 6970TIP3    H171378   2.863   7.719  17.172
 6970TIP3    H271379   2.983   7.737  17.085
 6971TIP3   OH271380   2.617   7.641  16.908
 6971TIP3    H171381   2.707   7.678  16.903
 6971TIP3    H271382   2.608   7.620  17.001
 6972TIP3   OH271383   2.729   7.846  16.594
 6972TIP3    H171384   2.754   7.786  16.666
 6972TIP3    H271385   2.733   7.930  16.643
 6973TIP3   OH271386   3.192   7.567  18.054
 6973TIP3    H171387   3.204   7.521  18.139
 6973TIP3    H271388   3.282   7.564  18.016
 6974TIP3   OH271389   4.440   8.051  17.167
 6974TIP3    H171390   4.397   8.101  17.091
 6974TIP3    H271391   4.397   7.998  17.098
 6975TIP3   OH271392   5.088   7.996  16.903
 6975TIP3    H171393   5.151   7.961  16.970
 6975TIP3    H271394   5.149   8.049  16.850
 6976TIP3   OH271395   4.219   7.865  17.436
 6976TIP3    H171396   4.177   7.935  17.386
 6976TIP3    H271397   4.166   7.875  17.518
 6977TIP3   OH271398   5.263   7.921  17.102
 6977TIP3    H171399   5.246   7.844  17.157
 6977TIP3    H271400   5.328   7.971  17.156
 6978TIP3   OH271401   4.165   8.063  17.306
 6978TIP3    H171402   4.224   8.139  17.310
 6978TIP3    H271403   4.210   8.023  17.229
 6979TIP3   OH271404   4.331   7.680  17.308
 6979TIP3    H171405   4.252   7.683  17.254
 6979TIP3    H271406   4.326   7.770  17.347
 6980TIP3   OH271407   5.131   8.042  17.716
 6980TIP3    H171408   5.075   8.030  17.796
 6980TIP3    H271409   5.112   8.133  17.692
 6981TIP3   OH271410   4.765   7.919  16.363
 6981TIP3    H171411   4.733   7.916  16.455
 6981TIP3    H271412   4.736   7.832  16.334
 6982TIP3   OH271413   3.778   7.938  16.980
 6982TIP3    H171414   3.836   7.925  17.056
 6982TIP3    H271415   3.817   7.891  16.907
 6983TIP3   OH271416   3.897   8.009  16.516
 6983TIP3    H171417   3.947   8.070  16.462
 6983TIP3    H271418   3.830   8.065  16.554
 6984TIP3   OH271419   4.666   8.004  17.046
 6984TIP3    H171420   4.569   7.992  17.028
 6984TIP3    H271421   4.671   7.939  17.116
 6985TIP3   OH271422   4.052   8.148  16.832
 6985TIP3    H171423   3.961   8.128  16.848
 6985TIP3    H271424   4.091   8.061  16.846
 6986TIP3   OH271425   4.413  -0.126  16.702
 6986TIP3    H171426   4.495  -0.071  16.709
 6986TIP3    H271427   4.359  -0.046  16.675
 6987TIP3   OH271428   5.037   7.874  17.327
 6987TIP3    H171429   4.971   7.894  17.397
 6987TIP3    H271430   4.982   7.865  17.247
 6988TIP3   OH271431   4.595   8.042  17.452
 6988TIP3    H171432   4.521   8.105  17.444
 6988TIP3    H271433   4.651   8.092  17.513
 6989TIP3   OH271434   5.038   7.978  16.419
 6989TIP3    H171435   4.942   7.987  16.405
 6989TIP3    H271436   5.063   8.065  16.452
 6990TIP3   OH271437   4.116   7.847  17.656
 6990TIP3    H171438   4.067   7.931  17.626
 6990TIP3    H271439   4.042   7.836  17.716
 6991TIP3   OH271440   4.893   7.920  17.558
 6991TIP3    H171441   4.964   7.931  17.624
 6991TIP3    H271442   4.856   7.833  17.577
 6992TIP3   OH271443   4.967   7.884  16.670
 6992TIP3    H171444   5.000   7.926  16.588
 6992TIP3    H271445   5.026   7.920  16.738
 6993TIP3   OH271446   4.692   8.058  16.749
 6993TIP3    H171447   4.773   8.109  16.756
 6993TIP3    H271448   4.670   8.045  16.843
 6994TIP3   OH271449   4.755   0.018  17.665
 6994TIP3    H171450   4.762   0.067  17.747
 6994TIP3    H271451   4.812  -0.059  17.681
 6995TIP3   OH271452   4.319   7.828  16.587
 6995TIP3    H171453   4.320   7.928  16.572
 6995TIP3    H271454   4.415   7.832  16.561
 6996TIP3   OH271455   5.368   7.935  17.751
 6996TIP3    H171456   5.279   7.976  17.746
 6996TIP3    H271457   5.397   7.951  17.662
 6997TIP3   OH271458   4.443   8.043  17.812
 6997TIP3    H171459   4.426   7.968  17.751
 6997TIP3    H271460   4.416   8.121  17.765
 6998TIP3   OH271461   4.444   7.889  17.586
 6998TIP3    H171462   4.505   7.927  17.517
 6998TIP3    H271463   4.362   7.874  17.536
 6999TIP3   OH271464   4.698   8.014  17.896
 6999TIP3    H171465   4.703   8.019  17.994
 6999TIP3    H271466   4.601   8.033  17.890
 7000TIP3   OH271467   4.943   7.978  17.887
 7000TIP3    H171468   4.845   7.981  17.894
 7000TIP3    H271469   4.967   7.917  17.958
 7001TIP3   OH271470   5.087   7.842  18.084
 7001TIP3    H171471   5.084   7.746  18.091
 7001TIP3    H271472   5.066   7.872  18.175
 7002TIP3   OH271473   4.591   7.733  18.093
 7002TIP3    H171474   4.574   7.682  18.013
 7002TIP3    H271475   4.518   7.799  18.089
 7003TIP3   OH271476   5.332   8.080  16.753
 7003TIP3    H171477   5.363   7.990  16.751
 7003TIP3    H271478   5.400   8.127  16.702
 7004TIP3   OH271479   3.796   8.072  17.934
 7004TIP3    H171480   3.891   8.057  17.918
 7004TIP3    H271481   3.760   7.985  17.952
 7005TIP3   OH271482   3.924   7.877  17.230
 7005TIP3    H171483   3.991   7.809  17.229
 7005TIP3    H271484   3.975   7.959  17.237
 7006TIP3   OH271485   5.569   7.826  17.935
 7006TIP3    H171486   5.479   7.865  17.928
 7006TIP3    H271487   5.582   7.782  17.852
 7007TIP3   OH271488   4.816   7.782  17.150
 7007TIP3    H171489   4.748   7.719  17.173
 7007TIP3    H271490   4.870   7.740  17.083
 7008TIP3   OH271491   5.497   7.710  16.986
 7008TIP3    H171492   5.562   7.658  16.937
 7008TIP3    H271493   5.541   7.796  16.996
 7009TIP3   OH271494   4.616   7.848  16.594
 7009TIP3    H171495   4.642   7.786  16.664
 7009TIP3    H271496   4.622   7.931  16.646
 7010TIP3   OH271497   4.236   7.635  18.024
 7010TIP3    H171498   4.328   7.609  18.016
 7010TIP3    H271499   4.203   7.565  18.081
 7011TIP3   OH271500   7.445   7.888  17.375
 7011TIP3    H171501   7.444   7.952  17.451
 7011TIP3    H271502   7.487   7.945  17.310
 7012TIP3   OH271503   7.470   8.078  17.576
 7012TIP3    H171504   7.383   8.113  17.579
 7012TIP3    H271505   7.481   8.048  17.669
 7013TIP3   OH271506   7.145   7.924  17.103
 7013TIP3    H171507   7.132   7.848  17.158
 7013TIP3    H271508   7.215   7.972  17.151
 7014TIP3   OH271509   7.185   7.795  17.472
 7014TIP3    H171510   7.111   7.857  17.461
 7014TIP3    H271511   7.257   7.835  17.418
 7015TIP3   OH271512   7.308   7.598  16.506
 7015TIP3    H171513   7.221   7.617  16.543
 7015TIP3    H271514   7.342   7.684  16.474
 7016TIP3   OH271515   7.009   8.043  17.714
 7016TIP3    H171516   6.958   8.030  17.797
 7016TIP3    H271517   6.993   8.135  17.695
 7017TIP3   OH271518   5.661   7.937  16.981
 7017TIP3    H171519   5.724   7.923  17.055
 7017TIP3    H271520   5.706   7.896  16.905
 7018TIP3   OH271521   6.924   7.876  17.329
 7018TIP3    H171522   6.856   7.898  17.397
 7018TIP3    H271523   6.872   7.868  17.249
 7019TIP3   OH271524   6.114   7.851  16.837
 7019TIP3    H171525   6.081   7.759  16.836
 7019TIP3    H271526   6.190   7.850  16.779
 7020TIP3   OH271527   6.917   7.976  16.422
 7020TIP3    H171528   6.823   7.995  16.411
 7020TIP3    H271529   6.952   8.061  16.451
 7021TIP3   OH271530   5.907   7.947  17.666
 7021TIP3    H171531   5.818   7.983  17.663
 7021TIP3    H271532   5.895   7.863  17.710
 7022TIP3   OH271533   6.780   7.921  17.555
 7022TIP3    H171534   6.852   7.930  17.621
 7022TIP3    H271535   6.743   7.835  17.578
 7023TIP3   OH271536   6.857   7.879  16.669
 7023TIP3    H171537   6.882   7.927  16.588
 7023TIP3    H271538   6.913   7.923  16.735
 7024TIP3   OH271539   7.250   7.958  17.756
 7024TIP3    H171540   7.154   7.975  17.743
 7024TIP3    H271541   7.280   7.939  17.666
 7025TIP3   OH271542   5.965   7.663  17.204
 7025TIP3    H171543   5.952   7.664  17.107
 7025TIP3    H271544   5.926   7.577  17.230
 7026TIP3   OH271545   6.813   7.980  17.886
 7026TIP3    H171546   6.720   7.978  17.904
 7026TIP3    H271547   6.850   7.919  17.954
 7027TIP3   OH271548   6.966   7.846  18.082
 7027TIP3    H171549   6.969   7.747  18.085
 7027TIP3    H271550   6.950   7.870  18.175
 7028TIP3   OH271551   6.449   7.570  17.893
 7028TIP3    H171552   6.510   7.495  17.886
 7028TIP3    H271553   6.429   7.588  17.800
 7029TIP3   OH271554   7.234   7.931  16.242
 7029TIP3    H171555   7.308   7.901  16.301
 7029TIP3    H271556   7.157   7.884  16.270
 7030TIP3   OH271557   7.223   8.084  16.752
 7030TIP3    H171558   7.249   7.990  16.752
 7030TIP3    H271559   7.292   8.126  16.699
 7031TIP3   OH271560   7.303  -0.030  17.338
 7031TIP3    H171561   7.362   0.027  17.286
 7031TIP3    H271562   7.245   0.032  17.381
 7032TIP3   OH271563   5.702   8.065  17.913
 7032TIP3    H171564   5.796   8.050  17.928
 7032TIP3    H271565   5.657   7.986  17.946
 7033TIP3   OH271566   7.508   7.610  18.094
 7033TIP3    H171567   7.543   7.550  18.030
 7033TIP3    H271568   7.510   7.698  18.054
 7034TIP3   OH271569   7.275   7.821  16.745
 7034TIP3    H171570   7.293   7.774  16.827
 7034TIP3    H271571   7.218   7.757  16.700
 7035TIP3   OH271572   5.833   7.899  17.189
 7035TIP3    H171573   5.874   7.816  17.223
 7035TIP3    H271574   5.877   7.963  17.244
 7036TIP3   OH271575   7.392   7.799  17.967
 7036TIP3    H171576   7.334   7.867  17.930
 7036TIP3    H271577   7.442   7.770  17.888
 7037TIP3   OH271578   7.449   7.825  16.396
 7037TIP3    H171579   7.498   7.752  16.353
 7037TIP3    H271580   7.524   7.888  16.406
 7038TIP3   OH271581   5.691   7.820  16.704
 7038TIP3    H171582   5.599   7.848  16.699
 7038TIP3    H271583   5.735   7.877  16.641
 7039TIP3   OH271584   5.683   7.692  17.540
 7039TIP3    H171585   5.620   7.676  17.610
 7039TIP3    H271586   5.643   7.762  17.487
 7040TIP3   OH271587   7.339   7.621  17.723
 7040TIP3    H171588   7.277   7.675  17.674
 7040TIP3    H271589   7.371   7.559  17.658
 7041TIP3   OH271590   5.935   7.645  16.926
 7041TIP3    H171591   5.854   7.624  16.877
 7041TIP3    H271592   5.984   7.562  16.925
 7042TIP3   OH271593   5.818   7.622  16.508
 7042TIP3    H171594   5.861   7.688  16.452
 7042TIP3    H271595   5.755   7.677  16.557
 7043TIP3   OH271596   7.082   7.649  16.634
 7043TIP3    H171597   7.010   7.713  16.624
 7043TIP3    H271598   7.036   7.566  16.660
 7044TIP3   OH271599   5.925   7.701  17.881
 7044TIP3    H171600   5.890   7.619  17.922
 7044TIP3    H271601   6.017   7.701  17.908
 7045TIP3   OH271602   6.967   7.576  18.055
 7045TIP3    H171603   6.978   7.522  18.133
 7045TIP3    H271604   7.055   7.565  18.016
 7046TIP3   OH271605   7.982   8.045  17.030
 7046TIP3    H171606   8.073   8.079  17.020
 7046TIP3    H271607   8.012   7.958  17.003
 7047TIP3   OH271608   7.881   8.017  17.487
 7047TIP3    H171609   7.930   7.968  17.422
 7047TIP3    H271610   7.887   7.939  17.546
 7048TIP3   OH271611   7.854   8.105  17.251
 7048TIP3    H171612   7.920   8.131  17.318
 7048TIP3    H271613   7.914   8.045  17.202
 7049TIP3   OH271614   7.943   7.608  17.293
 7049TIP3    H171615   7.927   7.678  17.228
 7049TIP3    H271616   8.023   7.674  17.310
 7050TIP3   OH271617   7.554   7.972  16.968
 7050TIP3    H171618   7.594   7.931  17.048
 7050TIP3    H271619   7.576   7.903  16.903
 7051TIP3   OH271620   7.638   8.005  16.521
 7051TIP3    H171621   7.711   8.053  16.476
 7051TIP3    H271622   7.589   8.076  16.561
 7052TIP3   OH271623   7.805   8.061  16.868
 7052TIP3    H171624   7.740   8.106  16.815
 7052TIP3    H271625   7.864   8.005  16.814
 7053TIP3   OH271626   8.148   7.910  16.932
 7053TIP3    H171627   8.085   7.837  16.926
 7053TIP3    H271628   8.127   7.929  16.841
 7054TIP3   OH271629   7.745   8.060  17.685
 7054TIP3    H171630   7.682   8.010  17.633
 7054TIP3    H271631   7.787   7.971  17.703
 7055TIP3   OH271632   0.070   7.556  16.668
 7055TIP3    H171633  -0.004   7.621  16.640
 7055TIP3    H271634   0.111   7.646  16.651
 7056TIP3   OH271635   7.728   7.650  17.270
 7056TIP3    H171636   7.793   7.658  17.190
 7056TIP3    H271637   7.775   7.559  17.267
 7057TIP3   OH271638   7.834   8.054  18.021
 7057TIP3    H171639   7.882   7.995  17.958
 7057TIP3    H271640   7.823   7.976  18.077
 7058TIP3   OH271641   7.566   8.091  17.917
 7058TIP3    H171642   7.662   8.075  17.929
 7058TIP3    H271643   7.535   8.004  17.941
 7059TIP3   OH271644   7.697   7.920  17.251
 7059TIP3    H171645   7.752   7.842  17.232
 7059TIP3    H271646   7.764   7.991  17.251
 7060TIP3   OH271647   7.577   7.829  16.717
 7060TIP3    H171648   7.483   7.843  16.698
 7060TIP3    H271649   7.616   7.875  16.640
 7061TIP3   OH271650   7.579   7.650  17.504
 7061TIP3    H171651   7.528   7.657  17.587
 7061TIP3    H271652   7.553   7.731  17.457
 7062TIP3   OH271653   7.759   7.634  16.784
 7062TIP3    H171654   7.695   7.620  16.855
 7062TIP3    H271655   7.830   7.612  16.852
 7063TIP3   OH271656   7.621   7.675  16.520
 7063TIP3    H171657   7.711   7.682  16.482
 7063TIP3    H271658   7.633   7.717  16.606
 7064TIP3   OH271659   7.863   7.866  16.511
 7064TIP3    H171660   7.880   7.798  16.441
 7064TIP3    H271661   7.944   7.893  16.461
 7065TIP3   OH271662   7.778   7.590  17.845
 7065TIP3    H171663   7.749   7.599  17.936
 7065TIP3    H271664   7.860   7.644  17.851
 7066TIP3   OH271665   8.017   7.589  17.883
 7066TIP3    H171666   8.083   7.592  17.954
 7066TIP3    H271667   7.950   7.583  17.962
 7067TIP3   OH271668   1.061   0.792  18.252
 7067TIP3    H171669   1.133   0.798  18.319
 7067TIP3    H271670   1.093   0.722  18.196
 7068TIP3   OH271671   1.286   0.879  18.416
 7068TIP3    H171672   1.345   0.898  18.488
 7068TIP3    H271673   1.326   0.928  18.341
 7069TIP3   OH271674   1.435   0.983  18.189
 7069TIP3    H171675   1.432   0.967  18.092
 7069TIP3    H271676   1.519   1.030  18.199
 7070TIP3   OH271677   0.985   0.376  18.243
 7070TIP3    H171678   0.966   0.373  18.336
 7070TIP3    H271679   0.961   0.286  18.213
 7071TIP3   OH271680   0.675   0.412  18.154
 7071TIP3    H171681   0.630   0.376  18.233
 7071TIP3    H271682   0.604   0.457  18.106
 7072TIP3   OH271683   0.128   0.465  18.399
 7072TIP3    H171684   0.178   0.525  18.346
 7072TIP3    H271685   0.062   0.522  18.442
 7073TIP3   OH271686   0.541   0.687  18.298
 7073TIP3    H171687   0.486   0.659  18.223
 7073TIP3    H271688   0.620   0.717  18.252
 7074TIP3   OH271689   0.801   1.433  18.115
 7074TIP3    H171690   0.823   1.352  18.068
 7074TIP3    H271691   0.770   1.394  18.200
 7075TIP3   OH271692   0.697   1.385  18.363
 7075TIP3    H171693   0.706   1.334  18.444
 7075TIP3    H271694   0.695   1.477  18.395
 7076TIP3   OH271695   0.711   1.659  18.440
 7076TIP3    H171696   0.715   1.739  18.388
 7076TIP3    H271697   0.680   1.690  18.525
 7077TIP3   OH271698   0.573   0.327  18.396
 7077TIP3    H171699   0.563   0.415  18.435
 7077TIP3    H271700   0.663   0.303  18.423
 7078TIP3   OH271701   0.559   1.184  18.137
 7078TIP3    H171702   0.569   1.108  18.196
 7078TIP3    H271703   0.629   1.174  18.072
 7079TIP3   OH271704   1.079   1.294  18.117
 7079TIP3    H171705   1.071   1.309  18.212
 7079TIP3    H271706   1.074   1.197  18.107
 7080TIP3   OH271707   0.680   0.984  18.374
 7080TIP3    H171708   0.624   0.937  18.437
 7080TIP3    H271709   0.704   0.919  18.306
 7081TIP3   OH271710   0.782   0.806  18.197
 7081TIP3    H171711   0.767   0.802  18.101
 7081TIP3    H271712   0.880   0.817  18.204
 7082TIP3   OH271713   1.719   1.042  18.143
 7082TIP3    H171714   1.693   1.007  18.056
 7082TIP3    H271715   1.724   1.139  18.125
 7083TIP3   OH271716   1.834   0.927  18.360
 7083TIP3    H171717   1.778   0.964  18.289
 7083TIP3    H271718   1.829   0.994  18.428
 7084TIP3   OH271719   0.171   0.110  18.388
 7084TIP3    H171720   0.205   0.174  18.327
 7084TIP3    H271721   0.101   0.154  18.438
 7085TIP3   OH271722   0.345   0.282  18.231
 7085TIP3    H171723   0.393   0.212  18.184
 7085TIP3    H271724   0.404   0.304  18.305
 7086TIP3   OH271725   3.546   0.066  18.410
 7086TIP3    H171726   3.451   0.068  18.424
 7086TIP3    H271727   3.565   0.142  18.355
 7087TIP3   OH271728   3.658   1.492  18.234
 7087TIP3    H171729   3.667   1.586  18.254
 7087TIP3    H271730   3.749   1.464  18.237
 7088TIP3   OH271731   3.158   0.429  18.317
 7088TIP3    H171732   3.066   0.441  18.293
 7088TIP3    H271733   3.186   0.518  18.339
 7089TIP3   OH271734   2.083   0.925  18.253
 7089TIP3    H171735   2.143   0.979  18.308
 7089TIP3    H271736   1.997   0.945  18.295
 7090TIP3   OH271737   2.222   1.109  18.410
 7090TIP3    H171738   2.156   1.142  18.471
 7090TIP3    H271739   2.278   1.185  18.389
 7091TIP3   OH271740   3.351   1.594  18.151
 7091TIP3    H171741   3.381   1.519  18.201
 7091TIP3    H271742   3.426   1.619  18.097
 7092TIP3   OH271743   3.607   1.044  18.144
 7092TIP3    H171744   3.580   1.004  18.060
 7092TIP3    H271745   3.609   1.139  18.121
 7093TIP3   OH271746   3.719   0.925  18.363
 7093TIP3    H171747   3.666   0.959  18.287
 7093TIP3    H271748   3.711   0.994  18.428
 7094TIP3   OH271749   3.561   0.652  18.216
 7094TIP3    H171750   3.560   0.718  18.146
 7094TIP3    H271751   3.538   0.570  18.170
 7095TIP3   OH271752   3.477   0.392  18.125
 7095TIP3    H171753   3.539   0.356  18.190
 7095TIP3    H271754   3.394   0.351  18.151
 7096TIP3   OH271755   2.047   0.084  18.391
 7096TIP3    H171756   2.090   0.149  18.334
 7096TIP3    H271757   1.986   0.139  18.439
 7097TIP3   OH271758   2.232   0.277  18.237
 7097TIP3    H171759   2.285   0.218  18.181
 7097TIP3    H271760   2.295   0.306  18.304
 7098TIP3   OH271761   2.223   1.778  18.184
 7098TIP3    H171762   2.188   1.800  18.273
 7098TIP3    H271763   2.293   1.714  18.203
 7099TIP3   OH271764   4.830   0.793  18.253
 7099TIP3    H171765   4.898   0.792  18.322
 7099TIP3    H271766   4.863   0.725  18.192
 7100TIP3   OH271767   5.399   0.056  18.381
 7100TIP3    H171768   5.326   0.079  18.437
 7100TIP3    H271769   5.447   0.140  18.363
 7101TIP3   OH271770   5.541   1.496  18.239
 7101TIP3    H171771   5.560   1.590  18.254
 7101TIP3    H271772   5.634   1.467  18.230
 7102TIP3   OH271773   5.085   1.768  18.305
 7102TIP3    H171774   5.128   1.695  18.255
 7102TIP3    H271775   5.091   1.741  18.397
 7103TIP3   OH271776   4.764   0.372  18.243
 7103TIP3    H171777   4.738   0.378  18.336
 7103TIP3    H271778   4.734   0.285  18.219
 7104TIP3   OH271779   4.312   0.698  18.295
 7104TIP3    H171780   4.259   0.656  18.228
 7104TIP3    H271781   4.396   0.716  18.252
 7105TIP3   OH271782   3.972   0.924  18.257
 7105TIP3    H171783   4.032   0.980  18.311
 7105TIP3    H271784   3.884   0.947  18.292
 7106TIP3   OH271785   5.612   1.762  18.299
 7106TIP3    H171786   5.684   1.821  18.275
 7106TIP3    H271787   5.541   1.822  18.325
 7107TIP3   OH271788   4.577   1.432  18.119
 7107TIP3    H171789   4.594   1.354  18.064
 7107TIP3    H271790   4.542   1.390  18.200
 7108TIP3   OH271791   4.463   1.383  18.364
 7108TIP3    H171792   4.482   1.333  18.445
 7108TIP3    H271793   4.467   1.473  18.397
 7109TIP3   OH271794   4.108   1.112  18.412
 7109TIP3    H171795   4.042   1.149  18.470
 7109TIP3    H271796   4.163   1.189  18.388
 7110TIP3   OH271797   4.735   1.557  18.444
 7110TIP3    H171798   4.654   1.608  18.442
 7110TIP3    H271799   4.790   1.604  18.378
 7111TIP3   OH271800   4.171   1.371  18.307
 7111TIP3    H171801   4.233   1.439  18.333
 7111TIP3    H271802   4.218   1.327  18.234
 7112TIP3   OH271803   4.781   1.617  18.136
 7112TIP3    H171804   4.711   1.552  18.158
 7112TIP3    H271805   4.852   1.560  18.105
 7113TIP3   OH271806   5.245   1.608  18.154
 7113TIP3    H171807   5.270   1.526  18.199
 7113TIP3    H271808   5.321   1.619  18.094
 7114TIP3   OH271809   4.328   1.185  18.136
 7114TIP3    H171810   4.342   1.110  18.196
 7114TIP3    H271811   4.400   1.176  18.073
 7115TIP3   OH271812   4.444   0.986  18.367
 7115TIP3    H171813   4.400   0.937  18.439
 7115TIP3    H271814   4.472   0.915  18.306
 7116TIP3   OH271815   4.554   0.809  18.196
 7116TIP3    H171816   4.540   0.798  18.100
 7116TIP3    H271817   4.651   0.816  18.207
 7117TIP3   OH271818   5.560   0.294  18.279
 7117TIP3    H171819   5.609   0.216  18.239
 7117TIP3    H271820   5.644   0.341  18.294
 7118TIP3   OH271821   4.809   1.799  18.327
 7118TIP3    H171822   4.897   1.833  18.304
 7118TIP3    H271823   4.783   1.756  18.242
 7119TIP3   OH271824   7.312   0.061  18.405
 7119TIP3    H171825   7.219   0.067  18.426
 7119TIP3    H271826   7.336   0.144  18.361
 7120TIP3   OH271827   7.430   1.492  18.228
 7120TIP3    H171828   7.442   1.585  18.254
 7120TIP3    H271829   7.522   1.462  18.238
 7121TIP3   OH271830   6.969   1.768  18.302
 7121TIP3    H171831   7.011   1.693  18.256
 7121TIP3    H271832   6.978   1.738  18.394
 7122TIP3   OH271833   6.656   0.375  18.250
 7122TIP3    H171834   6.620   0.377  18.340
 7122TIP3    H271835   6.627   0.289  18.218
 7123TIP3   OH271836   6.329   0.427  18.161
 7123TIP3    H171837   6.284   0.376  18.229
 7123TIP3    H271838   6.256   0.458  18.107
 7124TIP3   OH271839   5.784   0.468  18.407
 7124TIP3    H171840   5.837   0.522  18.345
 7124TIP3    H271841   5.714   0.524  18.438
 7125TIP3   OH271842   6.197   0.685  18.301
 7125TIP3    H171843   6.142   0.657  18.226
 7125TIP3    H271844   6.277   0.714  18.256
 7126TIP3   OH271845   6.918   0.428  18.307
 7126TIP3    H171846   6.823   0.448  18.293
 7126TIP3    H271847   6.949   0.514  18.343
 7127TIP3   OH271848   6.991   0.626  18.472
 7127TIP3    H171849   7.081   0.610  18.504
 7127TIP3    H271850   6.999   0.706  18.418
 7128TIP3   OH271851   7.474   0.639  18.450
 7128TIP3    H171852   7.422   0.605  18.375
 7128TIP3    H271853   7.492   0.730  18.417
 7129TIP3   OH271854   5.852   0.920  18.263
 7129TIP3    H171855   5.916   0.979  18.305
 7129TIP3    H271856   5.767   0.954  18.294
 7130TIP3   OH271857   7.497   1.764  18.287
 7130TIP3    H171858   7.575   1.820  18.286
 7130TIP3    H271859   7.431   1.821  18.330
 7131TIP3   OH271860   6.363   1.656  18.437
 7131TIP3    H171861   6.372   1.738  18.382
 7131TIP3    H271862   6.340   1.688  18.524
 7132TIP3   OH271863   6.267   0.371  18.486
 7132TIP3    H171864   6.227   0.443  18.433
 7132TIP3    H271865   6.319   0.324  18.421
 7133TIP3   OH271866   5.887   0.637  18.220
 7133TIP3    H171867   5.885   0.731  18.241
 7133TIP3    H271868   5.800   0.615  18.187
 7134TIP3   OH271869   7.119   1.594  18.151
 7134TIP3    H171870   7.154   1.518  18.199
 7134TIP3    H271871   7.197   1.616  18.097
 7135TIP3   OH271872   7.375   1.050  18.146
 7135TIP3    H171873   7.352   1.005  18.063
 7135TIP3    H271874   7.384   1.141  18.118
 7136TIP3   OH271875   6.426   1.880  18.300
 7136TIP3    H171876   6.522   1.890  18.313
 7136TIP3    H271877   6.406   1.945  18.233
 7137TIP3   OH271878   5.786   1.334  18.260
 7137TIP3    H171879   5.880   1.353  18.268
 7137TIP3    H271880   5.783   1.278  18.180
 7138TIP3   OH271881   7.491   0.927  18.362
 7138TIP3    H171882   7.439   0.962  18.285
 7138TIP3    H271883   7.487   0.999  18.426
 7139TIP3   OH271884   7.331   0.650  18.217
 7139TIP3    H171885   7.335   0.715  18.147
 7139TIP3    H271886   7.308   0.569  18.168
 7140TIP3   OH271887   7.247   0.399  18.132
 7140TIP3    H171888   7.312   0.353  18.189
 7140TIP3    H271889   7.166   0.349  18.147
 7141TIP3   OH271890   7.460   0.286  18.286
 7141TIP3    H171891   7.498   0.208  18.237
 7141TIP3    H271892   7.534   0.346  18.294
 7142TIP3   OH271893   5.784   0.199  18.306
 7142TIP3    H171894   5.873   0.166  18.316
 7142TIP3    H271895   5.751   0.165  18.394
 7143TIP3   OH271896   5.999   0.301  18.221
 7143TIP3    H171897   6.039   0.220  18.182
 7143TIP3    H271898   6.052   0.308  18.302
 7144TIP3   OH271899   6.691   1.806  18.324
 7144TIP3    H171900   6.782   1.832  18.305
 7144TIP3    H271901   6.670   1.754  18.246
 7145TIP3   OH271902   6.001   1.787  18.188
 7145TIP3    H171903   5.962   1.795  18.275
 7145TIP3    H271904   6.065   1.713  18.199
 7146TIP3   OH271905   7.672   0.467  18.406
 7146TIP3    H171906   7.720   0.528  18.348
 7146TIP3    H271907   7.599   0.523  18.438
 7147TIP3   OH271908   8.061   0.669  18.350
 7147TIP3    H171909   7.996   0.666  18.277
 7147TIP3    H271910   8.131   0.685  18.283
 7148TIP3   OH271911   7.737   0.935  18.241
 7148TIP3    H171912   7.797   0.979  18.303
 7148TIP3    H271913   7.652   0.946  18.289
 7149TIP3   OH271914   7.874   1.126  18.404
 7149TIP3    H171915   7.809   1.149  18.471
 7149TIP3    H271916   7.924   1.205  18.386
 7150TIP3   OH271917   7.911   1.376  18.288
 7150TIP3    H171918   7.978   1.437  18.327
 7150TIP3    H271919   7.977   1.335  18.228
 7151TIP3   OH271920   7.778   0.636  18.212
 7151TIP3    H171921   7.772   0.730  18.236
 7151TIP3    H271922   7.685   0.621  18.187
 7152TIP3   OH271923   8.117   1.288  18.118
 7152TIP3    H171924   8.106   1.218  18.186
 7152TIP3    H271925   8.173   1.226  18.068
 7153TIP3   OH271926   7.662   1.343  18.244
 7153TIP3    H171927   7.757   1.351  18.271
 7153TIP3    H271928   7.666   1.271  18.179
 7154TIP3   OH271929   7.879   1.779  18.184
 7154TIP3    H171930   7.845   1.801  18.273
 7154TIP3    H271931   7.949   1.716  18.202
 7155TIP3   OH271932   1.064   2.683  18.250
 7155TIP3    H171933   1.130   2.682  18.323
 7155TIP3    H271934   1.095   2.611  18.195
 7156TIP3   OH271935   1.290   2.766  18.414
 7156TIP3    H171936   1.346   2.789  18.489
 7156TIP3    H271937   1.327   2.819  18.341
 7157TIP3   OH271938   1.435   2.864  18.189
 7157TIP3    H171939   1.429   2.853  18.091
 7157TIP3    H271940   1.515   2.918  18.195
 7158TIP3   OH271941   0.994   2.262  18.245
 7158TIP3    H171942   0.964   2.263  18.337
 7158TIP3    H271943   0.966   2.174  18.220
 7159TIP3   OH271944   1.265   2.319  18.295
 7159TIP3    H171945   1.168   2.325  18.296
 7159TIP3    H271946   1.291   2.396  18.348
 7160TIP3   OH271947   1.333   2.510  18.472
 7160TIP3    H171948   1.423   2.488  18.502
 7160TIP3    H271949   1.342   2.590  18.419
 7161TIP3   OH271950   1.086   3.183  18.387
 7161TIP3    H171951   1.055   3.266  18.428
 7161TIP3    H271952   1.018   3.120  18.416
 7162TIP3   OH271953   1.814   2.526  18.449
 7162TIP3    H171954   1.764   2.488  18.374
 7162TIP3    H271955   1.834   2.614  18.416
 7163TIP3   OH271956   1.397   3.200  18.267
 7163TIP3    H171957   1.429   3.174  18.354
 7163TIP3    H271958   1.300   3.195  18.280
 7164TIP3   OH271959   0.805   3.318  18.117
 7164TIP3    H171960   0.822   3.240  18.062
 7164TIP3    H271961   0.773   3.277  18.199
 7165TIP3   OH271962   0.685   3.267  18.368
 7165TIP3    H171963   0.716   3.222  18.447
 7165TIP3    H271964   0.701   3.361  18.393
 7166TIP3   OH271965   0.962   3.436  18.435
 7166TIP3    H171966   0.884   3.492  18.443
 7166TIP3    H271967   1.021   3.487  18.378
 7167TIP3   OH271968   0.704   3.543  18.438
 7167TIP3    H171969   0.712   3.622  18.383
 7167TIP3    H271970   0.682   3.580  18.524
 7168TIP3   OH271971   0.396   3.260  18.303
 7168TIP3    H171972   0.462   3.325  18.333
 7168TIP3    H271973   0.450   3.214  18.238
 7169TIP3   OH271974   1.095   3.182  18.113
 7169TIP3    H171975   1.073   3.192  18.207
 7169TIP3    H271976   1.077   3.087  18.098
 7170TIP3   OH271977   0.786   2.702  18.190
 7170TIP3    H171978   0.768   2.677  18.100
 7170TIP3    H271979   0.882   2.701  18.204
 7171TIP3   OH271980   0.128   3.229  18.250
 7171TIP3    H171981   0.223   3.239  18.274
 7171TIP3    H271982   0.134   3.161  18.183
 7172TIP3   OH271983   1.668   2.536  18.215
 7172TIP3    H171984   1.679   2.601  18.144
 7172TIP3    H271985   1.653   2.452  18.167
 7173TIP3   OH271986   1.594   2.273  18.126
 7173TIP3    H171987   1.656   2.240  18.196
 7173TIP3    H271988   1.509   2.237  18.156
 7174TIP3   OH271989   1.802   2.172  18.276
 7174TIP3    H171990   1.844   2.090  18.241
 7174TIP3    H271991   1.877   2.230  18.292
 7175TIP3   OH271992   0.328   3.659  18.184
 7175TIP3    H171993   0.303   3.687  18.274
 7175TIP3    H271994   0.407   3.603  18.200
 7176TIP3   OH271995   3.175   2.764  18.414
 7176TIP3    H171996   3.226   2.785  18.492
 7176TIP3    H271997   3.209   2.820  18.344
 7177TIP3   OH271998   2.560   2.299  18.153
 7177TIP3    H171999   2.521   2.261  18.233
 7177TIP3    H272000   2.487   2.344  18.107
 7178TIP3   OH272001   2.014   2.347  18.397
 7178TIP3    H172002   2.061   2.414  18.347
 7178TIP3    H272003   1.946   2.403  18.441
 7179TIP3   OH272004   3.148   2.323  18.300
 7179TIP3    H172005   3.053   2.333  18.298
 7179TIP3    H272006   3.178   2.403  18.347
 7180TIP3   OH272007   3.224   2.507  18.472
 7180TIP3    H172008   3.314   2.494  18.503
 7180TIP3    H272009   3.225   2.591  18.422
 7181TIP3   OH272010   3.705   2.525  18.449
 7181TIP3    H172011   3.650   2.491  18.376
 7181TIP3    H272012   3.720   2.616  18.418
 7182TIP3   OH272013   2.285   3.257  18.302
 7182TIP3    H172014   2.348   3.324  18.331
 7182TIP3    H272015   2.334   3.210  18.235
 7183TIP3   OH272016   3.609   2.929  18.144
 7183TIP3    H172017   3.583   2.889  18.061
 7183TIP3    H272018   3.605   3.025  18.121
 7184TIP3   OH272019   2.653   3.769  18.300
 7184TIP3    H172020   2.749   3.774  18.314
 7184TIP3    H272021   2.633   3.832  18.232
 7185TIP3   OH272022   2.010   3.233  18.240
 7185TIP3    H172023   2.102   3.234  18.273
 7185TIP3    H272024   2.013   3.155  18.180
 7186TIP3   OH272025   3.718   2.813  18.362
 7186TIP3    H172026   3.666   2.850  18.288
 7186TIP3    H272027   3.715   2.883  18.428
 7187TIP3   OH272028   3.556   2.541  18.214
 7187TIP3    H172029   3.563   2.603  18.141
 7187TIP3    H272030   3.537   2.456  18.170
 7188TIP3   OH272031   3.478   2.279  18.129
 7188TIP3    H172032   3.538   2.239  18.195
 7188TIP3    H272033   3.395   2.236  18.152
 7189TIP3   OH272034   3.690   2.168  18.275
 7189TIP3    H172035   3.734   2.092  18.237
 7189TIP3    H272036   3.760   2.233  18.293
 7190TIP3   OH272037   2.050   1.974  18.390
 7190TIP3    H172038   2.087   2.040  18.332
 7190TIP3    H272039   1.982   2.024  18.437
 7191TIP3   OH272040   2.232   2.165  18.233
 7191TIP3    H172041   2.282   2.100  18.181
 7191TIP3    H272042   2.289   2.193  18.305
 7192TIP3   OH272043   2.923   3.692  18.320
 7192TIP3    H172044   3.012   3.722  18.303
 7192TIP3    H272045   2.899   3.641  18.241
 7193TIP3   OH272046   2.216   3.659  18.185
 7193TIP3    H172047   2.189   3.685  18.274
 7193TIP3    H272048   2.294   3.602  18.199
 7194TIP3   OH272049   4.830   2.682  18.252
 7194TIP3    H172050   4.900   2.684  18.319
 7194TIP3    H272051   4.866   2.613  18.194
 7195TIP3   OH272052   5.059   2.766  18.413
 7195TIP3    H172053   5.115   2.786  18.489
 7195TIP3    H272054   5.100   2.817  18.340
 7196TIP3   OH272055   5.431   1.949  18.409
 7196TIP3    H172056   5.336   1.952  18.425
 7196TIP3    H272057   5.447   2.030  18.359
 7197TIP3   OH272058   5.535   3.364  18.273
 7197TIP3    H172059   5.542   3.459  18.247
 7197TIP3    H272060   5.621   3.347  18.230
 7198TIP3   OH272061   5.205   2.870  18.188
 7198TIP3    H172062   5.203   2.851  18.091
 7198TIP3    H272063   5.291   2.914  18.195
 7199TIP3   OH272064   4.764   2.261  18.245
 7199TIP3    H172065   4.730   2.263  18.336
 7199TIP3    H272066   4.735   2.173  18.216
 7200TIP3   OH272067   5.033   2.317  18.303
 7200TIP3    H172068   4.937   2.328  18.296
 7200TIP3    H272069   5.062   2.400  18.346
 7201TIP3   OH272070   5.106   2.512  18.473
 7201TIP3    H172071   5.196   2.495  18.503
 7201TIP3    H272072   5.114   2.591  18.417
 7202TIP3   OH272073   3.971   2.807  18.258
 7202TIP3    H172074   4.030   2.866  18.310
 7202TIP3    H272075   3.884   2.831  18.294
 7203TIP3   OH272076   5.621   3.656  18.330
 7203TIP3    H172077   5.681   3.711  18.277
 7203TIP3    H272078   5.540   3.713  18.329
 7204TIP3   OH272079   4.568   3.318  18.115
 7204TIP3    H172080   4.595   3.240  18.064
 7204TIP3    H272081   4.543   3.278  18.200
 7205TIP3   OH272082   4.460   3.267  18.366
 7205TIP3    H172083   4.486   3.220  18.446
 7205TIP3    H272084   4.472   3.360  18.394
 7206TIP3   OH272085   4.109   2.995  18.411
 7206TIP3    H172086   4.044   3.030  18.471
 7206TIP3    H272087   4.163   3.073  18.385
 7207TIP3   OH272088   4.470   3.543  18.436
 7207TIP3    H172089   4.490   3.622  18.384
 7207TIP3    H272090   4.460   3.578  18.526
 7208TIP3   OH272091   4.169   3.258  18.303
 7208TIP3    H172092   4.234   3.323  18.333
 7208TIP3    H272093   4.222   3.213  18.234
 7209TIP3   OH272094   4.003   2.527  18.204
 7209TIP3    H172095   4.001   2.618  18.240
 7209TIP3    H272096   3.910   2.508  18.195
 7210TIP3   OH272097   4.323   3.068  18.135
 7210TIP3    H172098   4.342   2.994  18.195
 7210TIP3    H272099   4.399   3.062  18.075
 7211TIP3   OH272100   4.844   3.178  18.108
 7211TIP3    H172101   4.837   3.196  18.202
 7211TIP3    H272102   4.844   3.080  18.101
 7212TIP3   OH272103   4.443   2.870  18.370
 7212TIP3    H172104   4.398   2.823  18.440
 7212TIP3    H272105   4.473   2.803  18.305
 7213TIP3   OH272106   4.558   2.699  18.196
 7213TIP3    H172107   4.540   2.687  18.100
 7213TIP3    H272108   4.655   2.703  18.202
 7214TIP3   OH272109   5.495   2.932  18.142
 7214TIP3    H172110   5.465   2.894  18.059
 7214TIP3    H272111   5.494   3.028  18.122
 7215TIP3   OH272112   3.901   3.225  18.249
 7215TIP3    H172113   3.996   3.234  18.271
 7215TIP3    H272114   3.899   3.157  18.180
 7216TIP3   OH272115   5.434   2.539  18.215
 7216TIP3    H172116   5.453   2.600  18.145
 7216TIP3    H272117   5.428   2.454  18.169
 7217TIP3   OH272118   5.367   2.279  18.126
 7217TIP3    H172119   5.426   2.239  18.190
 7217TIP3    H272120   5.282   2.239  18.148
 7218TIP3   OH272121   4.102   3.661  18.182
 7218TIP3    H172122   4.072   3.681  18.272
 7218TIP3    H272123   4.181   3.605  18.197
 7219TIP3   OH272124   6.721   2.682  18.250
 7219TIP3    H172125   6.784   2.682  18.323
 7219TIP3    H272126   6.754   2.611  18.194
 7220TIP3   OH272127   6.946   2.765  18.414
 7220TIP3    H172128   6.999   2.783  18.492
 7220TIP3    H272129   6.985   2.821  18.346
 7221TIP3   OH272130   7.316   1.944  18.408
 7221TIP3    H172131   7.221   1.952  18.424
 7221TIP3    H272132   7.335   2.022  18.354
 7222TIP3   OH272133   7.428   3.383  18.228
 7222TIP3    H172134   7.441   3.476  18.256
 7222TIP3    H272135   7.518   3.349  18.234
 7223TIP3   OH272136   6.967   3.650  18.308
 7223TIP3    H172137   7.012   3.581  18.255
 7223TIP3    H272138   6.980   3.617  18.397
 7224TIP3   OH272139   6.647   2.262  18.244
 7224TIP3    H172140   6.620   2.262  18.337
 7224TIP3    H272141   6.619   2.174  18.216
 7225TIP3   OH272142   6.919   2.320  18.301
 7225TIP3    H172143   6.823   2.331  18.295
 7225TIP3    H272144   6.949   2.401  18.347
 7226TIP3   OH272145   6.991   2.506  18.470
 7226TIP3    H172146   7.080   2.493  18.508
 7226TIP3    H272147   6.995   2.591  18.424
 7227TIP3   OH272148   6.742   3.183  18.395
 7227TIP3    H172149   6.711   3.268  18.429
 7227TIP3    H272150   6.672   3.120  18.413
 7228TIP3   OH272151   7.049   3.199  18.271
 7228TIP3    H172152   7.083   3.170  18.355
 7228TIP3    H272153   6.953   3.197  18.283
 7229TIP3   OH272154   7.499   3.647  18.299
 7229TIP3    H172155   7.571   3.707  18.278
 7229TIP3    H272156   7.429   3.709  18.324
 7230TIP3   OH272157   6.055   3.266  18.302
 7230TIP3    H172158   6.124   3.325  18.332
 7230TIP3    H272159   6.102   3.214  18.235
 7231TIP3   OH272160   7.120   3.479  18.155
 7231TIP3    H172161   7.153   3.400  18.202
 7231TIP3    H272162   7.195   3.505  18.101
 7232TIP3   OH272163   6.750   3.182  18.113
 7232TIP3    H172164   6.732   3.195  18.207
 7232TIP3    H272165   6.734   3.086  18.099
 7233TIP3   OH272166   5.787   3.227  18.256
 7233TIP3    H172167   5.883   3.230  18.269
 7233TIP3    H272168   5.781   3.164  18.181
 7234TIP3   OH272169   5.990   3.655  18.186
 7234TIP3    H172170   5.961   3.690  18.272
 7234TIP3    H272171   6.069   3.603  18.205
 7235TIP3   OH272172   8.079   2.587  18.293
 7235TIP3    H172173   8.026   2.542  18.227
 7235TIP3    H272174   8.165   2.598  18.255
 7236TIP3   OH272175  -0.047   2.246  18.373
 7236TIP3    H172176  -0.040   2.316  18.437
 7236TIP3    H272177   0.022   2.187  18.410
 7237TIP3   OH272178   7.941   3.271  18.297
 7237TIP3    H172179   8.012   3.325  18.330
 7237TIP3    H272180   7.989   3.210  18.238
 7238TIP3   OH272181   8.065   3.065  18.149
 7238TIP3    H172182   8.099   2.997  18.208
 7238TIP3    H272183   8.146   3.072  18.097
 7239TIP3   OH272184   7.702   1.969  18.386
 7239TIP3    H172185   7.751   2.035  18.332
 7239TIP3    H272186   7.644   2.026  18.436
 7240TIP3   OH272187   7.885   2.158  18.241
 7240TIP3    H172188   7.939   2.103  18.182
 7240TIP3    H272189   7.956   2.194  18.300
 7241TIP3   OH272190   1.059   4.560  18.254
 7241TIP3    H172191   1.128   4.567  18.320
 7241TIP3    H272192   1.097   4.496  18.192
 7242TIP3   OH272193   0.673   4.196  18.159
 7242TIP3    H172194   0.629   4.147  18.231
 7242TIP3    H272195   0.600   4.227  18.105
 7243TIP3   OH272196   0.125   4.228  18.398
 7243TIP3    H172197   0.182   4.289  18.348
 7243TIP3    H272198   0.066   4.288  18.442
 7244TIP3   OH272199   0.540   4.465  18.300
 7244TIP3    H172200   0.486   4.432  18.227
 7244TIP3    H272201   0.622   4.486  18.253
 7245TIP3   OH272202   1.331   4.399  18.471
 7245TIP3    H172203   1.418   4.376  18.505
 7245TIP3    H272204   1.346   4.473  18.413
 7246TIP3   OH272205   1.089   5.068  18.397
 7246TIP3    H172206   1.051   5.152  18.427
 7246TIP3    H272207   1.016   5.007  18.410
 7247TIP3   OH272208   1.821   4.412  18.450
 7247TIP3    H172209   1.767   4.377  18.377
 7247TIP3    H272210   1.833   4.503  18.417
 7248TIP3   OH272211   0.712   5.153  18.361
 7248TIP3    H172212   0.711   5.101  18.443
 7248TIP3    H272213   0.700   5.242  18.393
 7249TIP3   OH272214   0.963   5.318  18.431
 7249TIP3    H172215   0.891   5.379  18.444
 7249TIP3    H272216   1.023   5.375  18.380
 7250TIP3   OH272217   0.578   4.100  18.388
 7250TIP3    H172218   0.560   4.183  18.436
 7250TIP3    H272219   0.662   4.075  18.424
 7251TIP3   OH272220   0.231   4.413  18.214
 7251TIP3    H172221   0.227   4.506  18.237
 7251TIP3    H272222   0.143   4.388  18.186
 7252TIP3   OH272223   1.006   5.386  18.132
 7252TIP3    H172224   0.938   5.324  18.162
 7252TIP3    H272225   1.080   5.327  18.121
 7253TIP3   OH272226   0.677   4.758  18.376
 7253TIP3    H172227   0.626   4.707  18.439
 7253TIP3    H272228   0.701   4.693  18.307
 7254TIP3   OH272229   0.779   4.579  18.198
 7254TIP3    H172230   0.765   4.571  18.102
 7254TIP3    H272231   0.877   4.592  18.203
 7255TIP3   OH272232   1.833   4.699  18.361
 7255TIP3    H172233   1.779   4.738  18.291
 7255TIP3    H272234   1.830   4.767  18.431
 7256TIP3   OH272235   1.670   4.424  18.215
 7256TIP3    H172236   1.681   4.488  18.144
 7256TIP3    H272237   1.656   4.341  18.169
 7257TIP3   OH272238   0.190   3.861  18.410
 7257TIP3    H172239   0.211   3.917  18.335
 7257TIP3    H272240   0.105   3.902  18.433
 7258TIP3   OH272241   0.345   4.049  18.237
 7258TIP3    H172242   0.398   3.984  18.188
 7258TIP3    H272243   0.407   4.078  18.306
 7259TIP3   OH272244   3.171   4.656  18.414
 7259TIP3    H172245   3.227   4.671  18.490
 7259TIP3    H272246   3.214   4.702  18.340
 7260TIP3   OH272247   3.545   3.832  18.409
 7260TIP3    H172248   3.450   3.841  18.426
 7260TIP3    H272249   3.566   3.912  18.358
 7261TIP3   OH272250   3.654   5.266  18.232
 7261TIP3    H172251   3.671   5.360  18.254
 7261TIP3    H272252   3.747   5.236  18.235
 7262TIP3   OH272253   3.207   5.544  18.304
 7262TIP3    H172254   3.237   5.465  18.256
 7262TIP3    H272255   3.200   5.511  18.394
 7263TIP3   OH272256   3.320   4.757  18.191
 7263TIP3    H172257   3.316   4.737  18.094
 7263TIP3    H272258   3.407   4.800  18.196
 7264TIP3   OH272259   2.015   4.234  18.404
 7264TIP3    H172260   2.064   4.296  18.347
 7264TIP3    H272261   1.945   4.292  18.438
 7265TIP3   OH272262   3.143   4.197  18.304
 7265TIP3    H172263   3.050   4.221  18.298
 7265TIP3    H272264   3.176   4.282  18.345
 7266TIP3   OH272265   3.227   4.387  18.462
 7266TIP3    H172266   3.311   4.382  18.509
 7266TIP3    H272267   3.222   4.476  18.423
 7267TIP3   OH272268   2.087   4.694  18.258
 7267TIP3    H172269   2.146   4.754  18.305
 7267TIP3    H272270   2.000   4.718  18.295
 7268TIP3   OH272271   3.282   5.097  18.273
 7268TIP3    H172272   3.310   5.053  18.354
 7268TIP3    H272273   3.186   5.081  18.281
 7269TIP3   OH272274   3.725   5.534  18.291
 7269TIP3    H172275   3.801   5.594  18.289
 7269TIP3    H272276   3.657   5.595  18.326
 7270TIP3   OH272277   2.284   5.145  18.305
 7270TIP3    H172278   2.346   5.212  18.334
 7270TIP3    H272279   2.330   5.099  18.235
 7271TIP3   OH272280   2.116   4.411  18.218
 7271TIP3    H172281   2.115   4.507  18.235
 7271TIP3    H272282   2.029   4.390  18.187
 7272TIP3   OH272283   3.348   5.363  18.152
 7272TIP3    H172284   3.380   5.286  18.201
 7272TIP3    H272285   3.424   5.388  18.098
 7273TIP3   OH272286   3.603   4.818  18.143
 7273TIP3    H172287   3.582   4.776  18.059
 7273TIP3    H272288   3.608   4.912  18.121
 7274TIP3   OH272289   3.482   4.165  18.128
 7274TIP3    H172290   3.542   4.126  18.194
 7274TIP3    H272291   3.397   4.124  18.147
 7275TIP3   OH272292   3.692   4.051  18.289
 7275TIP3    H172293   3.729   3.978  18.234
 7275TIP3    H272294   3.760   4.119  18.285
 7276TIP3   OH272295   2.045   3.856  18.388
 7276TIP3    H172296   2.093   3.921  18.335
 7276TIP3    H272297   1.985   3.911  18.438
 7277TIP3   OH272298   2.231   4.050  18.232
 7277TIP3    H172299   2.283   3.984  18.183
 7277TIP3    H272300   2.288   4.081  18.304
 7278TIP3   OH272301   5.430   3.831  18.399
 7278TIP3    H172302   5.341   3.842  18.431
 7278TIP3    H272303   5.452   3.917  18.359
 7279TIP3   OH272304   5.599   4.411  18.444
 7279TIP3    H172305   5.536   4.374  18.378
 7279TIP3    H272306   5.597   4.505  18.420
 7280TIP3   OH272307   5.611   5.535  18.290
 7280TIP3    H172308   5.687   5.594  18.284
 7280TIP3    H272309   5.543   5.594  18.328
 7281TIP3   OH272310   4.345   4.101  18.395
 7281TIP3    H172311   4.338   4.187  18.436
 7281TIP3    H272312   4.434   4.074  18.421
 7282TIP3   OH272313   3.897   5.118  18.244
 7282TIP3    H172314   3.988   5.118  18.276
 7282TIP3    H272315   3.900   5.043  18.181
 7283TIP3   OH272316   5.448   4.418  18.215
 7283TIP3    H172317   5.448   4.489  18.149
 7283TIP3    H272318   5.424   4.337  18.165
 7284TIP3   OH272319   5.367   4.162  18.128
 7284TIP3    H172320   5.428   4.125  18.194
 7284TIP3    H272321   5.281   4.123  18.151
 7285TIP3   OH272322   5.572   4.055  18.282
 7285TIP3    H172323   5.615   3.982  18.233
 7285TIP3    H272324   5.646   4.117  18.294
 7286TIP3   OH272325   3.932   3.855  18.391
 7286TIP3    H172326   3.977   3.918  18.332
 7286TIP3    H272327   3.869   3.911  18.434
 7287TIP3   OH272328   4.118   4.049  18.241
 7287TIP3    H172329   4.164   3.985  18.186
 7287TIP3    H272330   4.187   4.075  18.305
 7288TIP3   OH272331   5.783   4.229  18.400
 7288TIP3    H172332   5.835   4.292  18.347
 7288TIP3    H272333   5.716   4.290  18.437
 7289TIP3   OH272334   6.197   4.466  18.298
 7289TIP3    H172335   6.142   4.429  18.227
 7289TIP3    H272336   6.277   4.489  18.249
 7290TIP3   OH272337   6.990   4.393  18.472
 7290TIP3    H172338   7.078   4.375  18.507
 7290TIP3    H272339   6.999   4.473  18.422
 7291TIP3   OH272340   6.465   5.204  18.121
 7291TIP3    H172341   6.478   5.128  18.063
 7291TIP3    H272342   6.424   5.161  18.200
 7292TIP3   OH272343   6.348   5.154  18.365
 7292TIP3    H172344   6.364   5.107  18.446
 7292TIP3    H272345   6.355   5.248  18.393
 7293TIP3   OH272346   5.998   4.881  18.418
 7293TIP3    H172347   5.928   4.917  18.470
 7293TIP3    H272348   6.045   4.958  18.382
 7294TIP3   OH272349   6.357   5.424  18.441
 7294TIP3    H172350   6.375   5.503  18.383
 7294TIP3    H272351   6.345   5.467  18.526
 7295TIP3   OH272352   6.226   4.099  18.397
 7295TIP3    H172353   6.222   4.189  18.431
 7295TIP3    H272354   6.318   4.076  18.415
 7296TIP3   OH272355   6.058   5.143  18.304
 7296TIP3    H172356   6.121   5.211  18.330
 7296TIP3    H272357   6.109   5.098  18.234
 7297TIP3   OH272358   5.891   4.413  18.213
 7297TIP3    H172359   5.888   4.506  18.237
 7297TIP3    H272360   5.801   4.390  18.188
 7298TIP3   OH272361   6.667   5.391  18.132
 7298TIP3    H172362   6.598   5.327  18.161
 7298TIP3    H272363   6.739   5.329  18.114
 7299TIP3   OH272364   6.211   4.958  18.137
 7299TIP3    H172365   6.225   4.881  18.194
 7299TIP3    H272366   6.285   4.947  18.074
 7300TIP3   OH272367   6.331   4.757  18.373
 7300TIP3    H172368   6.284   4.706  18.439
 7300TIP3    H272369   6.356   4.691  18.305
 7301TIP3   OH272370   6.440   4.579  18.199
 7301TIP3    H172371   6.420   4.571  18.103
 7301TIP3    H272372   6.535   4.592  18.199
 7302TIP3   OH272373   6.424   5.649  18.303
 7302TIP3    H172374   6.520   5.660  18.312
 7302TIP3    H272375   6.405   5.715  18.234
 7303TIP3   OH272376   7.325   4.421  18.210
 7303TIP3    H172377   7.337   4.491  18.145
 7303TIP3    H272378   7.311   4.338  18.166
 7304TIP3   OH272379   5.819   3.856  18.393
 7304TIP3    H172380   5.862   3.921  18.336
 7304TIP3    H272381   5.754   3.912  18.437
 7305TIP3   OH272382   5.999   4.051  18.235
 7305TIP3    H172383   6.053   3.988  18.183
 7305TIP3    H272384   6.066   4.078  18.303
 7306TIP3   OH272385   6.691   5.576  18.326
 7306TIP3    H172386   6.779   5.609  18.305
 7306TIP3    H272387   6.670   5.522  18.246
 7307TIP3   OH272388   5.984   5.549  18.185
 7307TIP3    H172389   5.959   5.568  18.276
 7307TIP3    H272390   6.062   5.491  18.198
 7308TIP3   OH272391   7.882   4.881  18.411
 7308TIP3    H172392   7.814   4.911  18.471
 7308TIP3    H272393   7.930   4.961  18.388
 7309TIP3   OH272394   7.943   5.144  18.305
 7309TIP3    H172395   8.004   5.214  18.329
 7309TIP3    H272396   7.991   5.101  18.233
 7310TIP3   OH272397   8.088   4.952  18.131
 7310TIP3    H172398   8.106   4.880  18.193
 7310TIP3    H272399   8.165   4.947  18.073
 7311TIP3   OH272400   7.677   5.119  18.244
 7311TIP3    H172401   7.769   5.124  18.275
 7311TIP3    H272402   7.676   5.044  18.186
 7312TIP3   OH272403   7.876   5.543  18.184
 7312TIP3    H172404   7.847   5.572  18.272
 7312TIP3    H272405   7.952   5.487  18.202
 7313TIP3   OH272406   1.288   6.537  18.414
 7313TIP3    H172407   1.342   6.560  18.488
 7313TIP3    H272408   1.327   6.586  18.339
 7314TIP3   OH272409   1.316   7.427  18.301
 7314TIP3    H172410   1.355   7.350  18.255
 7314TIP3    H272411   1.320   7.398  18.394
 7315TIP3   OH272412   1.434   6.642  18.190
 7315TIP3    H172413   1.427   6.620  18.094
 7315TIP3    H272414   1.520   6.684  18.196
 7316TIP3   OH272415   0.146   6.142  18.420
 7316TIP3    H172416   0.185   6.189  18.344
 7316TIP3    H272417   0.063   6.188  18.432
 7317TIP3   OH272418   1.335   6.278  18.476
 7317TIP3    H172419   1.426   6.264  18.502
 7317TIP3    H272420   1.337   6.356  18.416
 7318TIP3   OH272421   1.084   6.952  18.391
 7318TIP3    H172422   1.054   7.037  18.430
 7318TIP3    H272423   1.014   6.890  18.414
 7319TIP3   OH272424   1.819   6.299  18.452
 7319TIP3    H172425   1.768   6.264  18.377
 7319TIP3    H272426   1.831   6.391  18.419
 7320TIP3   OH272427   0.196   6.579  18.259
 7320TIP3    H172428   0.259   6.636  18.305
 7320TIP3    H272429   0.112   6.608  18.296
 7321TIP3   OH272430   1.396   6.980  18.274
 7321TIP3    H172431   1.424   6.940  18.357
 7321TIP3    H272432   1.300   6.966  18.281
 7322TIP3   OH272433   0.811   7.088  18.125
 7322TIP3    H172434   0.820   7.015  18.063
 7322TIP3    H272435   0.769   7.047  18.200
 7323TIP3   OH272436   0.967   7.210  18.438
 7323TIP3    H172437   0.886   7.263  18.444
 7323TIP3    H272438   1.019   7.264  18.377
 7324TIP3   OH272439   0.227   6.295  18.221
 7324TIP3    H172440   0.230   6.392  18.231
 7324TIP3    H272441   0.145   6.274  18.178
 7325TIP3   OH272442   1.009   7.277  18.137
 7325TIP3    H172443   0.939   7.210  18.158
 7325TIP3    H272444   1.079   7.218  18.106
 7326TIP3   OH272445   1.466   7.248  18.148
 7326TIP3    H172446   1.493   7.172  18.202
 7326TIP3    H272447   1.543   7.278  18.099
 7327TIP3   OH272448   1.098   6.952  18.113
 7327TIP3    H172449   1.076   6.965  18.207
 7327TIP3    H272450   1.078   6.858  18.102
 7328TIP3   OH272451   1.716   6.700  18.145
 7328TIP3    H172452   1.698   6.661  18.058
 7328TIP3    H272453   1.727   6.795  18.124
 7329TIP3   OH272454   0.768   7.539  18.305
 7329TIP3    H172455   0.865   7.545  18.310
 7329TIP3    H272456   0.748   7.598  18.232
 7330TIP3   OH272457   0.125   6.996  18.252
 7330TIP3    H172458   0.218   7.009  18.274
 7330TIP3    H272459   0.132   6.932  18.181
 7331TIP3   OH272460   1.830   6.579  18.365
 7331TIP3    H172461   1.785   6.618  18.288
 7331TIP3    H272462   1.835   6.654  18.425
 7332TIP3   OH272463   1.677   6.308  18.215
 7332TIP3    H172464   1.675   6.374  18.145
 7332TIP3    H272465   1.650   6.226  18.169
 7333TIP3   OH272466   1.593   6.058  18.132
 7333TIP3    H172467   1.657   6.009  18.190
 7333TIP3    H272468   1.514   6.006  18.149
 7334TIP3   OH272469   1.804   5.948  18.275
 7334TIP3    H172470   1.843   5.865  18.242
 7334TIP3    H272471   1.881   6.003  18.298
 7335TIP3   OH272472   1.035   7.463  18.325
 7335TIP3    H172473   1.126   7.487  18.303
 7335TIP3    H272474   1.014   7.410  18.245
 7336TIP3   OH272475   0.325   7.429  18.186
 7336TIP3    H172476   0.303   7.459  18.276
 7336TIP3    H272477   0.406   7.375  18.200
 7337TIP3   OH272478   2.944   6.446  18.253
 7337TIP3    H172479   3.015   6.454  18.319
 7337TIP3    H272480   2.983   6.381  18.193
 7338TIP3   OH272481   3.173   6.534  18.413
 7338TIP3    H172482   3.227   6.560  18.488
 7338TIP3    H272483   3.211   6.586  18.340
 7339TIP3   OH272484   3.542   5.717  18.408
 7339TIP3    H172485   3.447   5.725  18.425
 7339TIP3    H272486   3.563   5.798  18.360
 7340TIP3   OH272487   3.198   7.428  18.300
 7340TIP3    H172488   3.236   7.351  18.255
 7340TIP3    H272489   3.203   7.398  18.392
 7341TIP3   OH272490   3.319   6.638  18.190
 7341TIP3    H172491   3.316   6.623  18.092
 7341TIP3    H272492   3.404   6.684  18.197
 7342TIP3   OH272493   2.013   6.118  18.400
 7342TIP3    H172494   2.066   6.180  18.349
 7342TIP3    H272495   1.945   6.175  18.440
 7343TIP3   OH272496   2.426   6.349  18.299
 7343TIP3    H172497   2.373   6.314  18.225
 7343TIP3    H272498   2.508   6.374  18.254
 7344TIP3   OH272499   3.219   6.278  18.472
 7344TIP3    H172500   3.310   6.265  18.502
 7344TIP3    H272501   3.225   6.358  18.416
 7345TIP3   OH272502   2.970   6.950  18.391
 7345TIP3    H172503   2.939   7.036  18.426
 7345TIP3    H272504   2.898   6.891  18.414
 7346TIP3   OH272505   3.706   6.296  18.451
 7346TIP3    H172506   3.651   6.264  18.377
 7346TIP3    H272507   3.719   6.388  18.419
 7347TIP3   OH272508   2.692   7.090  18.118
 7347TIP3    H172509   2.707   7.010  18.065
 7347TIP3    H272510   2.655   7.048  18.199
 7348TIP3   OH272511   2.582   7.039  18.363
 7348TIP3    H172512   2.594   6.991  18.445
 7348TIP3    H272513   2.581   7.132  18.395
 7349TIP3   OH272514   2.857   7.211  18.439
 7349TIP3    H172515   2.772   7.260  18.440
 7349TIP3    H272516   2.906   7.264  18.375
 7350TIP3   OH272517   2.597   7.312  18.440
 7350TIP3    H172518   2.600   7.393  18.385
 7350TIP3    H272519   2.567   7.350  18.524
 7351TIP3   OH272520   2.446   5.990  18.399
 7351TIP3    H172521   2.445   6.080  18.433
 7351TIP3    H272522   2.538   5.969  18.418
 7352TIP3   OH272523   2.119   6.296  18.209
 7352TIP3    H172524   2.117   6.388  18.238
 7352TIP3    H272525   2.027   6.275  18.190
 7353TIP3   OH272526   2.896   7.274  18.132
 7353TIP3    H172527   2.825   7.210  18.158
 7353TIP3    H272528   2.967   7.214  18.107
 7354TIP3   OH272529   2.986   6.952  18.114
 7354TIP3    H172530   2.956   6.963  18.206
 7354TIP3    H272531   2.960   6.858  18.099
 7355TIP3   OH272532   2.564   6.643  18.379
 7355TIP3    H172533   2.512   6.589  18.438
 7355TIP3    H272534   2.589   6.579  18.309
 7356TIP3   OH272535   2.666   6.468  18.195
 7356TIP3    H172536   2.652   6.457  18.099
 7356TIP3    H272537   2.764   6.476  18.205
 7357TIP3   OH272538   3.601   6.702  18.144
 7357TIP3    H172539   3.582   6.661  18.058
 7357TIP3    H272540   3.618   6.794  18.120
 7358TIP3   OH272541   2.654   7.536  18.304
 7358TIP3    H172542   2.750   7.548  18.309
 7358TIP3    H272543   2.635   7.600  18.234
 7359TIP3   OH272544   3.717   6.581  18.364
 7359TIP3    H172545   3.668   6.619  18.288
 7359TIP3    H272546   3.717   6.653  18.427
 7360TIP3   OH272547   3.556   6.306  18.216
 7360TIP3    H172548   3.566   6.371  18.146
 7360TIP3    H272549   3.538   6.223  18.168
 7361TIP3   OH272550   3.478   6.051  18.128
 7361TIP3    H172551   3.540   6.010  18.193
 7361TIP3    H272552   3.397   6.006  18.151
 7362TIP3   OH272553   3.689   5.938  18.281
 7362TIP3    H172554   3.731   5.863  18.234
 7362TIP3    H272555   3.761   6.003  18.292
 7363TIP3   OH272556   2.232   5.940  18.229
 7363TIP3    H172557   2.281   5.870  18.187
 7363TIP3    H272558   2.289   5.963  18.305
 7364TIP3   OH272559   2.918   7.461  18.324
 7364TIP3    H172560   3.009   7.489  18.303
 7364TIP3    H272561   2.898   7.411  18.242
 7365TIP3   OH272562   4.832   6.452  18.254
 7365TIP3    H172563   4.902   6.456  18.321
 7365TIP3    H272564   4.865   6.383  18.195
 7366TIP3   OH272565   5.060   6.537  18.414
 7366TIP3    H172566   5.115   6.561  18.489
 7366TIP3    H272567   5.097   6.589  18.340
 7367TIP3   OH272568   5.431   5.718  18.398
 7367TIP3    H172569   5.339   5.723  18.426
 7367TIP3    H272570   5.449   5.806  18.359
 7368TIP3   OH272571   5.202   6.647  18.185
 7368TIP3    H172572   5.205   6.622  18.090
 7368TIP3    H272573   5.291   6.684  18.198
 7369TIP3   OH272574   4.762   6.028  18.245
 7369TIP3    H172575   4.733   6.032  18.337
 7369TIP3    H272576   4.734   5.940  18.218
 7370TIP3   OH272577   3.894   6.113  18.402
 7370TIP3    H172578   3.943   6.177  18.350
 7370TIP3    H272579   3.827   6.175  18.440
 7371TIP3   OH272580   5.030   6.086  18.304
 7371TIP3    H172581   4.935   6.102  18.297
 7371TIP3    H272582   5.064   6.168  18.346
 7372TIP3   OH272583   5.105   6.282  18.473
 7372TIP3    H172584   5.196   6.264  18.501
 7372TIP3    H272585   5.113   6.362  18.418
 7373TIP3   OH272586   5.586   6.294  18.452
 7373TIP3    H172587   5.537   6.262  18.375
 7373TIP3    H272588   5.606   6.385  18.420
 7374TIP3   OH272589   3.970   6.577  18.261
 7374TIP3    H172590   4.030   6.637  18.311
 7374TIP3    H272591   3.882   6.606  18.292
 7375TIP3   OH272592   4.108   6.769  18.411
 7375TIP3    H172593   4.042   6.805  18.471
 7375TIP3    H272594   4.162   6.846  18.386
 7376TIP3   OH272595   4.172   7.026  18.303
 7376TIP3    H172596   4.229   7.100  18.330
 7376TIP3    H272597   4.223   6.984  18.232
 7377TIP3   OH272598   4.328   6.843  18.139
 7377TIP3    H172599   4.343   6.765  18.195
 7377TIP3    H272600   4.402   6.833  18.075
 7378TIP3   OH272601   4.438   6.643  18.364
 7378TIP3    H172602   4.402   6.595  18.440
 7378TIP3    H272603   4.475   6.573  18.306
 7379TIP3   OH272604   4.553   6.456  18.194
 7379TIP3    H172605   4.539   6.458  18.098
 7379TIP3    H272606   4.648   6.477  18.204
 7380TIP3   OH272607   5.482   6.705  18.143
 7380TIP3    H172608   5.470   6.661  18.058
 7380TIP3    H272609   5.499   6.797  18.118
 7381TIP3   OH272610   4.541   7.546  18.309
 7381TIP3    H172611   4.637   7.547  18.311
 7381TIP3    H272612   4.518   7.601  18.232
 7382TIP3   OH272613   3.897   6.998  18.246
 7382TIP3    H172614   3.990   7.006  18.273
 7382TIP3    H272615   3.900   6.926  18.180
 7383TIP3   OH272616   5.601   6.581  18.365
 7383TIP3    H172617   5.557   6.620  18.288
 7383TIP3    H272618   5.606   6.654  18.428
 7384TIP3   OH272619   5.436   6.308  18.215
 7384TIP3    H172620   5.453   6.370  18.144
 7384TIP3    H272621   5.424   6.223  18.168
 7385TIP3   OH272622   5.366   6.053  18.128
 7385TIP3    H172623   5.426   6.011  18.192
 7385TIP3    H272624   5.281   6.009  18.147
 7386TIP3   OH272625   5.577   5.936  18.288
 7386TIP3    H172626   5.615   5.865  18.232
 7386TIP3    H272627   5.641   6.008  18.284
 7387TIP3   OH272628   3.928   5.742  18.384
 7387TIP3    H172629   3.980   5.808  18.337
 7387TIP3    H272630   3.873   5.797  18.442
 7388TIP3   OH272631   7.090   6.640  18.182
 7388TIP3    H172632   7.092   6.625  18.087
 7388TIP3    H272633   7.173   6.684  18.200
 7389TIP3   OH272634   6.645   6.030  18.248
 7389TIP3    H172635   6.621   6.031  18.341
 7389TIP3    H272636   6.618   5.942  18.217
 7390TIP3   OH272637   6.923   6.090  18.305
 7390TIP3    H172638   6.827   6.099  18.294
 7390TIP3    H272639   6.948   6.176  18.342
 7391TIP3   OH272640   6.350   7.045  18.364
 7391TIP3    H172641   6.368   6.993  18.443
 7391TIP3    H272642   6.357   7.136  18.397
 7392TIP3   OH272643   6.356   7.315  18.437
 7392TIP3    H172644   6.371   7.397  18.383
 7392TIP3    H272645   6.341   7.351  18.525
 7393TIP3   OH272646   6.054   7.033  18.304
 7393TIP3    H172647   6.120   7.096  18.336
 7393TIP3    H272648   6.107   6.985  18.239
 7394TIP3   OH272649   6.426   7.539  18.302
 7394TIP3    H172650   6.520   7.553  18.308
 7394TIP3    H272651   6.401   7.599  18.232
 7395TIP3   OH272652   5.784   6.998  18.241
 7395TIP3    H172653   5.876   7.006  18.273
 7395TIP3    H272654   5.787   6.925  18.180
 7396TIP3   OH272655   5.820   5.745  18.393
 7396TIP3    H172656   5.862   5.804  18.331
 7396TIP3    H272657   5.751   5.795  18.435
 7397TIP3   OH272658   5.980   7.425  18.183
 7397TIP3    H172659   5.961   7.455  18.274
 7397TIP3    H272660   6.064   7.378  18.195
 7398TIP3   OH272661   8.082   6.349  18.299
 7398TIP3    H172662   8.028   6.317  18.224
 7398TIP3    H272663   8.163   6.373  18.254
 7399TIP3   OH272664   7.885   6.768  18.417
 7399TIP3    H172665   7.814   6.801  18.472
 7399TIP3    H272666   7.927   6.849  18.385
 7400TIP3   OH272667  -0.041   5.968  18.412
 7400TIP3    H172668  -0.042   6.063  18.425
 7400TIP3    H272669   0.056   5.958  18.414
 7401TIP3   OH272670   7.944   7.028  18.303
 7401TIP3    H172671   8.006   7.097  18.330
 7401TIP3    H272672   7.993   6.980  18.233
 7402TIP3   OH272673   8.066   6.839  18.149
 7402TIP3    H172674   8.096   6.767  18.205
 7402TIP3    H272675   8.147   6.844  18.095
 7403TIP3   OH272676   7.892   5.940  18.230
 7403TIP3    H172677   7.938   5.870  18.182
 7403TIP3    H272678   7.953   5.960  18.302
 7404TIP3   OH272679   7.821   7.394  18.237
 7404TIP3    H172680   7.825   7.476  18.288
 7404TIP3    H272681   7.911   7.364  18.263
 7405TIP3   OH272682   0.967   7.913  18.253
 7405TIP3    H172683   0.955   7.907  18.347
 7405TIP3    H272684   0.954   7.824  18.216
 7406TIP3   OH272685   0.674   7.956  18.155
 7406TIP3    H172686   0.630   7.917  18.234
 7406TIP3    H272687   0.601   7.998  18.107
 7407TIP3   OH272688   0.166   8.015  18.419
 7407TIP3    H172689   0.187   8.077  18.347
 7407TIP3    H272690   0.086   8.064  18.445
 7408TIP3   OH272691   1.307   7.926  18.419
 7408TIP3    H172692   1.225   7.943  18.368
 7408TIP3    H272693   1.339   8.014  18.384
 7409TIP3   OH272694   0.574   7.871  18.395
 7409TIP3    H172695   0.564   7.959  18.437
 7409TIP3    H272696   0.662   7.845  18.424
 7410TIP3   OH272697   1.600   7.929  18.123
 7410TIP3    H172698   1.653   7.899  18.198
 7410TIP3    H272699   1.511   7.897  18.146
 7411TIP3   OH272700   0.188   7.630  18.409
 7411TIP3    H172701   0.210   7.690  18.336
 7411TIP3    H272702   0.104   7.667  18.440
 7412TIP3   OH272703   0.358   7.827  18.227
 7412TIP3    H172704   0.402   7.752  18.184
 7412TIP3    H272705   0.410   7.842  18.307
 7413TIP3   OH272706   2.883   7.915  18.254
 7413TIP3    H172707   2.844   7.917  18.341
 7413TIP3    H272708   2.846   7.834  18.215
 7414TIP3   OH272709   2.559   7.961  18.160
 7414TIP3    H172710   2.516   7.916  18.234
 7414TIP3    H272711   2.487   7.993  18.104
 7415TIP3   OH272712   3.151   7.976  18.310
 7415TIP3    H172713   3.056   7.986  18.295
 7415TIP3    H272714   3.176   8.063  18.343
 7416TIP3   OH272715   3.478   7.936  18.127
 7416TIP3    H172716   3.534   7.900  18.195
 7416TIP3    H272717   3.393   7.895  18.147
 7417TIP3   OH272718   4.806   7.876  18.279
 7417TIP3    H172719   4.742   7.918  18.338
 7417TIP3    H272720   4.746   7.825  18.222
 7418TIP3   OH272721   4.378   7.895  18.097
 7418TIP3    H172722   4.392   7.893  18.197
 7418TIP3    H272723   4.366   7.991  18.099
 7419TIP3   OH272724   3.900   8.011  18.409
 7419TIP3    H172725   3.941   8.067  18.344
 7419TIP3    H272726   3.825   8.062  18.439
 7420TIP3   OH272727   5.045   7.983  18.307
 7420TIP3    H172728   4.947   7.980  18.297
 7420TIP3    H272729   5.062   8.068  18.345
 7421TIP3   OH272730   4.332   7.803  18.307
 7421TIP3    H172731   4.309   7.893  18.340
 7421TIP3    H272732   4.392   7.792  18.383
 7422TIP3   OH272733   5.366   7.930  18.123
 7422TIP3    H172734   5.425   7.901  18.193
 7422TIP3    H272735   5.280   7.896  18.149
 7423TIP3   OH272736   7.311   7.604  18.414
 7423TIP3    H172737   7.218   7.617  18.424
 7423TIP3    H272738   7.339   7.679  18.358
 7424TIP3   OH272739   6.917   7.978  18.305
 7424TIP3    H172740   6.822   7.993  18.297
 7424TIP3    H272741   6.950   8.059  18.343
 7425TIP3   OH272742   7.247   7.944  18.133
 7425TIP3    H172743   7.313   7.899  18.190
 7425TIP3    H272744   7.168   7.890  18.145
 7426TIP3   OH272745   7.450   7.828  18.274
 7426TIP3    H172746   7.499   7.750  18.239
 7426TIP3    H272747   7.523   7.890  18.296
 7427TIP3   OH272748   5.819   7.626  18.392
 7427TIP3    H172749   5.860   7.688  18.332
 7427TIP3    H272750   5.753   7.679  18.438
 7428TIP3   OH272751   7.604   8.017  18.374
 7428TIP3    H172752   7.686   8.061  18.348
 7428TIP3    H272753   7.582   8.072  18.450
 7429TIP3   OH272754  -0.005   7.862  18.481
 7429TIP3    H172755  -0.034   7.948  18.442
 7429TIP3    H272756   0.088   7.871  18.462
 7430TIP3   OH272757   7.644   7.648  18.294
 7430TIP3    H172758   7.734   7.681  18.308
 7430TIP3    H272759   7.630   7.667  18.389
 7431TIP3   OH272760   7.815   7.786  18.365
 7431TIP3    H172761   7.863   7.744  18.290
 7431TIP3    H272762   7.882   7.860  18.364
 7432TIP3   OH272763   1.190   1.021  19.167
 7432TIP3    H172764   1.191   1.119  19.161
 7432TIP3    H272765   1.119   0.998  19.105
 7433TIP3   OH272766   1.075   0.946   0.045
 7433TIP3    H172767   1.074   0.879   0.114
 7433TIP3    H272768   1.045   0.896  -0.033
 7434TIP3   OH272769   0.182   0.933  19.307
 7434TIP3    H172770   0.171   0.841  19.336
 7434TIP3    H272771   0.219   0.936  19.219
 7435TIP3   OH272772   0.914   1.190   0.088
 7435TIP3    H172773   0.948   1.122   0.027
 7435TIP3    H272774   0.990   1.199   0.145
 7436TIP3   OH272775   1.781   0.344   0.170
 7436TIP3    H172776   1.791   0.410   0.241
 7436TIP3    H272777   1.823   0.390   0.096
 7437TIP3   OH272778   1.232   0.629   0.121
 7437TIP3    H172779   1.245   0.534   0.116
 7437TIP3    H272780   1.219   0.650   0.026
 7438TIP3   OH272781   0.544   0.440  19.316
 7438TIP3    H172782   0.553   0.525  19.268
 7438TIP3    H272783   0.502   0.381  19.250
 7439TIP3   OH272784   1.322   0.464  19.161
 7439TIP3    H172785   1.386   0.417  19.214
 7439TIP3    H272786   1.372   0.505  19.089
 7440TIP3   OH272787   0.232   0.688  19.387
 7440TIP3    H172788   0.280   0.619  19.436
 7440TIP3    H272789   0.216   0.647  19.300
 7441TIP3   OH272790   0.719   0.835  19.322
 7441TIP3    H172791   0.788   0.779  19.361
 7441TIP3    H272792   0.670   0.769  19.269
 7442TIP3   OH272793   1.822   0.498   0.391
 7442TIP3    H172794   1.751   0.562   0.382
 7442TIP3    H272795   1.819   0.473   0.483
 7443TIP3   OH272796   0.433   0.332   0.248
 7443TIP3    H172797   0.403   0.387   0.173
 7443TIP3    H272798   0.363   0.355   0.316
 7444TIP3   OH272799   1.158   1.281  19.077
 7444TIP3    H172800   1.135   1.253  18.987
 7444TIP3    H272801   1.130   1.375  19.080
 7445TIP3   OH272802   0.386   0.514   0.050
 7445TIP3    H172803   0.450   0.582   0.082
 7445TIP3    H272804   0.440   0.474  -0.021
 7446TIP3   OH272805   0.826   0.065  -0.022
 7446TIP3    H172806   0.821  -0.030  -0.006
 7446TIP3    H272807   0.745   0.095   0.023
 7447TIP3   OH272808   1.055   0.947  18.919
 7447TIP3    H172809   0.984   1.001  18.879
 7447TIP3    H272810   1.126   0.949  18.853
 7448TIP3   OH272811   1.060   0.793  18.623
 7448TIP3    H172812   1.132   0.796  18.688
 7448TIP3    H272813   1.095   0.730  18.559
 7449TIP3   OH272814   1.796   0.886   0.276
 7449TIP3    H172815   1.727   0.954   0.279
 7449TIP3    H272816   1.841   0.910   0.193
 7450TIP3   OH272817   1.394   0.959  19.008
 7450TIP3    H172818   1.326   0.992  19.071
 7450TIP3    H272819   1.447   0.899  19.063
 7451TIP3   OH272820   0.562   1.031  19.201
 7451TIP3    H172821   0.528   0.990  19.118
 7451TIP3    H272822   0.622   0.961  19.235
 7452TIP3   OH272823   0.704   1.375  19.464
 7452TIP3    H172824   0.687   1.313  19.393
 7452TIP3    H272825   0.772   1.331  19.517
 7453TIP3   OH272826   0.599   0.900   0.098
 7453TIP3    H172827   0.649   0.916   0.014
 7453TIP3    H272828   0.628   0.974   0.153
 7454TIP3   OH272829   0.693   1.351   0.562
 7454TIP3    H172830   0.655   1.425   0.613
 7454TIP3    H272831   0.623   1.333   0.497
 7455TIP3   OH272832   1.290   0.879  18.777
 7455TIP3    H172833   1.342   0.901  18.859
 7455TIP3    H272834   1.326   0.936  18.708
 7456TIP3   OH272835   1.058   1.557  19.127
 7456TIP3    H172836   1.105   1.589  19.204
 7456TIP3    H272837   1.002   1.631  19.104
 7457TIP3   OH272838   0.512   1.555   0.639
 7457TIP3    H172839   0.508   1.544   0.542
 7457TIP3    H272840   0.421   1.544   0.664
 7458TIP3   OH272841   0.462   0.932  18.962
 7458TIP3    H172842   0.434   1.011  18.910
 7458TIP3    H272843   0.393   0.867  18.944
 7459TIP3   OH272844   0.371   1.733  19.147
 7459TIP3    H172845   0.385   1.698  19.235
 7459TIP3    H272846   0.286   1.698  19.117
 7460TIP3   OH272847   0.562   0.151   0.073
 7460TIP3    H172848   0.472   0.150   0.033
 7460TIP3    H272849   0.554   0.235   0.120
 7461TIP3   OH272850   0.570   0.649   0.191
 7461TIP3    H172851   0.502   0.649   0.259
 7461TIP3    H272852   0.570   0.741   0.156
 7462TIP3   OH272853   0.570   0.668  19.152
 7462TIP3    H172854   0.477   0.641  19.142
 7462TIP3    H272855   0.609   0.632  19.070
 7463TIP3   OH272856   1.121   0.711  19.032
 7463TIP3    H172857   1.080   0.794  18.999
 7463TIP3    H272858   1.188   0.694  18.963
 7464TIP3   OH272859   1.028   0.737   0.707
 7464TIP3    H172860   0.976   0.656   0.731
 7464TIP3    H272861   1.114   0.718   0.748
 7465TIP3   OH272862   1.221   0.659  19.313
 7465TIP3    H172863   1.197   0.717  19.237
 7465TIP3    H272864   1.237   0.576  19.262
 7466TIP3   OH272865   0.044   0.395  19.199
 7466TIP3    H172866   0.081   0.380  19.288
 7466TIP3    H272867   0.075   0.328  19.137
 7467TIP3   OH272868   0.142   0.469  18.776
 7467TIP3    H172869   0.176   0.521  18.702
 7467TIP3    H272870   0.058   0.515  18.795
 7468TIP3   OH272871   0.826   0.424  19.257
 7468TIP3    H172872   0.733   0.420  19.286
 7468TIP3    H272873   0.874   0.401  19.338
 7469TIP3   OH272874   0.308   0.578  19.132
 7469TIP3    H172875   0.215   0.583  19.105
 7469TIP3    H272876   0.336   0.489  19.099
 7470TIP3   OH272877   0.669   0.577  18.902
 7470TIP3    H172878   0.765   0.588  18.923
 7470TIP3    H272879   0.648   0.646  18.837
 7471TIP3   OH272880   0.543   0.691  18.663
 7471TIP3    H172881   0.487   0.662  18.590
 7471TIP3    H272882   0.623   0.720  18.617
 7472TIP3   OH272883   0.952   0.693  19.442
 7472TIP3    H172884   1.013   0.641  19.389
 7472TIP3    H272885   0.941   0.638  19.521
 7473TIP3   OH272886   0.455   0.313  19.082
 7473TIP3    H172887   0.426   0.220  19.090
 7473TIP3    H272888   0.535   0.303  19.029
 7474TIP3   OH272889   0.816   0.529   0.210
 7474TIP3    H172890   0.733   0.579   0.222
 7474TIP3    H272891   0.871   0.558   0.284
 7475TIP3   OH272892   0.876   1.150  18.854
 7475TIP3    H172893   0.796   1.102  18.821
 7475TIP3    H272894   0.857   1.161  18.949
 7476TIP3   OH272895   1.333   0.620  18.840
 7476TIP3    H172896   1.423   0.607  18.874
 7476TIP3    H272897   1.338   0.700  18.785
 7477TIP3   OH272898   0.388   1.087  19.439
 7477TIP3    H172899   0.453   1.082  19.368
 7477TIP3    H272900   0.394   1.000  19.479
 7478TIP3   OH272901   1.084   1.298  18.760
 7478TIP3    H172902   1.048   1.382  18.793
 7478TIP3    H272903   1.012   1.234  18.778
 7479TIP3   OH272904   0.787   0.879   0.707
 7479TIP3    H172905   0.758   0.859   0.618
 7479TIP3    H272906   0.882   0.853   0.704
 7480TIP3   OH272907   1.819   1.220   0.620
 7480TIP3    H172908   1.736   1.251   0.582
 7480TIP3    H272909   1.878   1.221   0.541
 7481TIP3   OH272910   1.371   0.995   0.095
 7481TIP3    H172911   1.277   0.983   0.076
 7481TIP3    H272912   1.414   0.924   0.046
 7482TIP3   OH272913   0.197   0.916  18.635
 7482TIP3    H172914   0.264   0.981  18.665
 7482TIP3    H272915   0.115   0.958  18.658
 7483TIP3   OH272916   0.767   1.199  19.125
 7483TIP3    H172917   0.741   1.292  19.133
 7483TIP3    H272918   0.693   1.151  19.168
 7484TIP3   OH272919   0.812   1.617   0.291
 7484TIP3    H172920   0.857   1.699   0.264
 7484TIP3    H272921   0.869   1.584   0.361
 7485TIP3   OH272922   0.639   1.700  19.079
 7485TIP3    H172923   0.543   1.713  19.089
 7485TIP3    H272924   0.671   1.784  19.117
 7486TIP3   OH272925   0.251   0.396   0.440
 7486TIP3    H172926   0.163   0.436   0.443
 7486TIP3    H272927   0.238   0.314   0.490
 7487TIP3   OH272928   0.688   1.385  18.730
 7487TIP3    H172929   0.716   1.333  18.806
 7487TIP3    H272930   0.695   1.478  18.758
 7488TIP3   OH272931   0.335   1.113  18.784
 7488TIP3    H172932   0.271   1.159  18.839
 7488TIP3    H272933   0.391   1.187  18.751
 7489TIP3   OH272934   0.966   1.545  18.807
 7489TIP3    H172935   0.883   1.597  18.808
 7489TIP3    H272936   1.017   1.591  18.740
 7490TIP3   OH272937   0.913   0.521  19.000
 7490TIP3    H172938   1.000   0.566  19.003
 7490TIP3    H272939   0.896   0.497  19.093
 7491TIP3   OH272940   0.711   1.658  18.804
 7491TIP3    H172941   0.715   1.740  18.753
 7491TIP3    H272942   0.680   1.690  18.891
 7492TIP3   OH272943   0.573   0.330  18.764
 7492TIP3    H172944   0.566   0.420  18.799
 7492TIP3    H272945   0.662   0.306  18.791
 7493TIP3   OH272946   1.457   0.779  19.404
 7493TIP3    H172947   1.374   0.736  19.380
 7493TIP3    H272948   1.505   0.710  19.458
 7494TIP3   OH272949   0.308   0.129  19.464
 7494TIP3    H172950   0.293   0.132  19.366
 7494TIP3    H272951   0.272   0.041  19.479
 7495TIP3   OH272952   0.597   1.670   0.885
 7495TIP3    H172953   0.670   1.617   0.921
 7495TIP3    H272954   0.590   1.638   0.794
 7496TIP3   OH272955   0.789   1.153   0.765
 7496TIP3    H172956   0.761   1.183   0.677
 7496TIP3    H272957   0.803   1.057   0.751
 7497TIP3   OH272958   1.093   1.294  18.479
 7497TIP3    H172959   1.071   1.308  18.573
 7497TIP3    H272960   1.072   1.202  18.467
 7498TIP3   OH272961   0.225   0.863   0.763
 7498TIP3    H172962   0.256   0.775   0.751
 7498TIP3    H272963   0.186   0.870   0.849
 7499TIP3   OH272964   0.681   0.987  18.744
 7499TIP3    H172965   0.627   0.936  18.805
 7499TIP3    H272966   0.706   0.921  18.675
 7500TIP3   OH272967   0.782   0.810  18.562
 7500TIP3    H172968   0.771   0.795  18.467
 7500TIP3    H272969   0.880   0.820  18.572
 7501TIP3   OH272970   1.107   1.028   0.841
 7501TIP3    H172971   1.201   1.024   0.822
 7501TIP3    H272972   1.090   0.946   0.890
 7502TIP3   OH272973   0.644   0.507   0.602
 7502TIP3    H172974   0.657   0.434   0.539
 7502TIP3    H272975   0.636   0.585   0.547
 7503TIP3   OH272976   0.681   0.348   0.358
 7503TIP3    H172977   0.734   0.391   0.287
 7503TIP3    H272978   0.592   0.336   0.317
 7504TIP3   OH272979   0.831   0.891   0.378
 7504TIP3    H172980   0.912   0.876   0.328
 7504TIP3    H272981   0.808   0.980   0.353
 7505TIP3   OH272982   1.276   0.669   0.883
 7505TIP3    H172983   1.298   0.576   0.873
 7505TIP3    H272984   1.362   0.715   0.882
 7506TIP3   OH272985   1.412   0.952   0.699
 7506TIP3    H172986   1.381   1.017   0.634
 7506TIP3    H272987   1.506   0.947   0.674
 7507TIP3   OH272988   0.488   0.630   0.799
 7507TIP3    H172989   0.410   0.575   0.779
 7507TIP3    H272990   0.552   0.594   0.735
 7508TIP3   OH272991   0.737   0.092   0.404
 7508TIP3    H172992   0.742   0.189   0.386
 7508TIP3    H272993   0.672   0.060   0.344
 7509TIP3   OH272994   0.883   0.527   0.760
 7509TIP3    H172995   0.860   0.496   0.850
 7509TIP3    H272996   0.806   0.501   0.708
 7510TIP3   OH272997   0.303   0.424   0.771
 7510TIP3    H172998   0.322   0.349   0.711
 7510TIP3    H272999   0.294   0.377   0.857
 7511TIP3   OH273000   0.791   0.070   0.652
 7511TIP3    H173001   0.850  -0.008   0.658
 7511TIP3    H273002   0.772   0.062   0.556
 7512TIP3   OH273003   0.820   0.189   0.881
 7512TIP3    H173004   0.806   0.145   0.794
 7512TIP3    H273005   0.762   0.267   0.871
 7513TIP3   OH273006   1.803   0.939  19.086
 7513TIP3    H173007   1.729   0.889  19.126
 7513TIP3    H273008   1.864   0.956  19.160
 7514TIP3   OH273009   1.783   1.214   0.112
 7514TIP3    H173010   1.864   1.174   0.077
 7514TIP3    H273011   1.795   1.308   0.099
 7515TIP3   OH273012   1.834   0.929  18.723
 7515TIP3    H173013   1.775   0.961  18.654
 7515TIP3    H273014   1.829   0.993  18.796
 7516TIP3   OH273015   1.584   0.790  19.144
 7516TIP3    H173016   1.570   0.694  19.143
 7516TIP3    H273017   1.552   0.816  19.233
 7517TIP3   OH273018   1.672   0.989   0.641
 7517TIP3    H173019   1.734   0.913   0.653
 7517TIP3    H273020   1.734   1.064   0.637
 7518TIP3   OH273021   1.818   0.777   0.698
 7518TIP3    H173022   1.732   0.734   0.690
 7518TIP3    H273023   1.882   0.706   0.697
 7519TIP3   OH273024   1.543   0.555  18.989
 7519TIP3    H173025   1.575   0.465  19.009
 7519TIP3    H273026   1.624   0.595  18.955
 7520TIP3   OH273027   1.616   0.607   0.062
 7520TIP3    H173028   1.712   0.626   0.060
 7520TIP3    H273029   1.597   0.612   0.155
 7521TIP3   OH273030   0.061   0.505   0.668
 7521TIP3    H173031   0.150   0.504   0.710
 7521TIP3    H273032   0.010   0.446   0.725
 7522TIP3   OH273033   0.167   0.359  19.448
 7522TIP3    H173034   0.213   0.276  19.475
 7522TIP3    H273035   0.221   0.426  19.492
 7523TIP3   OH273036  -0.004   0.691   0.012
 7523TIP3    H173037   0.064   0.625  -0.013
 7523TIP3    H273038   0.044   0.730   0.086
 7524TIP3   OH273039  -0.009   0.368  18.950
 7524TIP3    H173040  -0.066   0.294  18.938
 7524TIP3    H273041   0.066   0.338  18.891
 7525TIP3   OH273042   8.178   0.178   0.324
 7525TIP3    H173043   8.116   0.135   0.383
 7525TIP3    H273044   8.124   0.221   0.258
 7526TIP3   OH273045   0.543   1.572   0.368
 7526TIP3    H173046   0.504   1.653   0.332
 7526TIP3    H273047   0.633   1.577   0.329
 7527TIP3   OH273048   0.282   1.892   0.367
 7527TIP3    H173049   0.209   1.941   0.324
 7527TIP3    H273050   0.244   1.871   0.452
 7528TIP3   OH273051   0.532   1.851   0.272
 7528TIP3    H173052   0.443   1.869   0.311
 7528TIP3    H273053   0.526   1.905   0.193
 7529TIP3   OH273054   1.000   1.842   0.190
 7529TIP3    H173055   0.956   1.896   0.122
 7529TIP3    H273056   1.023   1.904   0.259
 7530TIP3   OH273057   0.701   1.679   0.006
 7530TIP3    H173058   0.710   1.586  -0.020
 7530TIP3    H273059   0.696   1.668   0.102
 7531TIP3   OH273060   0.318   0.141  19.213
 7531TIP3    H173061   0.234   0.115  19.173
 7531TIP3    H273062   0.354   0.051  19.204
 7532TIP3   OH273063   0.182   0.093  18.704
 7532TIP3    H173064   0.223   0.175  18.675
 7532TIP3    H273065   0.114   0.123  18.771
 7533TIP3   OH273066   0.728   0.101  19.160
 7533TIP3    H173067   0.817   0.135  19.156
 7533TIP3    H273068   0.726   0.075  19.252
 7534TIP3   OH273069   0.149   1.679  18.850
 7534TIP3    H173070   0.082   1.675  18.781
 7534TIP3    H273071   0.155   1.772  18.874
 7535TIP3   OH273072   0.343   0.274  18.605
 7535TIP3    H173073   0.394   0.214  18.550
 7535TIP3    H273074   0.411   0.309  18.664
 7536TIP3   OH273075   0.267   0.163   0.659
 7536TIP3    H173076   0.233   0.078   0.692
 7536TIP3    H273077   0.359   0.156   0.689
 7537TIP3   OH273078   0.473   0.097   0.820
 7537TIP3    H173079   0.559   0.064   0.789
 7537TIP3    H273080   0.431   0.015   0.851
 7538TIP3   OH273081   2.962   0.947   0.041
 7538TIP3    H173082   2.960   0.881   0.111
 7538TIP3    H273083   2.930   0.898  -0.036
 7539TIP3   OH273084   2.199   0.908   0.196
 7539TIP3    H173085   2.204   0.848   0.272
 7539TIP3    H273086   2.269   0.970   0.221
 7540TIP3   OH273087   3.326   1.244  19.343
 7540TIP3    H173088   3.290   1.170  19.392
 7540TIP3    H273089   3.336   1.311  19.412
 7541TIP3   OH273090   2.290   1.353   0.053
 7541TIP3    H173091   2.260   1.269   0.018
 7541TIP3    H273092   2.386   1.338   0.058
 7542TIP3   OH273093   2.023   0.935  19.280
 7542TIP3    H173094   2.049   0.855  19.330
 7542TIP3    H273095   2.099   0.947  19.221
 7543TIP3   OH273096   2.801   1.189   0.088
 7543TIP3    H173097   2.832   1.123   0.026
 7543TIP3    H273098   2.877   1.203   0.143
 7544TIP3   OH273099   2.095   0.684  19.390
 7544TIP3    H173100   2.159   0.628  19.434
 7544TIP3    H273101   2.095   0.649  19.300
 7545TIP3   OH273102   2.607   0.837  19.318
 7545TIP3    H173103   2.668   0.777  19.362
 7545TIP3    H273104   2.551   0.773  19.268
 7546TIP3   OH273105   2.314   0.331   0.252
 7546TIP3    H173106   2.291   0.386   0.177
 7546TIP3    H273107   2.245   0.352   0.315
 7547TIP3   OH273108   3.042   1.278  19.077
 7547TIP3    H173109   3.024   1.251  18.987
 7547TIP3    H273110   3.020   1.372  19.079
 7548TIP3   OH273111   2.415   1.291   0.352
 7548TIP3    H173112   2.413   1.385   0.324
 7548TIP3    H273113   2.328   1.290   0.398
 7549TIP3   OH273114   2.028   1.261  18.905
 7549TIP3    H173115   1.991   1.287  18.820
 7549TIP3    H273116   2.026   1.342  18.956
 7550TIP3   OH273117   3.381   1.421   0.097
 7550TIP3    H173118   3.290   1.433   0.123
 7550TIP3    H273119   3.411   1.514   0.093
 7551TIP3   OH273120   3.414   0.253   0.249
 7551TIP3    H173121   3.344   0.317   0.246
 7551TIP3    H273122   3.483   0.298   0.199
 7552TIP3   OH273123   3.340   1.374  19.093
 7552TIP3    H173124   3.294   1.313  19.033
 7552TIP3    H273125   3.329   1.336  19.181
 7553TIP3   OH273126   3.685   0.890   0.280
 7553TIP3    H173127   3.610   0.954   0.277
 7553TIP3    H273128   3.727   0.906   0.193
 7554TIP3   OH273129   2.445   1.028  19.204
 7554TIP3    H173130   2.418   0.994  19.115
 7554TIP3    H273131   2.508   0.960  19.234
 7555TIP3   OH273132   2.575   1.362  19.479
 7555TIP3    H173133   2.579   1.322  19.391
 7555TIP3    H273134   2.659   1.335  19.518
 7556TIP3   OH273135   2.485   0.904   0.095
 7556TIP3    H173136   2.538   0.916   0.014
 7556TIP3    H273137   2.515   0.975   0.152
 7557TIP3   OH273138   2.261   0.964   0.482
 7557TIP3    H173139   2.272   1.030   0.553
 7557TIP3    H273140   2.169   0.975   0.458
 7558TIP3   OH273141   2.345   0.937  18.966
 7558TIP3    H173142   2.318   1.012  18.910
 7558TIP3    H273143   2.282   0.870  18.940
 7559TIP3   OH273144   1.949   1.174   0.380
 7559TIP3    H173145   1.907   1.169   0.292
 7559TIP3    H273146   1.958   1.079   0.400
 7560TIP3   OH273147   3.753   1.518   0.625
 7560TIP3    H173148   3.742   1.422   0.625
 7560TIP3    H273149   3.668   1.546   0.666
 7561TIP3   OH273150   2.178   1.308   0.476
 7561TIP3    H173151   2.203   1.268   0.561
 7561TIP3    H273152   2.094   1.266   0.450
 7562TIP3   OH273153   2.455   0.692  19.143
 7562TIP3    H173154   2.370   0.649  19.143
 7562TIP3    H273155   2.500   0.641  19.074
 7563TIP3   OH273156   2.423   0.697  18.662
 7563TIP3    H173157   2.372   0.657  18.592
 7563TIP3    H273158   2.506   0.715  18.618
 7564TIP3   OH273159   2.241   1.154   0.695
 7564TIP3    H173160   2.311   1.178   0.758
 7564TIP3    H273161   2.162   1.166   0.751
 7565TIP3   OH273162   3.480   1.065   0.262
 7565TIP3    H173163   3.537   1.116   0.202
 7565TIP3    H273164   3.395   1.074   0.216
 7566TIP3   OH273165   2.268   1.084  19.430
 7566TIP3    H173166   2.344   1.082  19.367
 7566TIP3    H273167   2.280   1.003  19.481
 7567TIP3   OH273168   2.975   1.298  18.761
 7567TIP3    H173169   2.942   1.382  18.793
 7567TIP3    H273170   2.903   1.237  18.773
 7568TIP3   OH273171   1.971   0.928   0.487
 7568TIP3    H173172   1.992   0.884   0.572
 7568TIP3    H273173   1.908   0.867   0.445
 7569TIP3   OH273174   3.700   0.644  18.815
 7569TIP3    H173175   3.653   0.604  18.741
 7569TIP3    H273176   3.720   0.733  18.781
 7570TIP3   OH273177   3.708   1.225   0.618
 7570TIP3    H173178   3.619   1.247   0.587
 7570TIP3    H273179   3.759   1.222   0.535
 7571TIP3   OH273180   3.540   1.520  18.856
 7571TIP3    H173181   3.498   1.439  18.888
 7571TIP3    H273182   3.561   1.501  18.764
 7572TIP3   OH273183   3.257   1.002   0.091
 7572TIP3    H173184   3.164   0.980   0.078
 7572TIP3    H273185   3.300   0.924   0.051
 7573TIP3   OH273186   2.085   0.924  18.623
 7573TIP3    H173187   2.147   0.982  18.671
 7573TIP3    H273188   1.997   0.946  18.657
 7574TIP3   OH273189   3.278   1.315  18.638
 7574TIP3    H173190   3.308   1.279  18.723
 7574TIP3    H273191   3.182   1.310  18.647
 7575TIP3   OH273192   3.364   1.182  18.858
 7575TIP3    H173193   3.335   1.111  18.918
 7575TIP3    H273194   3.456   1.195  18.883
 7576TIP3   OH273195   2.224   1.114  18.776
 7576TIP3    H173196   2.157   1.148  18.840
 7576TIP3    H273197   2.279   1.191  18.762
 7577TIP3   OH273198   3.479   0.403   0.530
 7577TIP3    H173199   3.390   0.436   0.523
 7577TIP3    H273200   3.514   0.404   0.440
 7578TIP3   OH273201   3.340   0.779  19.414
 7578TIP3    H173202   3.262   0.737  19.376
 7578TIP3    H273203   3.388   0.710  19.460
 7579TIP3   OH273204   3.445   1.711   0.107
 7579TIP3    H173205   3.434   1.769   0.030
 7579TIP3    H273206   3.543   1.712   0.119
 7580TIP3   OH273207   2.195   0.130  19.444
 7580TIP3    H173208   2.173   0.121  19.351
 7580TIP3    H273209   2.161   0.045  19.479
 7581TIP3   OH273210   2.008   1.151   0.822
 7581TIP3    H173211   2.025   1.060   0.790
 7581TIP3    H273212   1.934   1.181   0.766
 7582TIP3   OH273213   2.667   1.151   0.768
 7582TIP3    H173214   2.648   1.180   0.677
 7582TIP3    H273215   2.694   1.060   0.752
 7583TIP3   OH273216   2.086   0.873   0.761
 7583TIP3    H173217   2.141   0.795   0.749
 7583TIP3    H273218   2.076   0.878   0.858
 7584TIP3   OH273219   2.991   1.021   0.832
 7584TIP3    H173220   3.087   1.029   0.821
 7584TIP3    H273221   2.977   0.946   0.888
 7585TIP3   OH273222   2.370   0.634   0.791
 7585TIP3    H173223   2.297   0.575   0.781
 7585TIP3    H273224   2.440   0.594   0.739
 7586TIP3   OH273225   3.712   1.790   0.123
 7586TIP3    H173226   3.727   1.781   0.219
 7586TIP3    H273227   3.799   1.820   0.091
 7587TIP3   OH273228   3.678   1.728   0.413
 7587TIP3    H173229   3.628   1.653   0.380
 7587TIP3    H273230   3.729   1.687   0.484
 7588TIP3   OH273231   3.521   1.306   0.878
 7588TIP3    H173232   3.433   1.298   0.921
 7588TIP3    H273233   3.560   1.381   0.928
 7589TIP3   OH273234   3.654   1.132  18.900
 7589TIP3    H173235   3.738   1.175  18.921
 7589TIP3    H273236   3.652   1.061  18.968
 7590TIP3   OH273237   3.686   0.939  19.087
 7590TIP3    H173238   3.614   0.892  19.131
 7590TIP3    H273239   3.750   0.958  19.159
 7591TIP3   OH273240   3.668   1.211   0.116
 7591TIP3    H173241   3.747   1.173   0.074
 7591TIP3    H273242   3.681   1.306   0.096
 7592TIP3   OH273243   3.718   0.927  18.725
 7592TIP3    H173244   3.665   0.960  18.652
 7592TIP3    H273245   3.710   0.996  18.793
 7593TIP3   OH273246   1.971   0.995   0.078
 7593TIP3    H173247   1.989   0.992  -0.019
 7593TIP3    H273248   2.061   0.984   0.114
 7594TIP3   OH273249   3.559   0.987   0.640
 7594TIP3    H173250   3.619   0.912   0.653
 7594TIP3    H273251   3.615   1.066   0.640
 7595TIP3   OH273252   3.706   0.775   0.695
 7595TIP3    H173253   3.619   0.734   0.687
 7595TIP3    H273254   3.764   0.698   0.700
 7596TIP3   OH273255   3.478   0.390  18.487
 7596TIP3    H173256   3.537   0.355  18.554
 7596TIP3    H273257   3.394   0.351  18.510
 7597TIP3   OH273258   3.501   0.678   0.336
 7597TIP3    H173259   3.421   0.710   0.377
 7597TIP3    H273260   3.552   0.759   0.316
 7598TIP3   OH273261   3.506   0.270  18.992
 7598TIP3    H173262   3.519   0.229  19.079
 7598TIP3    H273263   3.441   0.214  18.949
 7599TIP3   OH273264   2.056   0.360  19.446
 7599TIP3    H173265   2.097   0.276  19.475
 7599TIP3    H273266   2.104   0.426  19.494
 7600TIP3   OH273267   1.884   0.657   0.084
 7600TIP3    H173268   1.937   0.632   0.006
 7600TIP3    H273269   1.926   0.740   0.110
 7601TIP3   OH273270   1.912   0.152   0.317
 7601TIP3    H173271   1.854   0.134   0.390
 7601TIP3    H273272   1.869   0.221   0.264
 7602TIP3   OH273273   2.428   1.569   0.359
 7602TIP3    H173274   2.389   1.654   0.333
 7602TIP3    H273275   2.519   1.578   0.331
 7603TIP3   OH273276   3.582   0.109   0.494
 7603TIP3    H173277   3.499   0.134   0.453
 7603TIP3    H273278   3.608   0.029   0.452
 7604TIP3   OH273279   2.173   1.895   0.364
 7604TIP3    H173280   2.098   1.941   0.322
 7604TIP3    H273281   2.134   1.868   0.448
 7605TIP3   OH273282   2.420   1.852   0.268
 7605TIP3    H173283   2.330   1.862   0.309
 7605TIP3    H273284   2.413   1.912   0.193
 7606TIP3   OH273285   3.388   1.885   0.313
 7606TIP3    H173286   3.360   1.976   0.291
 7606TIP3    H273287   3.392   1.840   0.228
 7607TIP3   OH273288   3.426   0.049  19.364
 7607TIP3    H173289   3.497   0.113  19.346
 7607TIP3    H273290   3.344   0.099  19.375
 7608TIP3   OH273291   3.623   0.170  19.240
 7608TIP3    H173292   3.680   0.113  19.188
 7608TIP3    H273293   3.659   0.261  19.234
 7609TIP3   OH273294   2.045   0.083  18.759
 7609TIP3    H173295   2.089   0.142  18.697
 7609TIP3    H273296   1.978   0.137  18.801
 7610TIP3   OH273297   2.628   0.075  19.162
 7610TIP3    H173298   2.708   0.128  19.155
 7610TIP3    H273299   2.610   0.073  19.256
 7611TIP3   OH273300   3.169   0.099  19.324
 7611TIP3    H173301   3.186   0.106  19.230
 7611TIP3    H273302   3.151   0.005  19.334
 7612TIP3   OH273303   2.032   1.677  18.853
 7612TIP3    H173304   1.970   1.677  18.780
 7612TIP3    H273305   2.037   1.771  18.870
 7613TIP3   OH273306   2.355   0.091   0.805
 7613TIP3    H173307   2.446   0.064   0.792
 7613TIP3    H273308   2.319   0.020   0.858
 7614TIP3   OH273309   2.218   1.770  18.548
 7614TIP3    H173310   2.190   1.802  18.635
 7614TIP3    H273311   2.296   1.719  18.566
 7615TIP3   OH273312   3.198   0.025   0.827
 7615TIP3    H173313   3.207  -0.022   0.910
 7615TIP3    H273314   3.287   0.023   0.790
 7616TIP3   OH273315   3.512   1.630   0.697
 7616TIP3    H173316   3.433   1.614   0.644
 7616TIP3    H273317   3.506   1.725   0.713
 7617TIP3   OH273318   4.075   0.917   0.207
 7617TIP3    H173319   4.093   0.843   0.267
 7617TIP3    H273320   4.160   0.964   0.215
 7618TIP3   OH273321   4.176   1.354   0.053
 7618TIP3    H173322   4.144   1.270   0.015
 7618TIP3    H273323   4.272   1.337   0.056
 7619TIP3   OH273324   3.835   0.717  19.075
 7619TIP3    H173325   3.796   0.805  19.061
 7619TIP3    H273326   3.785   0.662  19.012
 7620TIP3   OH273327   3.907   0.937  19.283
 7620TIP3    H173328   3.934   0.858  19.330
 7620TIP3    H273329   3.979   0.944  19.219
 7621TIP3   OH273330   4.929   1.753  19.368
 7621TIP3    H173331   4.993   1.683  19.340
 7621TIP3    H273332   4.906   1.724  19.456
 7622TIP3   OH273333   4.682   1.186   0.084
 7622TIP3    H173334   4.716   1.121   0.022
 7622TIP3    H273335   4.755   1.198   0.146
 7623TIP3   OH273336   5.546   0.352   0.166
 7623TIP3    H173337   5.563   0.410   0.241
 7623TIP3    H273338   5.598   0.396   0.097
 7624TIP3   OH273339   4.996   0.633   0.116
 7624TIP3    H173340   5.019   0.539   0.119
 7624TIP3    H273341   4.997   0.649   0.021
 7625TIP3   OH273342   4.496   0.836  19.313
 7625TIP3    H173343   4.556   0.780  19.365
 7625TIP3    H273344   4.437   0.770  19.275
 7626TIP3   OH273345   4.456   1.097   0.270
 7626TIP3    H173346   4.384   1.159   0.292
 7626TIP3    H273347   4.527   1.157   0.246
 7627TIP3   OH273348   5.267   0.379  19.352
 7627TIP3    H173349   5.243   0.305  19.407
 7627TIP3    H273350   5.329   0.430  19.405
 7628TIP3   OH273351   4.300   1.298   0.359
 7628TIP3    H173352   4.294   1.384   0.314
 7628TIP3    H273353   4.210   1.289   0.398
 7629TIP3   OH273354   3.903   1.258  18.906
 7629TIP3    H173355   3.887   1.289  18.817
 7629TIP3    H273356   3.911   1.341  18.955
 7630TIP3   OH273357   5.297   0.254   0.257
 7630TIP3    H173358   5.225   0.315   0.239
 7630TIP3    H273359   5.369   0.287   0.198
 7631TIP3   OH273360   4.599   0.068  -0.023
 7631TIP3    H173361   4.595  -0.028  -0.008
 7631TIP3    H273362   4.518   0.095   0.021
 7632TIP3   OH273363   5.098   1.601  19.244
 7632TIP3    H173364   5.136   1.531  19.191
 7632TIP3    H273365   5.136   1.681  19.201
 7633TIP3   OH273366   4.331   1.029  19.200
 7633TIP3    H173367   4.301   0.994  19.116
 7633TIP3    H273368   4.394   0.962  19.236
 7634TIP3   OH273369   4.464   1.371  19.474
 7634TIP3    H173370   4.461   1.320  19.391
 7634TIP3    H273371   4.542   1.332  19.517
 7635TIP3   OH273372   4.367   0.908   0.092
 7635TIP3    H173373   4.426   0.918   0.017
 7635TIP3    H273374   4.405   0.969   0.159
 7636TIP3   OH273375   4.460   1.344   0.567
 7636TIP3    H173376   4.426   1.422   0.613
 7636TIP3    H273377   4.395   1.328   0.494
 7637TIP3   OH273378   4.170   0.946   0.472
 7637TIP3    H173379   4.185   1.006   0.546
 7637TIP3    H273380   4.079   0.953   0.442
 7638TIP3   OH273381   4.832   1.558  19.121
 7638TIP3    H173382   4.870   1.588  19.204
 7638TIP3    H273383   4.773   1.630  19.098
 7639TIP3   OH273384   5.424   0.056  18.761
 7639TIP3    H173385   5.335   0.074  18.797
 7639TIP3    H273386   5.455   0.142  18.727
 7640TIP3   OH273387   5.542   1.495  18.610
 7640TIP3    H173388   5.553   1.591  18.616
 7640TIP3    H273389   5.632   1.467  18.589
 7641TIP3   OH273390   3.844   1.169   0.381
 7641TIP3    H173391   3.794   1.172   0.296
 7641TIP3    H273392   3.834   1.074   0.395
 7642TIP3   OH273393   3.815   1.444   0.067
 7642TIP3    H173394   3.910   1.439   0.055
 7642TIP3    H273395   3.807   1.532   0.107
 7643TIP3   OH273396   5.643   1.518   0.630
 7643TIP3    H173397   5.625   1.425   0.622
 7643TIP3    H273398   5.556   1.548   0.666
 7644TIP3   OH273399   4.736   1.470   0.520
 7644TIP3    H173400   4.740   1.560   0.561
 7644TIP3    H273401   4.646   1.440   0.537
 7645TIP3   OH273402   4.780   1.848  18.965
 7645TIP3    H173403   4.769   1.838  18.869
 7645TIP3    H273404   4.780   1.944  18.978
 7646TIP3   OH273405   4.148   1.718  19.142
 7646TIP3    H173406   4.154   1.702  19.239
 7646TIP3    H273407   4.053   1.706  19.128
 7647TIP3   OH273408   5.085   1.767  18.661
 7647TIP3    H173409   5.128   1.689  18.624
 7647TIP3    H273410   5.087   1.744  18.756
 7648TIP3   OH273411   5.053   1.759  18.937
 7648TIP3    H173412   4.958   1.769  18.959
 7648TIP3    H273413   5.077   1.689  18.998
 7649TIP3   OH273414   4.067   1.303   0.472
 7649TIP3    H173415   4.087   1.283   0.567
 7649TIP3    H273416   3.975   1.276   0.450
 7650TIP3   OH273417   4.807   0.178   0.410
 7650TIP3    H173418   4.855   0.111   0.461
 7650TIP3    H273419   4.724   0.129   0.400
 7651TIP3   OH273420   3.768   0.385  19.214
 7651TIP3    H173421   3.832   0.390  19.287
 7651TIP3    H273422   3.818   0.348  19.141
 7652TIP3   OH273423   3.889   0.472  18.759
 7652TIP3    H173424   3.942   0.536  18.713
 7652TIP3    H273425   3.824   0.528  18.804
 7653TIP3   OH273426   4.592   0.419  19.256
 7653TIP3    H173427   4.500   0.418  19.283
 7653TIP3    H273428   4.645   0.402  19.335
 7654TIP3   OH273429   4.447   0.575  18.899
 7654TIP3    H173430   4.539   0.594  18.919
 7654TIP3    H273431   4.419   0.644  18.838
 7655TIP3   OH273432   5.037   0.335   0.112
 7655TIP3    H173433   4.966   0.346   0.175
 7655TIP3    H273434   4.990   0.319   0.029
 7656TIP3   OH273435   5.358   1.907   0.742
 7656TIP3    H173436   5.385   1.943   0.655
 7656TIP3    H273437   5.432   1.937   0.799
 7657TIP3   OH273438   4.130   1.161   0.699
 7657TIP3    H173439   4.200   1.177   0.765
 7657TIP3    H273440   4.053   1.172   0.762
 7658TIP3   OH273441   4.792   1.173   0.506
 7658TIP3    H173442   4.762   1.137   0.589
 7658TIP3    H273443   4.777   1.269   0.514
 7659TIP3   OH273444   4.155   1.082  19.434
 7659TIP3    H173445   4.229   1.080  19.370
 7659TIP3    H273446   4.167   0.999  19.481
 7660TIP3   OH273447   3.861   0.926   0.491
 7660TIP3    H173448   3.872   0.876   0.575
 7660TIP3    H273449   3.795   0.870   0.444
 7661TIP3   OH273450   4.564   0.882   0.711
 7661TIP3    H173451   4.531   0.861   0.622
 7661TIP3    H273452   4.655   0.854   0.702
 7662TIP3   OH273453   5.590   0.641  18.814
 7662TIP3    H173454   5.541   0.602  18.741
 7662TIP3    H273455   5.602   0.734  18.786
 7663TIP3   OH273456   4.395   1.434  19.176
 7663TIP3    H173457   4.446   1.513  19.151
 7663TIP3    H273458   4.308   1.457  19.141
 7664TIP3   OH273459   3.969   0.919  18.628
 7664TIP3    H173460   4.032   0.982  18.668
 7664TIP3    H273461   3.882   0.945  18.660
 7665TIP3   OH273462   4.539   1.199  19.134
 7665TIP3    H173463   4.508   1.292  19.133
 7665TIP3    H273464   4.461   1.154  19.168
 7666TIP3   OH273465   4.406   1.701  19.083
 7666TIP3    H173466   4.309   1.714  19.094
 7666TIP3    H273467   4.440   1.783  19.120
 7667TIP3   OH273468   5.212   1.678   0.505
 7667TIP3    H173469   5.146   1.629   0.454
 7667TIP3    H273470   5.235   1.745   0.438
 7668TIP3   OH273471   5.617   1.764  18.663
 7668TIP3    H173472   5.686   1.828  18.639
 7668TIP3    H273473   5.542   1.823  18.690
 7669TIP3   OH273474   3.987   1.580   0.287
 7669TIP3    H173475   4.012   1.487   0.288
 7669TIP3    H273476   4.009   1.611   0.376
 7670TIP3   OH273477   4.458   1.388  18.727
 7670TIP3    H173478   4.485   1.333  18.802
 7670TIP3    H273479   4.469   1.479  18.761
 7671TIP3   OH273480   4.111   1.110  18.777
 7671TIP3    H173481   4.046   1.150  18.837
 7671TIP3    H273482   4.165   1.187  18.753
 7672TIP3   OH273483   4.741   1.554  18.801
 7672TIP3    H173484   4.657   1.601  18.807
 7672TIP3    H273485   4.792   1.607  18.740
 7673TIP3   OH273486   4.474   1.656  18.804
 7673TIP3    H173487   4.489   1.739  18.753
 7673TIP3    H273488   4.454   1.690  18.894
 7674TIP3   OH273489   4.358   0.336  18.751
 7674TIP3    H173490   4.340   0.420  18.797
 7674TIP3    H273491   4.440   0.306  18.793
 7675TIP3   OH273492   5.365   0.398   0.530
 7675TIP3    H173493   5.275   0.430   0.522
 7675TIP3    H273494   5.398   0.404   0.440
 7676TIP3   OH273495   4.174   1.371  18.673
 7676TIP3    H173496   4.237   1.440  18.696
 7676TIP3    H273497   4.217   1.330  18.597
 7677TIP3   OH273498   5.333   1.707   0.102
 7677TIP3    H173499   5.324   1.775   0.033
 7677TIP3    H273500   5.429   1.711   0.119
 7678TIP3   OH273501   4.368   1.664   0.888
 7678TIP3    H173502   4.447   1.617   0.915
 7678TIP3    H273503   4.366   1.643   0.794
 7679TIP3   OH273504   3.898   1.154   0.815
 7679TIP3    H173505   3.906   1.058   0.798
 7679TIP3    H273506   3.815   1.180   0.771
 7680TIP3   OH273507   4.564   1.150   0.766
 7680TIP3    H173508   4.530   1.183   0.681
 7680TIP3    H273509   4.574   1.054   0.749
 7681TIP3   OH273510   4.872   1.289  18.484
 7681TIP3    H173511   4.833   1.312  18.569
 7681TIP3    H273512   4.844   1.198  18.470
 7682TIP3   OH273513   3.981   0.877   0.760
 7682TIP3    H173514   4.025   0.792   0.753
 7682TIP3    H273515   3.959   0.876   0.857
 7683TIP3   OH273516   4.439   0.988  18.736
 7683TIP3    H173517   4.397   0.937  18.804
 7683TIP3    H273518   4.473   0.922  18.672
 7684TIP3   OH273519   4.556   0.815  18.563
 7684TIP3    H173520   4.539   0.791  18.471
 7684TIP3    H273521   4.652   0.815  18.566
 7685TIP3   OH273522   4.611   0.896   0.387
 7685TIP3    H173523   4.682   0.875   0.327
 7685TIP3    H273524   4.571   0.975   0.349
 7686TIP3   OH273525   4.256   0.640   0.792
 7686TIP3    H173526   4.186   0.575   0.782
 7686TIP3    H273527   4.326   0.601   0.738
 7687TIP3   OH273528   5.105   0.298   0.872
 7687TIP3    H173529   5.082   0.202   0.859
 7687TIP3    H273530   5.058   0.323   0.950
 7688TIP3   OH273531   4.580   0.187   0.877
 7688TIP3    H173532   4.580   0.142   0.792
 7688TIP3    H273533   4.532   0.269   0.865
 7689TIP3   OH273534   4.539   1.879  18.661
 7689TIP3    H173535   4.635   1.893  18.676
 7689TIP3    H273536   4.518   1.950  18.600
 7690TIP3   OH273537   5.611   1.767   0.123
 7690TIP3    H173538   5.607   1.788   0.218
 7690TIP3    H273539   5.672   1.835   0.094
 7691TIP3   OH273540   5.565   1.729   0.415
 7691TIP3    H173541   5.516   1.651   0.380
 7691TIP3    H273542   5.615   1.687   0.487
 7692TIP3   OH273543   5.581   0.940  19.085
 7692TIP3    H173544   5.504   0.891  19.123
 7692TIP3    H273545   5.634   0.959  19.163
 7693TIP3   OH273546   5.406   1.502   0.344
 7693TIP3    H173547   5.335   1.535   0.401
 7693TIP3    H273548   5.355   1.462   0.272
 7694TIP3   OH273549   5.597   0.922  18.727
 7694TIP3    H173550   5.552   0.969  18.656
 7694TIP3    H273551   5.601   0.992  18.795
 7695TIP3   OH273552   5.366   0.782  19.143
 7695TIP3    H173553   5.335   0.692  19.143
 7695TIP3    H273554   5.320   0.814  19.224
 7696TIP3   OH273555   3.858   1.006   0.077
 7696TIP3    H173556   3.876   0.991  -0.018
 7696TIP3    H273557   3.945   0.979   0.113
 7697TIP3   OH273558   5.588   0.770   0.726
 7697TIP3    H173559   5.506   0.737   0.686
 7697TIP3    H273560   5.652   0.699   0.700
 7698TIP3   OH273561   5.389   0.602   0.062
 7698TIP3    H173562   5.483   0.627   0.057
 7698TIP3    H273563   5.364   0.621   0.152
 7699TIP3   OH273564   5.563   0.077   0.850
 7699TIP3    H173565   5.634   0.013   0.830
 7699TIP3    H273566   5.609   0.161   0.829
 7700TIP3   OH273567   5.579   0.293   0.705
 7700TIP3    H173568   5.484   0.316   0.705
 7700TIP3    H273569   5.578   0.232   0.630
 7701TIP3   OH273570   5.578   0.282  18.654
 7701TIP3    H173571   5.612   0.211  18.597
 7701TIP3    H273572   5.648   0.348  18.646
 7702TIP3   OH273573   5.281   1.773  19.155
 7702TIP3    H173574   5.350   1.748  19.091
 7702TIP3    H273575   5.329   1.826  19.221
 7703TIP3   OH273576   4.020   1.460   0.734
 7703TIP3    H173577   3.940   1.496   0.692
 7703TIP3    H273578   3.996   1.465   0.827
 7704TIP3   OH273579   4.746   1.710   0.654
 7704TIP3    H173580   4.761   1.680   0.747
 7704TIP3    H273581   4.833   1.744   0.625
 7705TIP3   OH273582   4.978   1.839   0.584
 7705TIP3    H173583   5.048   1.777   0.559
 7705TIP3    H273584   5.013   1.881   0.665
 7706TIP3   OH273585   5.477   0.100   0.489
 7706TIP3    H173586   5.391   0.129   0.455
 7706TIP3    H273587   5.494   0.018   0.442
 7707TIP3   OH273588   5.004   1.731   0.287
 7707TIP3    H173589   4.915   1.750   0.255
 7707TIP3    H273590   5.049   1.815   0.279
 7708TIP3   OH273591   5.262   1.882   0.311
 7708TIP3    H173592   5.255   1.978   0.288
 7708TIP3    H273593   5.283   1.843   0.224
 7709TIP3   OH273594   3.997   1.755   0.060
 7709TIP3    H173595   3.999   1.709   0.145
 7709TIP3    H273596   4.078   1.728   0.015
 7710TIP3   OH273597   4.208   1.627  19.392
 7710TIP3    H173598   4.190   1.535  19.415
 7710TIP3    H273599   4.292   1.645  19.439
 7711TIP3   OH273600   4.468   1.675   0.008
 7711TIP3    H173601   4.487   1.585  -0.021
 7711TIP3    H273602   4.474   1.670   0.103
 7712TIP3   OH273603   4.810   0.244  19.394
 7712TIP3    H173604   4.748   0.174  19.423
 7712TIP3    H273605   4.875   0.194  19.341
 7713TIP3   OH273606   5.330   0.050  19.410
 7713TIP3    H173607   5.388   0.104  19.352
 7713TIP3    H273608   5.243   0.084  19.381
 7714TIP3   OH273609   5.507   0.168  19.246
 7714TIP3    H173610   5.553   0.115  19.179
 7714TIP3    H273611   5.535   0.262  19.236
 7715TIP3   OH273612   4.510   0.097  19.169
 7715TIP3    H173613   4.595   0.139  19.161
 7715TIP3    H273614   4.496   0.081  19.262
 7716TIP3   OH273615   5.063   0.100  19.323
 7716TIP3    H173616   5.071   0.107  19.228
 7716TIP3    H273617   5.038   0.007  19.336
 7717TIP3   OH273618   5.188   0.108  18.862
 7717TIP3    H173619   5.119   0.172  18.876
 7717TIP3    H273620   5.161   0.027  18.908
 7718TIP3   OH273621   4.645   0.315  18.848
 7718TIP3    H173622   4.625   0.242  18.911
 7718TIP3    H273623   4.612   0.390  18.897
 7719TIP3   OH273624   4.805   1.808  18.687
 7719TIP3    H173625   4.897   1.832  18.669
 7719TIP3    H273626   4.783   1.758  18.607
 7720TIP3   OH273627   5.478   1.752  18.959
 7720TIP3    H173628   5.458   1.680  18.897
 7720TIP3    H273629   5.472   1.829  18.898
 7721TIP3   OH273630   5.087   0.033   0.835
 7721TIP3    H173631   5.095  -0.025   0.911
 7721TIP3    H273632   5.174   0.021   0.793
 7722TIP3   OH273633   5.403   1.633   0.695
 7722TIP3    H173634   5.321   1.619   0.643
 7722TIP3    H273635   5.392   1.727   0.718
 7723TIP3   OH273636   5.969   0.912   0.198
 7723TIP3    H173637   5.976   0.845   0.270
 7723TIP3    H273638   6.041   0.970   0.223
 7724TIP3   OH273639   6.060   1.358   0.049
 7724TIP3    H173640   6.029   1.270   0.017
 7724TIP3    H273641   6.153   1.331   0.058
 7725TIP3   OH273642   5.726   0.710  19.068
 7725TIP3    H173643   5.684   0.799  19.065
 7725TIP3    H273644   5.665   0.660  19.013
 7726TIP3   OH273645   5.796   0.937  19.282
 7726TIP3    H173646   5.820   0.857  19.331
 7726TIP3    H273647   5.868   0.948  19.218
 7727TIP3   OH273648   6.814   1.753  19.367
 7727TIP3    H173649   6.877   1.683  19.337
 7727TIP3    H273650   6.792   1.727  19.456
 7728TIP3   OH273651   7.421   0.353   0.162
 7728TIP3    H173652   7.446   0.406   0.242
 7728TIP3    H273653   7.485   0.395   0.103
 7729TIP3   OH273654   6.889   0.629   0.115
 7729TIP3    H173655   6.899   0.533   0.120
 7729TIP3    H273656   6.881   0.655   0.022
 7730TIP3   OH273657   6.201   0.441  19.317
 7730TIP3    H173658   6.208   0.524  19.268
 7730TIP3    H273659   6.164   0.383  19.248
 7731TIP3   OH273660   6.973   0.444  19.155
 7731TIP3    H173661   7.047   0.426  19.216
 7731TIP3    H273662   7.025   0.505  19.098
 7732TIP3   OH273663   5.856   0.684  19.385
 7732TIP3    H173664   5.927   0.633  19.432
 7732TIP3    H273665   5.871   0.652  19.295
 7733TIP3   OH273666   6.376   0.836  19.319
 7733TIP3    H173667   6.444   0.781  19.363
 7733TIP3    H273668   6.322   0.771  19.271
 7734TIP3   OH273669   7.474   0.487   0.387
 7734TIP3    H173670   7.413   0.564   0.379
 7734TIP3    H273671   7.480   0.479   0.483
 7735TIP3   OH273672   6.121   0.364   0.159
 7735TIP3    H173673   6.044   0.407   0.120
 7735TIP3    H273674   6.068   0.349   0.241
 7736TIP3   OH273675   7.150   0.380  19.354
 7736TIP3    H173676   7.144   0.306  19.415
 7736TIP3    H273677   7.217   0.433  19.403
 7737TIP3   OH273678   6.038   0.544   0.023
 7737TIP3    H173679   6.106   0.585   0.080
 7737TIP3    H273680   6.098   0.479  -0.023
 7738TIP3   OH273681   6.181   1.287   0.348
 7738TIP3    H173682   6.187   1.382   0.329
 7738TIP3    H273683   6.099   1.285   0.402
 7739TIP3   OH273684   5.793   1.260  18.904
 7739TIP3    H173685   5.763   1.289  18.818
 7739TIP3    H273686   5.802   1.341  18.957
 7740TIP3   OH273687   7.184   0.249   0.246
 7740TIP3    H173688   7.115   0.317   0.244
 7740TIP3    H273689   7.260   0.293   0.203
 7741TIP3   OH273690   6.488   0.071  -0.022
 7741TIP3    H173691   6.477  -0.026  -0.014
 7741TIP3    H273692   6.405   0.097   0.022
 7742TIP3   OH273693   6.980   1.600  19.240
 7742TIP3    H173694   7.027   1.532  19.191
 7742TIP3    H273695   7.020   1.682  19.202
 7743TIP3   OH273696   7.269   1.255   0.472
 7743TIP3    H173697   7.276   1.192   0.398
 7743TIP3    H273698   7.281   1.338   0.423
 7744TIP3   OH273699   7.441   0.882   0.270
 7744TIP3    H173700   7.391   0.963   0.281
 7744TIP3    H273701   7.499   0.908   0.196
 7745TIP3   OH273702   7.048   0.784   0.449
 7745TIP3    H173703   7.050   0.863   0.504
 7745TIP3    H273704   6.982   0.810   0.382
 7746TIP3   OH273705   6.212   1.029  19.201
 7746TIP3    H173706   6.188   0.989  19.118
 7746TIP3    H273707   6.281   0.968  19.236
 7747TIP3   OH273708   6.255   0.903   0.095
 7747TIP3    H173709   6.308   0.920   0.014
 7747TIP3    H273710   6.287   0.973   0.154
 7748TIP3   OH273711   6.033   0.962   0.482
 7748TIP3    H173712   6.046   1.029   0.551
 7748TIP3    H273713   5.942   0.976   0.457
 7749TIP3   OH273714   7.422   1.494  18.608
 7749TIP3    H173715   7.438   1.590  18.616
 7749TIP3    H273716   7.514   1.463  18.595
 7750TIP3   OH273717   5.705   1.463   0.044
 7750TIP3    H173718   5.791   1.424   0.062
 7750TIP3    H273719   5.687   1.527   0.114
 7751TIP3   OH273720   7.528   1.518   0.629
 7751TIP3    H173721   7.519   1.422   0.623
 7751TIP3    H273722   7.443   1.550   0.661
 7752TIP3   OH273723   6.662   1.848  18.965
 7752TIP3    H173724   6.652   1.841  18.871
 7752TIP3    H273725   6.664   1.944  18.983
 7753TIP3   OH273726   7.235   0.666   0.673
 7753TIP3    H173727   7.191   0.712   0.601
 7753TIP3    H273728   7.237   0.574   0.640
 7754TIP3   OH273729   5.951   1.309   0.476
 7754TIP3    H173730   5.975   1.267   0.561
 7754TIP3    H273731   5.867   1.266   0.455
 7755TIP3   OH273732   6.240   0.148   0.083
 7755TIP3    H173733   6.153   0.138   0.037
 7755TIP3    H273734   6.214   0.238   0.114
 7756TIP3   OH273735   6.695   0.137   0.423
 7756TIP3    H173736   6.731   0.074   0.485
 7756TIP3    H273737   6.602   0.104   0.414
 7757TIP3   OH273738   7.015   0.500   0.497
 7757TIP3    H173739   6.956   0.485   0.574
 7757TIP3    H273740   6.995   0.592   0.471
 7758TIP3   OH273741   6.648   0.378  18.613
 7758TIP3    H173742   6.620   0.373  18.706
 7758TIP3    H273743   6.619   0.291  18.584
 7759TIP3   OH273744   6.227   0.651   0.193
 7759TIP3    H173745   6.154   0.650   0.257
 7759TIP3    H273746   6.224   0.743   0.157
 7760TIP3   OH273747   6.228   0.671  19.151
 7760TIP3    H173748   6.135   0.640  19.143
 7760TIP3    H273749   6.263   0.632  19.068
 7761TIP3   OH273750   6.689   0.735   0.710
 7761TIP3    H173751   6.633   0.658   0.733
 7761TIP3    H273752   6.771   0.715   0.757
 7762TIP3   OH273753   5.983   0.710   0.368
 7762TIP3    H173754   5.992   0.733   0.462
 7762TIP3    H273755   5.952   0.620   0.376
 7763TIP3   OH273756   5.643   0.414  19.259
 7763TIP3    H173757   5.715   0.398  19.323
 7763TIP3    H273758   5.685   0.379  19.180
 7764TIP3   OH273759   5.782   0.475  18.764
 7764TIP3    H173760   5.836   0.527  18.704
 7764TIP3    H273761   5.713   0.535  18.795
 7765TIP3   OH273762   6.490   0.422  19.252
 7765TIP3    H173763   6.395   0.417  19.277
 7765TIP3    H273764   6.530   0.405  19.338
 7766TIP3   OH273765   5.964   0.577  19.140
 7766TIP3    H173766   5.877   0.593  19.098
 7766TIP3    H273767   5.998   0.495  19.098
 7767TIP3   OH273768   6.327   0.583  18.907
 7767TIP3    H173769   6.424   0.590  18.919
 7767TIP3    H273770   6.303   0.643  18.835
 7768TIP3   OH273771   6.924   0.334   0.098
 7768TIP3    H173772   6.865   0.347   0.177
 7768TIP3    H273773   6.855   0.319   0.034
 7769TIP3   OH273774   6.199   0.694  18.662
 7769TIP3    H173775   6.142   0.655  18.593
 7769TIP3    H273776   6.276   0.715  18.612
 7770TIP3   OH273777   7.244   1.903   0.742
 7770TIP3    H173778   7.270   1.944   0.656
 7770TIP3    H273779   7.316   1.942   0.797
 7771TIP3   OH273780   6.014   1.160   0.696
 7771TIP3    H173781   6.087   1.176   0.756
 7771TIP3    H273782   5.934   1.164   0.752
 7772TIP3   OH273783   6.606   0.686  19.441
 7772TIP3    H173784   6.670   0.638  19.390
 7772TIP3    H273785   6.598   0.638  19.523
 7773TIP3   OH273786   6.133   0.352  19.064
 7773TIP3    H173787   6.094   0.261  19.077
 7773TIP3    H273788   6.207   0.309  19.020
 7774TIP3   OH273789   6.923   0.433  18.681
 7774TIP3    H173790   6.829   0.442  18.654
 7774TIP3    H273791   6.949   0.524  18.695
 7775TIP3   OH273792   6.046   1.092  19.436
 7775TIP3    H173793   6.112   1.082  19.363
 7775TIP3    H273794   6.049   1.003  19.476
 7776TIP3   OH273795   7.470   0.640  18.815
 7776TIP3    H173796   7.425   0.601  18.738
 7776TIP3    H273797   7.487   0.730  18.780
 7777TIP3   OH273798   7.477   1.223   0.624
 7777TIP3    H173799   7.390   1.240   0.579
 7777TIP3    H273800   7.534   1.219   0.544
 7778TIP3   OH273801   7.309   1.520  18.854
 7778TIP3    H173802   7.273   1.436  18.884
 7778TIP3    H273803   7.341   1.501  18.763
 7779TIP3   OH273804   5.858   0.923  18.626
 7779TIP3    H173805   5.918   0.985  18.665
 7779TIP3    H273806   5.770   0.947  18.660
 7780TIP3   OH273807   6.473   1.616   0.286
 7780TIP3    H173808   6.515   1.701   0.266
 7780TIP3    H273809   6.525   1.588   0.362
 7781TIP3   OH273810   7.068   1.316  18.639
 7781TIP3    H173811   7.089   1.273  18.724
 7781TIP3    H273812   6.970   1.308  18.639
 7782TIP3   OH273813   7.098   1.673   0.505
 7782TIP3    H173814   7.029   1.629   0.454
 7782TIP3    H273815   7.120   1.745   0.440
 7783TIP3   OH273816   7.499   1.764  18.654
 7783TIP3    H173817   7.570   1.828  18.639
 7783TIP3    H273818   7.428   1.821  18.691
 7784TIP3   OH273819   5.786   0.357   0.505
 7784TIP3    H173820   5.806   0.434   0.451
 7784TIP3    H273821   5.872   0.309   0.495
 7785TIP3   OH273822   7.135   1.185  18.862
 7785TIP3    H173823   7.109   1.109  18.914
 7785TIP3    H273824   7.230   1.193  18.880
 7786TIP3   OH273825   5.873   1.580   0.288
 7786TIP3    H173826   5.895   1.486   0.297
 7786TIP3    H273827   5.894   1.610   0.378
 7787TIP3   OH273828   6.785   0.373   0.331
 7787TIP3    H173829   6.848   0.390   0.404
 7787TIP3    H273830   6.744   0.288   0.359
 7788TIP3   OH273831   6.857   0.339  18.926
 7788TIP3    H173832   6.879   0.381  18.839
 7788TIP3    H273833   6.920   0.383  18.985
 7789TIP3   OH273834   6.579   0.513  19.000
 7789TIP3    H173835   6.657   0.568  19.004
 7789TIP3    H273836   6.550   0.503  19.093
 7790TIP3   OH273837   6.672   0.219  19.100
 7790TIP3    H173838   6.626   0.286  19.153
 7790TIP3    H273839   6.731   0.272  19.041
 7791TIP3   OH273840   6.361   1.663  18.805
 7791TIP3    H173841   6.379   1.741  18.753
 7791TIP3    H273842   6.339   1.694  18.893
 7792TIP3   OH273843   6.230   0.325  18.775
 7792TIP3    H173844   6.225   0.420  18.796
 7792TIP3    H273845   6.323   0.305  18.790
 7793TIP3   OH273846   7.252   0.403   0.533
 7793TIP3    H173847   7.159   0.432   0.521
 7793TIP3    H273848   7.283   0.399   0.441
 7794TIP3   OH273849   7.220   1.706   0.100
 7794TIP3    H173850   7.209   1.774   0.031
 7794TIP3    H273851   7.314   1.712   0.122
 7795TIP3   OH273852   6.013   0.185  19.460
 7795TIP3    H173853   5.992   0.156  19.371
 7795TIP3    H273854   5.966   0.102  19.486
 7796TIP3   OH273855   5.860   1.508  19.065
 7796TIP3    H173856   5.780   1.562  19.067
 7796TIP3    H273857   5.915   1.559  19.003
 7797TIP3   OH273858   5.783   1.774   0.727
 7797TIP3    H173859   5.844   1.756   0.800
 7797TIP3    H273860   5.746   1.687   0.704
 7798TIP3   OH273861   6.906   1.510   0.756
 7798TIP3    H173862   6.869   1.423   0.779
 7798TIP3    H273863   6.976   1.522   0.821
 7799TIP3   OH273864   7.121   1.600  18.518
 7799TIP3    H173865   7.147   1.518  18.564
 7799TIP3    H273866   7.198   1.615  18.463
 7800TIP3   OH273867   5.783   1.156   0.821
 7800TIP3    H173868   5.795   1.062   0.796
 7800TIP3    H273869   5.703   1.177   0.772
 7801TIP3   OH273870   5.872   0.876   0.766
 7801TIP3    H173871   5.910   0.788   0.753
 7801TIP3    H273872   5.842   0.874   0.858
 7802TIP3   OH273873   6.313   0.526   0.628
 7802TIP3    H173874   6.310   0.449   0.567
 7802TIP3    H273875   6.300   0.593   0.559
 7803TIP3   OH273876   6.398   0.307   0.263
 7803TIP3    H173877   6.425   0.398   0.278
 7803TIP3    H273878   6.305   0.308   0.293
 7804TIP3   OH273879   6.932   0.669   0.879
 7804TIP3    H173880   6.954   0.576   0.876
 7804TIP3    H273881   7.019   0.712   0.884
 7805TIP3   OH273882   6.140   0.638   0.795
 7805TIP3    H173883   6.066   0.575   0.782
 7805TIP3    H273884   6.210   0.599   0.740
 7806TIP3   OH273885   6.461   0.067   0.361
 7806TIP3    H173886   6.436   0.162   0.364
 7806TIP3    H273887   6.369   0.038   0.351
 7807TIP3   OH273888   6.549   0.514   0.756
 7807TIP3    H173889   6.517   0.501   0.847
 7807TIP3    H273890   6.465   0.508   0.708
 7808TIP3   OH273891   6.818   0.439   0.669
 7808TIP3    H173892   6.722   0.443   0.682
 7808TIP3    H273893   6.844   0.375   0.737
 7809TIP3   OH273894   6.975   0.301   0.862
 7809TIP3    H173895   6.970   0.204   0.862
 7809TIP3    H273896   6.947   0.328   0.953
 7810TIP3   OH273897   5.964   0.434   0.766
 7810TIP3    H173898   5.973   0.352   0.713
 7810TIP3    H273899   5.951   0.390   0.854
 7811TIP3   OH273900   6.449   0.005   0.680
 7811TIP3    H173901   6.524  -0.050   0.662
 7811TIP3    H273902   6.428   0.044   0.593
 7812TIP3   OH273903   6.475   0.186   0.879
 7812TIP3    H173904   6.461   0.143   0.792
 7812TIP3    H273905   6.420   0.267   0.870
 7813TIP3   OH273906   5.656   1.882  19.111
 7813TIP3    H173907   5.586   1.831  19.064
 7813TIP3    H273908   5.685   1.814  19.176
 7814TIP3   OH273909   5.738   1.693  19.298
 7814TIP3    H173910   5.705   1.603  19.316
 7814TIP3    H273911   5.757   1.724  19.386
 7815TIP3   OH273912   7.448   1.728   0.419
 7815TIP3    H173913   7.404   1.652   0.376
 7815TIP3    H273914   7.506   1.685   0.484
 7816TIP3   OH273915   7.291   1.303   0.880
 7816TIP3    H173916   7.211   1.283   0.930
 7816TIP3    H273917   7.341   1.364   0.940
 7817TIP3   OH273918   7.422   1.136  18.898
 7817TIP3    H173919   7.510   1.176  18.917
 7817TIP3    H273920   7.422   1.065  18.967
 7818TIP3   OH273921   7.434   0.961  19.093
 7818TIP3    H173922   7.379   0.885  19.123
 7818TIP3    H273923   7.506   0.957  19.158
 7819TIP3   OH273924   7.293   1.501   0.340
 7819TIP3    H173925   7.223   1.539   0.395
 7819TIP3    H273926   7.240   1.464   0.267
 7820TIP3   OH273927   7.469   0.922  18.737
 7820TIP3    H173928   7.434   0.961  18.656
 7820TIP3    H273929   7.479   1.000  18.795
 7821TIP3   OH273930   7.249   0.789  19.147
 7821TIP3    H173931   7.228   0.695  19.138
 7821TIP3    H273932   7.209   0.813  19.230
 7822TIP3   OH273933   5.741   0.992   0.075
 7822TIP3    H173934   5.760   0.992  -0.021
 7822TIP3    H273935   5.830   0.984   0.112
 7823TIP3   OH273936   7.326   0.990   0.633
 7823TIP3    H173937   7.383   0.913   0.653
 7823TIP3    H273938   7.388   1.064   0.637
 7824TIP3   OH273939   7.470   0.772   0.687
 7824TIP3    H173940   7.383   0.729   0.690
 7824TIP3    H273941   7.530   0.695   0.696
 7825TIP3   OH273942   7.250   0.394  18.492
 7825TIP3    H173943   7.311   0.350  18.553
 7825TIP3    H273944   7.167   0.350  18.509
 7826TIP3   OH273945   7.210   0.546  18.996
 7826TIP3    H173946   7.244   0.454  19.000
 7826TIP3    H273947   7.286   0.587  18.951
 7827TIP3   OH273948   7.272   0.599   0.062
 7827TIP3    H173949   7.366   0.626   0.060
 7827TIP3    H273950   7.252   0.619   0.155
 7828TIP3   OH273951   7.278   0.677   0.339
 7828TIP3    H173952   7.191   0.706   0.371
 7828TIP3    H273953   7.327   0.759   0.317
 7829TIP3   OH273954   5.708   0.535   0.697
 7829TIP3    H173955   5.799   0.505   0.711
 7829TIP3    H273956   5.661   0.451   0.715
 7830TIP3   OH273957   7.268   0.278  18.997
 7830TIP3    H173958   7.293   0.231  19.078
 7830TIP3    H273959   7.217   0.210  18.948
 7831TIP3   OH273960   5.824   0.388  19.495
 7831TIP3    H173961   5.865   0.300  19.478
 7831TIP3    H273962   5.900   0.448  19.500
 7832TIP3   OH273963   5.658   0.657   0.088
 7832TIP3    H173964   5.708   0.634   0.006
 7832TIP3    H273965   5.700   0.743   0.103
 7833TIP3   OH273966   7.461   0.291   0.711
 7833TIP3    H173967   7.366   0.315   0.707
 7833TIP3    H273968   7.462   0.231   0.634
 7834TIP3   OH273969   5.583   0.256  18.926
 7834TIP3    H173970   5.542   0.341  18.932
 7834TIP3    H273971   5.674   0.284  18.903
 7835TIP3   OH273972   7.163   1.778  19.156
 7835TIP3    H173973   7.230   1.748  19.092
 7835TIP3    H273974   7.218   1.826  19.221
 7836TIP3   OH273975   5.687   0.160   0.322
 7836TIP3    H173976   5.621   0.132   0.387
 7836TIP3    H273977   5.635   0.215   0.261
 7837TIP3   OH273978   5.906   1.467   0.738
 7837TIP3    H173979   5.825   1.493   0.690
 7837TIP3    H273980   5.877   1.469   0.829
 7838TIP3   OH273981   6.195   1.566   0.342
 7838TIP3    H173982   6.167   1.658   0.340
 7838TIP3    H273983   6.292   1.576   0.337
 7839TIP3   OH273984   6.631   1.718   0.659
 7839TIP3    H173985   6.651   1.673   0.742
 7839TIP3    H273986   6.721   1.739   0.626
 7840TIP3   OH273987   6.861   1.837   0.583
 7840TIP3    H173988   6.933   1.778   0.557
 7840TIP3    H273989   6.898   1.882   0.662
 7841TIP3   OH273990   7.353   0.110   0.494
 7841TIP3    H173991   7.269   0.134   0.454
 7841TIP3    H273992   7.378   0.028   0.455
 7842TIP3   OH273993   6.189   1.855   0.268
 7842TIP3    H173994   6.101   1.864   0.309
 7842TIP3    H273995   6.176   1.910   0.190
 7843TIP3   OH273996   6.655   1.841   0.190
 7843TIP3    H173997   6.615   1.898   0.122
 7843TIP3    H273998   6.673   1.906   0.261
 7844TIP3   OH273999   6.889   1.728   0.288
 7844TIP3    H174000   6.801   1.750   0.253
 7844TIP3    H274001   6.935   1.813   0.279
 7845TIP3   OH274002   7.143   1.878   0.312
 7845TIP3    H174003   7.140   1.975   0.293
 7845TIP3    H274004   7.168   1.845   0.224
 7846TIP3   OH274005   6.095   1.628  19.402
 7846TIP3    H174006   6.088   1.531  19.402
 7846TIP3    H274007   6.186   1.645  19.435
 7847TIP3   OH274008   6.346   1.677   0.011
 7847TIP3    H174009   6.373   1.589  -0.019
 7847TIP3    H274010   6.363   1.670   0.107
 7848TIP3   OH274011   6.707   0.243  19.398
 7848TIP3    H174012   6.633   0.181  19.424
 7848TIP3    H274013   6.745   0.183  19.334
 7849TIP3   OH274014   7.204   0.050  19.359
 7849TIP3    H174015   7.271   0.118  19.344
 7849TIP3    H274016   7.119   0.089  19.379
 7850TIP3   OH274017   7.395   0.173  19.235
 7850TIP3    H174018   7.453   0.116  19.185
 7850TIP3    H274019   7.434   0.263  19.236
 7851TIP3   OH274020   6.067   0.134  19.134
 7851TIP3    H174021   5.971   0.125  19.110
 7851TIP3    H274022   6.047   0.051  19.175
 7852TIP3   OH274023   5.800   0.070  18.787
 7852TIP3    H174024   5.862   0.128  18.734
 7852TIP3    H274025   5.744   0.139  18.821
 7853TIP3   OH274026   6.386   0.107  19.159
 7853TIP3    H174027   6.479   0.131  19.157
 7853TIP3    H274028   6.379   0.072  19.249
 7854TIP3   OH274029   6.944   0.066  19.322
 7854TIP3    H174030   6.950   0.073  19.226
 7854TIP3    H274031   6.905  -0.024  19.329
 7855TIP3   OH274032   7.076   0.116  18.880
 7855TIP3    H174033   6.997   0.168  18.866
 7855TIP3    H274034   7.045   0.028  18.907
 7856TIP3   OH274035   5.806   1.681  18.854
 7856TIP3    H174036   5.738   1.679  18.784
 7856TIP3    H274037   5.807   1.775  18.875
 7857TIP3   OH274038   6.034   0.318  18.594
 7857TIP3    H174039   6.044   0.228  18.562
 7857TIP3    H274040   6.081   0.312  18.678
 7858TIP3   OH274041   6.502   0.307  18.841
 7858TIP3    H174042   6.520   0.244  18.913
 7858TIP3    H274043   6.503   0.389  18.894
 7859TIP3   OH274044   7.358   1.758  18.962
 7859TIP3    H174045   7.344   1.680  18.903
 7859TIP3    H274046   7.358   1.831  18.896
 7860TIP3   OH274047   5.924   0.206   0.674
 7860TIP3    H174048   5.881   0.121   0.688
 7860TIP3    H274049   6.017   0.176   0.672
 7861TIP3   OH274050   6.191   0.202   0.780
 7861TIP3    H174051   6.244   0.121   0.765
 7861TIP3    H274052   6.118   0.135   0.786
 7862TIP3   OH274053   5.986   1.773  18.554
 7862TIP3    H174054   5.966   1.800  18.643
 7862TIP3    H274055   6.064   1.715  18.561
 7863TIP3   OH274056   6.970   0.033   0.832
 7863TIP3    H174057   6.979  -0.023   0.910
 7863TIP3    H274058   7.059   0.024   0.794
 7864TIP3   OH274059   7.297   1.654   0.675
 7864TIP3    H174060   7.212   1.639   0.626
 7864TIP3    H274061   7.279   1.744   0.709
 7865TIP3   OH274062   7.849   0.908   0.211
 7865TIP3    H174063   7.865   0.839   0.276
 7865TIP3    H274064   7.925   0.967   0.220
 7866TIP3   OH274065   7.913   1.381   0.033
 7866TIP3    H174066   7.896   1.284   0.019
 7866TIP3    H274067   8.008   1.352   0.044
 7867TIP3   OH274068   7.558   0.669  19.069
 7867TIP3    H174069   7.561   0.767  19.063
 7867TIP3    H274070   7.531   0.646  18.979
 7868TIP3   OH274071   7.700   0.939  19.339
 7868TIP3    H174072   7.709   0.843  19.346
 7868TIP3    H274073   7.755   0.955  19.259
 7869TIP3   OH274074   8.017   0.471  19.351
 7869TIP3    H174075   8.077   0.533  19.303
 7869TIP3    H274076   8.037   0.401  19.288
 7870TIP3   OH274077   7.744   0.673  19.391
 7870TIP3    H174078   7.819   0.629  19.435
 7870TIP3    H274079   7.759   0.651  19.299
 7871TIP3   OH274080   8.064   1.241   0.418
 7871TIP3    H174081   8.092   1.325   0.374
 7871TIP3    H274082   7.973   1.263   0.435
 7872TIP3   OH274083   7.654   1.262  18.918
 7872TIP3    H174084   7.653   1.285  18.821
 7872TIP3    H274085   7.678   1.346  18.960
 7873TIP3   OH274086   8.107   1.010  19.230
 7873TIP3    H174087   8.077   0.995  19.139
 7873TIP3    H274088   8.177   0.950  19.249
 7874TIP3   OH274089   7.931   0.977   0.463
 7874TIP3    H174090   7.934   1.029   0.546
 7874TIP3    H274091   7.835   0.974   0.453
 7875TIP3   OH274092   7.961   1.600   0.641
 7875TIP3    H174093   8.021   1.554   0.574
 7875TIP3    H274094   7.934   1.517   0.683
 7876TIP3   OH274095   8.016   1.058  19.018
 7876TIP3    H174096   7.978   1.055  18.928
 7876TIP3    H274097   8.000   0.958  19.021
 7877TIP3   OH274098   7.604   1.176   0.380
 7877TIP3    H174099   7.568   1.168   0.291
 7877TIP3    H274100   7.616   1.081   0.400
 7878TIP3   OH274101   7.590   1.451   0.054
 7878TIP3    H174102   7.685   1.436   0.059
 7878TIP3    H274103   7.575   1.528   0.109
 7879TIP3   OH274104   7.911   1.744  19.146
 7879TIP3    H174105   7.928   1.695  19.229
 7879TIP3    H274106   7.828   1.699  19.122
 7880TIP3   OH274107   7.821   1.309   0.477
 7880TIP3    H174108   7.854   1.268   0.561
 7880TIP3    H274109   7.742   1.258   0.455
 7881TIP3   OH274110   8.111   0.665   0.258
 7881TIP3    H174111   8.017   0.644   0.273
 7881TIP3    H274112   8.097   0.719   0.179
 7882TIP3   OH274113   8.115   0.667  19.154
 7882TIP3    H174114   8.019   0.643  19.146
 7882TIP3    H274115   8.150   0.621  19.078
 7883TIP3   OH274116   7.873   0.681   0.368
 7883TIP3    H174117   7.884   0.720   0.456
 7883TIP3    H274118   7.834   0.594   0.382
 7884TIP3   OH274119   7.546   0.390  19.227
 7884TIP3    H174120   7.610   0.393  19.299
 7884TIP3    H274121   7.592   0.350  19.153
 7885TIP3   OH274122   7.680   0.468  18.783
 7885TIP3    H174123   7.713   0.518  18.708
 7885TIP3    H274124   7.598   0.518  18.803
 7886TIP3   OH274125   7.846   0.579  19.139
 7886TIP3    H174126   7.757   0.583  19.100
 7886TIP3    H274127   7.880   0.495  19.107
 7887TIP3   OH274128   8.173   0.642  18.592
 7887TIP3    H174129   8.074   0.650  18.583
 7887TIP3    H274130   8.196   0.736  18.597
 7888TIP3   OH274131   7.895   1.186   0.680
 7888TIP3    H174132   7.966   1.181   0.745
 7888TIP3    H274133   7.818   1.181   0.738
 7889TIP3   OH274134   7.912   1.027  19.474
 7889TIP3    H174135   7.973   1.058  19.402
 7889TIP3    H274136   7.956   0.948  19.499
 7890TIP3   OH274137   7.607   0.929   0.473
 7890TIP3    H174138   7.646   0.891   0.555
 7890TIP3    H274139   7.557   0.857   0.436
 7891TIP3   OH274140   7.712   0.927  18.672
 7891TIP3    H174141   7.785   0.993  18.671
 7891TIP3    H274142   7.630   0.975  18.666
 7892TIP3   OH274143   7.755   1.583   0.287
 7892TIP3    H174144   7.785   1.490   0.290
 7892TIP3    H274145   7.780   1.611   0.377
 7893TIP3   OH274146   7.803   1.135  18.769
 7893TIP3    H174147   7.794   1.157  18.862
 7893TIP3    H274148   7.897   1.164  18.756
 7894TIP3   OH274149   8.078   1.518  18.614
 7894TIP3    H174150   8.049   1.478  18.701
 7894TIP3    H274151   8.043   1.430  18.585
 7895TIP3   OH274152   7.734   1.516  19.073
 7895TIP3    H174153   7.652   1.566  19.065
 7895TIP3    H274154   7.786   1.559  19.002
 7896TIP3   OH274155   7.665   1.778   0.732
 7896TIP3    H174156   7.736   1.754   0.795
 7896TIP3    H274157   7.632   1.691   0.704
 7897TIP3   OH274158   7.671   1.202   0.791
 7897TIP3    H174159   7.696   1.107   0.787
 7897TIP3    H274160   7.579   1.194   0.756
 7898TIP3   OH274161   7.821   0.709   0.774
 7898TIP3    H174162   7.780   0.767   0.711
 7898TIP3    H274163   7.792   0.770   0.845
 7899TIP3   OH274164   8.045   0.620   0.824
 7899TIP3    H174165   7.957   0.588   0.790
 7899TIP3    H274166   8.099   0.604   0.743
 7900TIP3   OH274167   7.843   0.426   0.766
 7900TIP3    H174168   7.866   0.352   0.710
 7900TIP3    H274169   7.833   0.384   0.854
 7901TIP3   OH274170   7.653   1.340  18.604
 7901TIP3    H174171   7.743   1.354  18.636
 7901TIP3    H274172   7.665   1.275  18.537
 7902TIP3   OH274173   7.539   1.885  19.116
 7902TIP3    H174174   7.475   1.833  19.062
 7902TIP3    H274175   7.571   1.814  19.175
 7903TIP3   OH274176   7.624   1.695  19.300
 7903TIP3    H174177   7.591   1.605  19.317
 7903TIP3    H274178   7.649   1.724  19.389
 7904TIP3   OH274179   7.622   0.999   0.095
 7904TIP3    H174180   7.642   0.994  -0.003
 7904TIP3    H274181   7.717   0.983   0.119
 7905TIP3   OH274182   7.594   0.534   0.695
 7905TIP3    H174183   7.687   0.508   0.713
 7905TIP3    H274184   7.547   0.451   0.719
 7906TIP3   OH274185   7.537   0.660   0.083
 7906TIP3    H174186   7.596   0.635   0.008
 7906TIP3    H274187   7.587   0.737   0.111
 7907TIP3   OH274188   7.786   1.455   0.746
 7907TIP3    H174189   7.712   1.488   0.692
 7907TIP3    H274190   7.758   1.468   0.835
 7908TIP3   OH274191   8.062   1.551   0.434
 7908TIP3    H174192   8.017   1.608   0.370
 7908TIP3    H274193   8.148   1.547   0.384
 7909TIP3   OH274194   7.819   1.895   0.366
 7909TIP3    H174195   7.748   1.942   0.321
 7909TIP3    H274196   7.788   1.873   0.455
 7910TIP3   OH274197   8.053   1.858   0.290
 7910TIP3    H174198   7.959   1.874   0.311
 7910TIP3    H274199   8.068   1.901   0.202
 7911TIP3   OH274200   7.763   1.758   0.057
 7911TIP3    H174201   7.761   1.717   0.145
 7911TIP3    H274202   7.845   1.724   0.017
 7912TIP3   OH274203   7.945   1.592  19.351
 7912TIP3    H174204   7.935   1.516  19.413
 7912TIP3    H274205   8.027   1.626  19.392
 7913TIP3   OH274206   7.623   1.718  18.886
 7913TIP3    H174207   7.615   1.685  18.793
 7913TIP3    H274208   7.691   1.784  18.873
 7914TIP3   OH274209   7.871   1.765  18.548
 7914TIP3    H174210   7.847   1.802  18.634
 7914TIP3    H274211   7.954   1.720  18.565
 7915TIP3   OH274212   1.187   2.904  19.167
 7915TIP3    H174213   1.191   3.002  19.163
 7915TIP3    H274214   1.117   2.884  19.105
 7916TIP3   OH274215   1.080   2.830   0.041
 7916TIP3    H174216   1.071   2.769   0.116
 7916TIP3    H274217   1.041   2.783  -0.034
 7917TIP3   OH274218   1.449   3.118  19.351
 7917TIP3    H174219   1.400   3.051  19.399
 7917TIP3    H274220   1.447   3.194  19.411
 7918TIP3   OH274221   0.144   2.825  19.284
 7918TIP3    H174222   0.157   2.740  19.328
 7918TIP3    H274223   0.209   2.832  19.214
 7919TIP3   OH274224   0.915   3.077   0.082
 7919TIP3    H174225   0.947   3.004   0.028
 7919TIP3    H274226   0.990   3.088   0.142
 7920TIP3   OH274227   1.780   2.233   0.167
 7920TIP3    H174228   1.789   2.296   0.242
 7920TIP3    H274229   1.827   2.279   0.097
 7921TIP3   OH274230   1.231   2.516   0.122
 7921TIP3    H174231   1.246   2.420   0.119
 7921TIP3    H274232   1.221   2.532   0.026
 7922TIP3   OH274233   1.822   2.382   0.389
 7922TIP3    H174234   1.751   2.450   0.383
 7922TIP3    H274235   1.825   2.370   0.486
 7923TIP3   OH274236   1.154   3.165  19.079
 7923TIP3    H174237   1.138   3.139  18.987
 7923TIP3    H274238   1.133   3.259  19.080
 7924TIP3   OH274239   0.688   2.981   0.278
 7924TIP3    H174240   0.613   3.041   0.293
 7924TIP3    H274241   0.756   3.039   0.243
 7925TIP3   OH274242   0.528   3.182   0.360
 7925TIP3    H174243   0.523   3.271   0.320
 7925TIP3    H274244   0.436   3.172   0.393
 7926TIP3   OH274245   0.129   3.146  18.909
 7926TIP3    H174246   0.112   3.174  18.818
 7926TIP3    H274247   0.144   3.230  18.956
 7927TIP3   OH274248   1.498   3.309   0.109
 7927TIP3    H174249   1.402   3.319   0.124
 7927TIP3    H274250   1.524   3.402   0.091
 7928TIP3   OH274251   1.529   2.137   0.249
 7928TIP3    H174252   1.455   2.198   0.243
 7928TIP3    H274253   1.597   2.179   0.194
 7929TIP3   OH274254   0.828   1.951  -0.003
 7929TIP3    H174255   0.815   1.854  -0.013
 7929TIP3    H274256   0.737   1.978   0.023
 7930TIP3   OH274257   1.616   3.138   0.471
 7930TIP3    H174258   1.619   3.073   0.396
 7930TIP3    H274259   1.623   3.223   0.423
 7931TIP3   OH274260   1.062   2.678  18.630
 7931TIP3    H174261   1.138   2.683  18.689
 7931TIP3    H274262   1.090   2.619  18.560
 7932TIP3   OH274263   1.397   2.847  19.008
 7932TIP3    H174264   1.327   2.874  19.072
 7932TIP3    H274265   1.449   2.784  19.061
 7933TIP3   OH274266   1.392   2.666   0.449
 7933TIP3    H174267   1.394   2.748   0.501
 7933TIP3    H274268   1.329   2.696   0.380
 7934TIP3   OH274269   0.698   3.259  19.466
 7934TIP3    H174270   0.692   3.200  19.391
 7934TIP3    H274271   0.771   3.219  19.517
 7935TIP3   OH274272   1.233   3.347   0.167
 7935TIP3    H174273   1.206   3.407   0.234
 7935TIP3    H274274   1.209   3.259   0.206
 7936TIP3   OH274275   0.689   3.236   0.566
 7936TIP3    H174276   0.647   3.311   0.612
 7936TIP3    H274277   0.623   3.215   0.495
 7937TIP3   OH274278   1.290   2.762  18.777
 7937TIP3    H174279   1.340   2.789  18.858
 7937TIP3    H274280   1.324   2.824  18.711
 7938TIP3   OH274281   0.513   3.439   0.638
 7938TIP3    H174282   0.507   3.427   0.542
 7938TIP3    H274283   0.420   3.426   0.666
 7939TIP3   OH274284   0.110   3.035   0.356
 7939TIP3    H174285   0.031   3.063   0.304
 7939TIP3    H274286   0.072   2.960   0.406
 7940TIP3   OH274287   0.055   3.286   0.053
 7940TIP3    H174288   0.147   3.309   0.050
 7940TIP3    H274289   0.031   3.358   0.115
 7941TIP3   OH274290   1.867   3.402   0.642
 7941TIP3    H174291   1.855   3.308   0.615
 7941TIP3    H274292   1.775   3.428   0.658
 7942TIP3   OH274293   0.961   3.363   0.508
 7942TIP3    H174294   0.968   3.443   0.565
 7942TIP3    H274295   0.878   3.324   0.538
 7943TIP3   OH274296   0.370   3.623  19.146
 7943TIP3    H174297   0.386   3.579  19.233
 7943TIP3    H274298   0.289   3.577  19.123
 7944TIP3   OH274299   1.579   2.552   0.680
 7944TIP3    H174300   1.540   2.600   0.605
 7944TIP3    H274301   1.583   2.462   0.644
 7945TIP3   OH274302   0.289   3.199   0.479
 7945TIP3    H174303   0.313   3.156   0.562
 7945TIP3    H274304   0.209   3.150   0.450
 7946TIP3   OH274305   0.565   2.039   0.074
 7946TIP3    H174306   0.475   2.030   0.034
 7946TIP3    H274307   0.554   2.125   0.115
 7947TIP3   OH274308   1.359   2.389   0.497
 7947TIP3    H174309   1.301   2.374   0.573
 7947TIP3    H274310   1.341   2.480   0.470
 7948TIP3   OH274311   1.128   2.599  19.029
 7948TIP3    H174312   1.083   2.677  18.997
 7948TIP3    H274313   1.194   2.582  18.960
 7949TIP3   OH274314   1.030   2.618   0.701
 7949TIP3    H174315   0.973   2.545   0.733
 7949TIP3    H274316   1.111   2.607   0.752
 7950TIP3   OH274317   1.225   2.543  19.315
 7950TIP3    H174318   1.198   2.603  19.243
 7950TIP3    H274319   1.236   2.461  19.266
 7951TIP3   OH274320   1.155   2.709   0.301
 7951TIP3    H174321   1.180   2.640   0.237
 7951TIP3    H274322   1.102   2.660   0.365
 7952TIP3   OH274323   0.824   2.301  19.256
 7952TIP3    H174324   0.731   2.306  19.281
 7952TIP3    H274325   0.873   2.288  19.338
 7953TIP3   OH274326   1.265   2.234   0.104
 7953TIP3    H174327   1.200   2.230   0.175
 7953TIP3    H274328   1.215   2.200   0.028
 7954TIP3   OH274329   0.869   3.045  18.856
 7954TIP3    H174330   0.802   2.984  18.823
 7954TIP3    H274331   0.856   3.039  18.952
 7955TIP3   OH274332   1.593   2.955   0.261
 7955TIP3    H174333   1.652   3.002   0.200
 7955TIP3    H274334   1.508   2.960   0.214
 7956TIP3   OH274335   1.261   2.313  18.672
 7956TIP3    H174336   1.169   2.329  18.654
 7956TIP3    H274337   1.292   2.399  18.705
 7957TIP3   OH274338   1.025   3.058   0.506
 7957TIP3    H174339   0.989   3.018   0.585
 7957TIP3    H274340   1.001   3.151   0.516
 7958TIP3   OH274341   1.335   2.507  18.842
 7958TIP3    H174342   1.426   2.494  18.875
 7958TIP3    H274343   1.340   2.587  18.786
 7959TIP3   OH274344   1.085   3.186  18.764
 7959TIP3    H174345   1.051   3.269  18.795
 7959TIP3    H274346   1.012   3.121  18.778
 7960TIP3   OH274347   0.080   2.813   0.493
 7960TIP3    H174348   0.109   2.767   0.572
 7960TIP3    H274349   0.024   2.750   0.449
 7961TIP3   OH274350   1.253   3.307   0.501
 7961TIP3    H174351   1.160   3.319   0.477
 7961TIP3    H274352   1.250   3.330   0.594
 7962TIP3   OH274353   1.824   3.115   0.624
 7962TIP3    H174354   1.735   3.125   0.581
 7962TIP3    H274355   1.878   3.102   0.543
 7963TIP3   OH274356   1.371   2.888   0.088
 7963TIP3    H174357   1.277   2.866   0.078
 7963TIP3    H274358   1.414   2.810   0.048
 7964TIP3   OH274359   0.626   3.315  19.168
 7964TIP3    H174360   0.673   3.399  19.154
 7964TIP3    H274361   0.538   3.343  19.140
 7965TIP3   OH274362   0.764   3.085  19.123
 7965TIP3    H174363   0.736   3.178  19.133
 7965TIP3    H274364   0.692   3.041  19.169
 7966TIP3   OH274365   0.816   3.500   0.292
 7966TIP3    H174366   0.852   3.586   0.269
 7966TIP3    H274367   0.873   3.469   0.365
 7967TIP3   OH274368   0.637   3.587  19.083
 7967TIP3    H174369   0.540   3.598  19.090
 7967TIP3    H274370   0.668   3.673  19.117
 7968TIP3   OH274371   1.167   3.106   0.259
 7968TIP3    H174372   1.129   3.081   0.345
 7968TIP3    H274373   1.230   3.034   0.240
 7969TIP3   OH274374   0.243   2.291   0.448
 7969TIP3    H174375   0.152   2.318   0.441
 7969TIP3    H274376   0.236   2.201   0.483
 7970TIP3   OH274377   1.477   3.064  18.855
 7970TIP3    H174378   1.450   2.995  18.917
 7970TIP3    H274379   1.569   3.081  18.881
 7971TIP3   OH274380   0.220   3.465   0.294
 7971TIP3    H174381   0.244   3.371   0.293
 7971TIP3    H274382   0.246   3.495   0.381
 7972TIP3   OH274383   0.686   3.273  18.727
 7972TIP3    H174384   0.712   3.218  18.802
 7972TIP3    H274385   0.697   3.362  18.762
 7973TIP3   OH274386   0.343   3.002  18.780
 7973TIP3    H174387   0.271   3.036  18.836
 7973TIP3    H274388   0.391   3.081  18.754
 7974TIP3   OH274389   0.920   2.396  19.001
 7974TIP3    H174390   1.000   2.451  19.004
 7974TIP3    H274391   0.895   2.384  19.094
 7975TIP3   OH274392   1.602   2.291   0.531
 7975TIP3    H174393   1.506   2.315   0.520
 7975TIP3    H274394   1.626   2.286   0.438
 7976TIP3   OH274395   1.456   2.663  19.406
 7976TIP3    H174396   1.372   2.621  19.381
 7976TIP3    H274397   1.500   2.598  19.463
 7977TIP3   OH274398   0.401   3.258  18.665
 7977TIP3    H174399   0.462   3.325  18.697
 7977TIP3    H274400   0.449   3.213  18.596
 7978TIP3   OH274401   1.561   3.593   0.103
 7978TIP3    H174402   1.546   3.657   0.033
 7978TIP3    H274403   1.657   3.599   0.121
 7979TIP3   OH274404   0.320   2.000  19.446
 7979TIP3    H174405   0.289   2.010  19.357
 7979TIP3    H274406   0.266   1.929  19.480
 7980TIP3   OH274407   0.213   3.391  19.065
 7980TIP3    H174408   0.127   3.437  19.063
 7980TIP3    H274409   0.257   3.440  18.996
 7981TIP3   OH274410   0.180   3.623   0.713
 7981TIP3    H174411   0.195   3.633   0.808
 7981TIP3    H274412   0.094   3.578   0.710
 7982TIP3   OH274413   0.599   3.557   0.886
 7982TIP3    H174414   0.671   3.500   0.916
 7982TIP3    H274415   0.590   3.525   0.793
 7983TIP3   OH274416   0.124   3.039   0.823
 7983TIP3    H174417   0.141   2.950   0.791
 7983TIP3    H274418   0.050   3.067   0.767
 7984TIP3   OH274419   0.796   3.040   0.759
 7984TIP3    H174420   0.755   3.067   0.675
 7984TIP3    H274421   0.805   2.945   0.755
 7985TIP3   OH274422   1.362   3.026   0.502
 7985TIP3    H174423   1.440   3.084   0.495
 7985TIP3    H274424   1.291   3.090   0.508
 7986TIP3   OH274425   1.105   2.909   0.833
 7986TIP3    H174426   1.201   2.913   0.822
 7986TIP3    H274427   1.090   2.834   0.894
 7987TIP3   OH274428   1.277   2.561   0.876
 7987TIP3    H174429   1.298   2.467   0.876
 7987TIP3    H274430   1.365   2.602   0.881
 7988TIP3   OH274431   1.410   2.832   0.693
 7988TIP3    H174432   1.384   2.906   0.634
 7988TIP3    H274433   1.507   2.831   0.678
 7989TIP3   OH274434   0.887   2.403   0.760
 7989TIP3    H174435   0.859   2.388   0.851
 7989TIP3    H274436   0.807   2.389   0.707
 7990TIP3   OH274437   0.788   1.915   0.668
 7990TIP3    H174438   0.850   1.841   0.667
 7990TIP3    H274439   0.770   1.929   0.575
 7991TIP3   OH274440   0.820   2.077   0.875
 7991TIP3    H174441   0.803   2.023   0.794
 7991TIP3    H274442   0.756   2.148   0.863
 7992TIP3   OH274443   0.125   3.225  18.613
 7992TIP3    H174444   0.219   3.235  18.638
 7992TIP3    H274445   0.129   3.159  18.543
 7993TIP3   OH274446   8.152   3.728  19.168
 7993TIP3    H174447   8.099   3.714  19.087
 7993TIP3    H274448   8.197   3.646  19.183
 7994TIP3   OH274449   0.122   3.533  19.258
 7994TIP3    H174450   0.052   3.481  19.299
 7994TIP3    H274451   0.131   3.602  19.326
 7995TIP3   OH274452   1.836   3.659   0.121
 7995TIP3    H174453   1.836   3.672   0.217
 7995TIP3    H274454   1.911   3.712   0.094
 7996TIP3   OH274455   1.800   3.612   0.411
 7996TIP3    H174456   1.744   3.539   0.377
 7996TIP3    H274457   1.845   3.571   0.484
 7997TIP3   OH274458   1.767   3.018  18.903
 7997TIP3    H174459   1.854   3.058  18.915
 7997TIP3    H274460   1.771   2.942  18.966
 7998TIP3   OH274461   1.802   2.826  19.085
 7998TIP3    H174462   1.729   2.774  19.123
 7998TIP3    H274463   1.860   2.840  19.160
 7999TIP3   OH274464   1.780   3.096   0.109
 7999TIP3    H174465   1.865   3.064   0.078
 7999TIP3    H274466   1.791   3.193   0.097
 8000TIP3   OH274467   1.634   3.391   0.345
 8000TIP3    H174468   1.561   3.424   0.398
 8000TIP3    H274469   1.584   3.350   0.271
 8001TIP3   OH274470   1.835   2.811  18.724
 8001TIP3    H174471   1.776   2.846  18.657
 8001TIP3    H274472   1.829   2.878  18.793
 8002TIP3   OH274473   1.588   2.677  19.145
 8002TIP3    H174474   1.568   2.582  19.137
 8002TIP3    H274475   1.547   2.699  19.230
 8003TIP3   OH274476   0.075   2.871   0.070
 8003TIP3    H174477   0.099   2.877  -0.024
 8003TIP3    H274478   0.162   2.876   0.111
 8004TIP3   OH274479   1.670   2.869   0.640
 8004TIP3    H174480   1.729   2.794   0.652
 8004TIP3    H274481   1.729   2.946   0.641
 8005TIP3   OH274482   1.596   2.282  18.496
 8005TIP3    H174483   1.656   2.236  18.555
 8005TIP3    H274484   1.511   2.238  18.510
 8006TIP3   OH274485   1.557   2.438  18.992
 8006TIP3    H174486   1.582   2.345  19.001
 8006TIP3    H274487   1.634   2.477  18.948
 8007TIP3   OH274488   1.626   2.563   0.343
 8007TIP3    H174489   1.536   2.590   0.371
 8007TIP3    H274490   1.660   2.650   0.313
 8008TIP3   OH274491   1.861   1.964   0.868
 8008TIP3    H174492   1.885   1.896   0.806
 8008TIP3    H274493   1.860   2.047   0.818
 8009TIP3   OH274494   1.801   2.175   0.711
 8009TIP3    H174495   1.708   2.202   0.702
 8009TIP3    H274496   1.810   2.124   0.630
 8010TIP3   OH274497   8.185   2.072   0.344
 8010TIP3    H174498   8.117   2.012   0.379
 8010TIP3    H274499   8.134   2.104   0.268
 8011TIP3   OH274500   0.248   3.347   0.737
 8011TIP3    H174501   0.168   3.379   0.693
 8011TIP3    H274502   0.222   3.348   0.830
 8012TIP3   OH274503   0.541   3.455   0.361
 8012TIP3    H174504   0.505   3.542   0.334
 8012TIP3    H274505   0.634   3.464   0.332
 8013TIP3   OH274506   0.977   3.589   0.655
 8013TIP3    H174507   0.994   3.562   0.746
 8013TIP3    H274508   1.060   3.631   0.627
 8014TIP3   OH274509   0.295   3.766   0.370
 8014TIP3    H174510   0.231   3.829   0.333
 8014TIP3    H274511   0.256   3.760   0.458
 8015TIP3   OH274512   0.537   3.738   0.267
 8015TIP3    H174513   0.447   3.750   0.308
 8015TIP3    H274514   0.525   3.796   0.192
 8016TIP3   OH274515   0.314   3.672   0.114
 8016TIP3    H174516   0.242   3.616   0.154
 8016TIP3    H274517   0.329   3.624   0.031
 8017TIP3   OH274518   0.432   3.514  19.392
 8017TIP3    H174519   0.421   3.421  19.414
 8017TIP3    H274520   0.518   3.531  19.436
 8018TIP3   OH274521   0.695   3.560   0.008
 8018TIP3    H174522   0.714   3.469  -0.018
 8018TIP3    H274523   0.700   3.556   0.105
 8019TIP3   OH274524   1.045   2.127  19.395
 8019TIP3    H174525   0.976   2.063  19.422
 8019TIP3    H274526   1.099   2.074  19.335
 8020TIP3   OH274527   0.734   1.978  19.158
 8020TIP3    H174528   0.819   2.022  19.156
 8020TIP3    H274529   0.720   1.967  19.253
 8021TIP3   OH274530   0.116   3.524  18.860
 8021TIP3    H174531   0.078   3.553  18.777
 8021TIP3    H274532   0.151   3.616  18.880
 8022TIP3   OH274533   0.838   2.187  18.847
 8022TIP3    H174534   0.867   2.129  18.918
 8022TIP3    H274535   0.847   2.275  18.891
 8023TIP3   OH274536   0.470   1.983   0.811
 8023TIP3    H174537   0.557   1.946   0.790
 8023TIP3    H274538   0.427   1.906   0.854
 8024TIP3   OH274539   0.331   3.651  18.550
 8024TIP3    H174540   0.308   3.682  18.637
 8024TIP3    H274541   0.410   3.602  18.564
 8025TIP3   OH274542   3.071   2.904  19.169
 8025TIP3    H174543   3.080   3.002  19.162
 8025TIP3    H274544   3.002   2.884  19.106
 8026TIP3   OH274545   2.962   2.829   0.042
 8026TIP3    H174546   2.955   2.762   0.111
 8026TIP3    H274547   2.928   2.778  -0.034
 8027TIP3   OH274548   2.289   3.240   0.054
 8027TIP3    H174549   2.255   3.159   0.014
 8027TIP3    H274550   2.385   3.225   0.058
 8028TIP3   OH274551   2.799   3.070   0.091
 8028TIP3    H174552   2.835   3.009   0.026
 8028TIP3    H274553   2.879   3.089   0.141
 8029TIP3   OH274554   3.663   2.261   0.155
 8029TIP3    H174555   3.683   2.314   0.237
 8029TIP3    H274556   3.726   2.302   0.093
 8030TIP3   OH274557   3.119   2.515   0.120
 8030TIP3    H174558   3.124   2.419   0.120
 8030TIP3    H274559   3.105   2.534   0.025
 8031TIP3   OH274560   3.205   2.336  19.157
 8031TIP3    H174561   3.273   2.306  19.220
 8031TIP3    H274562   3.256   2.391  19.095
 8032TIP3   OH274563   3.702   2.377   0.389
 8032TIP3    H174564   3.640   2.453   0.382
 8032TIP3    H274565   3.712   2.368   0.486
 8033TIP3   OH274566   2.315   2.218   0.246
 8033TIP3    H174567   2.289   2.273   0.173
 8033TIP3    H274568   2.251   2.240   0.318
 8034TIP3   OH274569   3.046   3.159  19.077
 8034TIP3    H174570   3.020   3.137  18.988
 8034TIP3    H274571   3.020   3.253  19.086
 8035TIP3   OH274572   3.387   2.265  19.354
 8035TIP3    H174573   3.359   2.193  19.410
 8035TIP3    H274574   3.448   2.318  19.408
 8036TIP3   OH274575   3.410   2.144   0.238
 8036TIP3    H174576   3.336   2.205   0.249
 8036TIP3    H274577   3.474   2.199   0.191
 8037TIP3   OH274578   3.681   2.769   0.274
 8037TIP3    H174579   3.616   2.840   0.278
 8037TIP3    H274580   3.727   2.794   0.192
 8038TIP3   OH274581   3.283   2.843  19.008
 8038TIP3    H174582   3.215   2.875  19.071
 8038TIP3    H274583   3.334   2.782  19.064
 8039TIP3   OH274584   2.463   2.923  19.193
 8039TIP3    H174585   2.415   2.880  19.122
 8039TIP3    H274586   2.505   2.848  19.238
 8040TIP3   OH274587   2.580   3.254  19.472
 8040TIP3    H174588   2.578   3.203  19.390
 8040TIP3    H274589   2.658   3.219  19.518
 8041TIP3   OH274590   3.172   2.763  18.777
 8041TIP3    H174591   3.223   2.786  18.859
 8041TIP3    H274592   3.209   2.822  18.712
 8042TIP3   OH274593   2.397   3.444   0.641
 8042TIP3    H174594   2.400   3.426   0.546
 8042TIP3    H274595   2.305   3.422   0.663
 8043TIP3   OH274596   3.542   1.944  18.771
 8043TIP3    H174597   3.448   1.955  18.786
 8043TIP3    H274598   3.567   2.024  18.723
 8044TIP3   OH274599   1.948   3.064   0.379
 8044TIP3    H174600   1.905   3.057   0.292
 8044TIP3    H274601   1.960   2.970   0.398
 8045TIP3   OH274602   1.932   3.332   0.058
 8045TIP3    H174603   2.028   3.324   0.055
 8045TIP3    H274604   1.920   3.415   0.108
 8046TIP3   OH274605   2.252   3.621  19.148
 8046TIP3    H174606   2.271   3.580  19.235
 8046TIP3    H274607   2.172   3.576  19.120
 8047TIP3   OH274608   3.468   2.554   0.672
 8047TIP3    H174609   3.419   2.599   0.602
 8047TIP3    H274610   3.466   2.461   0.644
 8048TIP3   OH274611   2.449   2.042   0.065
 8048TIP3    H174612   2.357   2.029   0.034
 8048TIP3    H274613   2.437   2.122   0.119
 8049TIP3   OH274614   3.247   2.391   0.499
 8049TIP3    H174615   3.184   2.369   0.571
 8049TIP3    H274616   3.220   2.477   0.469
 8050TIP3   OH274617   2.456   2.535   0.189
 8050TIP3    H174618   2.389   2.533   0.257
 8050TIP3    H274619   2.453   2.625   0.155
 8051TIP3   OH274620   2.912   2.613   0.702
 8051TIP3    H174621   2.857   2.544   0.739
 8051TIP3    H274622   2.995   2.605   0.752
 8052TIP3   OH274623   3.110   2.544  19.315
 8052TIP3    H174624   3.085   2.604  19.242
 8052TIP3    H274625   3.121   2.461  19.264
 8053TIP3   OH274626   1.889   2.282  19.231
 8053TIP3    H174627   1.951   2.269  19.305
 8053TIP3    H274628   1.930   2.235  19.158
 8054TIP3   OH274629   3.471   3.797   0.741
 8054TIP3    H174630   3.500   3.831   0.655
 8054TIP3    H274631   3.545   3.823   0.798
 8055TIP3   OH274632   2.844   2.580  19.445
 8055TIP3    H174633   2.894   2.521  19.389
 8055TIP3    H274634   2.825   2.526  19.523
 8056TIP3   OH274635   2.706   2.413   0.212
 8056TIP3    H174636   2.622   2.464   0.221
 8056TIP3    H274637   2.759   2.447   0.287
 8057TIP3   OH274638   3.146   2.314  18.668
 8057TIP3    H174639   3.053   2.330  18.656
 8057TIP3    H274640   3.179   2.400  18.703
 8058TIP3   OH274641   3.223   2.501  18.834
 8058TIP3    H174642   3.310   2.495  18.876
 8058TIP3    H274643   3.223   2.587  18.789
 8059TIP3   OH274644   3.704   3.104   0.619
 8059TIP3    H174645   3.621   3.137   0.582
 8059TIP3    H274646   3.763   3.107   0.541
 8060TIP3   OH274647   3.254   2.879   0.093
 8060TIP3    H174648   3.161   2.866   0.073
 8060TIP3    H274649   3.299   2.808   0.046
 8061TIP3   OH274650   2.507   3.323  19.177
 8061TIP3    H174651   2.566   3.395  19.151
 8061TIP3    H274652   2.421   3.345  19.140
 8062TIP3   OH274653   2.698   3.499   0.291
 8062TIP3    H174654   2.740   3.582   0.265
 8062TIP3    H274655   2.757   3.471   0.362
 8063TIP3   OH274656   3.732   3.653  18.674
 8063TIP3    H174657   3.796   3.710  18.631
 8063TIP3    H274658   3.655   3.709  18.687
 8064TIP3   OH274659   2.136   2.284   0.440
 8064TIP3    H174660   2.048   2.323   0.444
 8064TIP3    H274661   2.126   2.202   0.489
 8065TIP3   OH274662   2.099   3.468   0.285
 8065TIP3    H174663   2.127   3.376   0.286
 8065TIP3    H274664   2.130   3.498   0.370
 8066TIP3   OH274665   3.086   2.224  18.919
 8066TIP3    H174666   3.111   2.271  18.838
 8066TIP3    H274667   3.141   2.271  18.984
 8067TIP3   OH274668   2.862   2.498   0.447
 8067TIP3    H174669   2.875   2.559   0.522
 8067TIP3    H274670   2.930   2.432   0.458
 8068TIP3   OH274671   3.483   2.287   0.532
 8068TIP3    H174672   3.389   2.316   0.523
 8068TIP3    H274673   3.512   2.286   0.441
 8069TIP3   OH274674   3.344   2.666  19.407
 8069TIP3    H174675   3.261   2.623  19.381
 8069TIP3    H274676   3.390   2.596  19.460
 8070TIP3   OH274677   2.288   3.263  18.669
 8070TIP3    H174678   2.348   3.329  18.698
 8070TIP3    H274679   2.330   3.212  18.598
 8071TIP3   OH274680   2.195   2.005  19.451
 8071TIP3    H174681   2.177   2.006  19.355
 8071TIP3    H274682   2.159   1.920  19.480
 8072TIP3   OH274683   2.019   3.661   0.724
 8072TIP3    H174684   2.078   3.642   0.801
 8072TIP3    H274685   1.975   3.579   0.703
 8073TIP3   OH274686   2.463   3.535   0.894
 8073TIP3    H174687   2.551   3.506   0.921
 8073TIP3    H274688   2.471   3.525   0.796
 8074TIP3   OH274689   2.675   3.037   0.764
 8074TIP3    H174690   2.642   3.066   0.678
 8074TIP3    H274691   2.694   2.944   0.753
 8075TIP3   OH274692   2.568   2.875  18.739
 8075TIP3    H174693   2.514   2.830  18.804
 8075TIP3    H274694   2.590   2.810  18.673
 8076TIP3   OH274695   2.994   2.910   0.832
 8076TIP3    H174696   3.089   2.914   0.826
 8076TIP3    H274697   2.978   2.836   0.891
 8077TIP3   OH274698   2.567   2.230   0.355
 8077TIP3    H174699   2.618   2.279   0.289
 8077TIP3    H274700   2.477   2.222   0.319
 8078TIP3   OH274701   3.160   2.555   0.885
 8078TIP3    H174702   3.185   2.462   0.874
 8078TIP3    H274703   3.247   2.599   0.881
 8079TIP3   OH274704   3.301   2.834   0.700
 8079TIP3    H174705   3.270   2.902   0.639
 8079TIP3    H274706   3.396   2.830   0.677
 8080TIP3   OH274707   3.043   2.326   0.672
 8080TIP3    H174708   2.948   2.319   0.681
 8080TIP3    H274709   3.077   2.259   0.734
 8081TIP3   OH274710   3.198   2.182   0.857
 8081TIP3    H174711   3.203   2.087   0.869
 8081TIP3    H274712   3.180   2.212   0.950
 8082TIP3   OH274713   2.177   2.308   0.776
 8082TIP3    H174714   2.209   2.243   0.711
 8082TIP3    H274715   2.177   2.259   0.858
 8083TIP3   OH274716   1.876   3.759  19.112
 8083TIP3    H174717   1.807   3.709  19.071
 8083TIP3    H274718   1.913   3.689  19.172
 8084TIP3   OH274719   1.964   3.579  19.299
 8084TIP3    H174720   1.931   3.490  19.318
 8084TIP3    H274721   1.992   3.606  19.389
 8085TIP3   OH274722   3.716   2.812  18.725
 8085TIP3    H174723   3.660   2.847  18.654
 8085TIP3    H274724   3.717   2.880  18.792
 8086TIP3   OH274725   3.468   2.677  19.140
 8086TIP3    H174726   3.456   2.581  19.141
 8086TIP3    H274727   3.440   2.702  19.230
 8087TIP3   OH274728   3.563   2.876   0.650
 8087TIP3    H174729   3.622   2.797   0.656
 8087TIP3    H274730   3.626   2.950   0.639
 8088TIP3   OH274731   3.709   2.664   0.696
 8088TIP3    H174732   3.621   2.621   0.693
 8088TIP3    H274733   3.766   2.586   0.699
 8089TIP3   OH274734   3.475   2.280  18.491
 8089TIP3    H174735   3.540   2.241  18.553
 8089TIP3    H274736   3.393   2.237  18.513
 8090TIP3   OH274737   3.442   2.435  18.993
 8090TIP3    H174738   3.469   2.341  19.000
 8090TIP3    H274739   3.517   2.473  18.948
 8091TIP3   OH274740   3.502   2.485   0.062
 8091TIP3    H174741   3.596   2.515   0.059
 8091TIP3    H274742   3.483   2.504   0.155
 8092TIP3   OH274743   3.507   2.559   0.338
 8092TIP3    H174744   3.422   2.591   0.370
 8092TIP3    H274745   3.554   2.643   0.318
 8093TIP3   OH274746   1.933   2.412   0.686
 8093TIP3    H174747   2.027   2.399   0.708
 8093TIP3    H274748   1.890   2.334   0.722
 8094TIP3   OH274749   3.494   2.163  18.998
 8094TIP3    H174750   3.522   2.116  19.077
 8094TIP3    H274751   3.447   2.096  18.947
 8095TIP3   OH274752   2.049   2.239  19.453
 8095TIP3    H174753   2.104   2.161  19.477
 8095TIP3    H274754   2.101   2.312  19.487
 8096TIP3   OH274755   3.691   2.166  18.650
 8096TIP3    H174756   3.732   2.093  18.602
 8096TIP3    H274757   3.760   2.235  18.651
 8097TIP3   OH274758   1.920   2.049   0.326
 8097TIP3    H174759   1.849   2.020   0.384
 8097TIP3    H274760   1.870   2.104   0.262
 8098TIP3   OH274761   2.135   3.355   0.735
 8098TIP3    H174762   2.053   3.375   0.686
 8098TIP3    H274763   2.121   3.348   0.830
 8099TIP3   OH274764   3.090   3.725   0.583
 8099TIP3    H174765   3.158   3.661   0.557
 8099TIP3    H274766   3.129   3.766   0.660
 8100TIP3   OH274767   2.168   3.776   0.364
 8100TIP3    H174768   2.096   3.827   0.324
 8100TIP3    H274769   2.135   3.761   0.453
 8101TIP3   OH274770   2.415   3.737   0.269
 8101TIP3    H174771   2.327   3.752   0.309
 8101TIP3    H274772   2.413   3.795   0.191
 8102TIP3   OH274773   2.889   3.730   0.188
 8102TIP3    H174774   2.839   3.782   0.123
 8102TIP3    H274775   2.903   3.793   0.260
 8103TIP3   OH274776   2.112   3.646   0.055
 8103TIP3    H174777   2.108   3.601   0.142
 8103TIP3    H274778   2.194   3.607   0.018
 8104TIP3   OH274779   2.322   3.517  19.395
 8104TIP3    H174780   2.309   3.423  19.416
 8104TIP3    H274781   2.409   3.532  19.439
 8105TIP3   OH274782   2.574   3.559   0.010
 8105TIP3    H174783   2.603   3.471  -0.016
 8105TIP3    H274784   2.588   3.557   0.106
 8106TIP3   OH274785   3.443   1.943  19.409
 8106TIP3    H174786   3.504   1.991  19.352
 8106TIP3    H274787   3.356   1.972  19.381
 8107TIP3   OH274788   2.164   1.991  19.181
 8107TIP3    H174789   2.088   1.969  19.126
 8107TIP3    H274790   2.217   1.911  19.175
 8108TIP3   OH274791   2.057   1.965  18.758
 8108TIP3    H174792   2.094   2.028  18.693
 8108TIP3    H274793   1.989   2.019  18.798
 8109TIP3   OH274794   2.229   2.155  18.608
 8109TIP3    H174795   2.280   2.098  18.550
 8109TIP3    H274796   2.295   2.195  18.665
 8110TIP3   OH274797   2.156   2.041   0.653
 8110TIP3    H174798   2.121   1.966   0.701
 8110TIP3    H274799   2.248   2.041   0.686
 8111TIP3   OH274800   2.356   1.981   0.814
 8111TIP3    H174801   2.445   1.953   0.790
 8111TIP3    H274802   2.321   1.904   0.861
 8112TIP3   OH274803   2.222   3.658  18.550
 8112TIP3    H174804   2.187   3.687  18.636
 8112TIP3    H274805   2.296   3.602  18.569
 8113TIP3   OH274806   4.960   2.904  19.167
 8113TIP3    H174807   4.961   3.002  19.161
 8113TIP3    H274808   4.889   2.879  19.105
 8114TIP3   OH274809   4.843   2.833   0.043
 8114TIP3    H174810   4.848   2.769   0.115
 8114TIP3    H274811   4.814   2.780  -0.032
 8115TIP3   OH274812   4.078   2.803   0.205
 8115TIP3    H174813   4.093   2.736   0.273
 8115TIP3    H274814   4.159   2.855   0.221
 8116TIP3   OH274815   4.177   3.243   0.051
 8116TIP3    H174816   4.143   3.157   0.018
 8116TIP3    H274817   4.272   3.224   0.053
 8117TIP3   OH274818   3.837   2.597  19.073
 8117TIP3    H174819   3.796   2.685  19.070
 8117TIP3    H274820   3.780   2.547  19.012
 8118TIP3   OH274821   3.910   2.822  19.283
 8118TIP3    H174822   3.934   2.741  19.331
 8118TIP3    H274823   3.982   2.835  19.220
 8119TIP3   OH274824   4.685   3.077   0.086
 8119TIP3    H174825   4.716   3.004   0.030
 8119TIP3    H274826   4.762   3.088   0.144
 8120TIP3   OH274827   5.548   2.239   0.166
 8120TIP3    H174828   5.561   2.297   0.242
 8120TIP3    H274829   5.600   2.282   0.097
 8121TIP3   OH274830   4.997   2.516   0.121
 8121TIP3    H174831   5.017   2.421   0.121
 8121TIP3    H274832   4.991   2.531   0.024
 8122TIP3   OH274833   5.089   2.336  19.154
 8122TIP3    H174834   5.155   2.304  19.220
 8122TIP3    H274835   5.143   2.392  19.098
 8123TIP3   OH274836   3.969   2.559  19.388
 8123TIP3    H174837   4.041   2.513  19.433
 8123TIP3    H274838   3.981   2.539  19.295
 8124TIP3   OH274839   4.491   2.719  19.316
 8124TIP3    H174840   4.558   2.668  19.364
 8124TIP3    H274841   4.439   2.651  19.269
 8125TIP3   OH274842   4.935   3.153  19.072
 8125TIP3    H174843   4.907   3.132  18.982
 8125TIP3    H274844   4.908   3.245  19.075
 8126TIP3   OH274845   4.457   2.985   0.277
 8126TIP3    H174846   4.383   3.045   0.292
 8126TIP3    H274847   4.526   3.041   0.241
 8127TIP3   OH274848   5.272   2.267  19.352
 8127TIP3    H174849   5.243   2.192  19.405
 8127TIP3    H274850   5.330   2.315  19.412
 8128TIP3   OH274851   4.299   3.185   0.359
 8128TIP3    H174852   4.293   3.270   0.315
 8128TIP3    H274853   4.208   3.171   0.396
 8129TIP3   OH274854   3.912   3.143  18.903
 8129TIP3    H174855   3.880   3.174  18.816
 8129TIP3    H274856   3.914   3.226  18.955
 8130TIP3   OH274857   5.299   2.140   0.247
 8130TIP3    H174858   5.225   2.201   0.240
 8130TIP3    H274859   5.371   2.181   0.195
 8131TIP3   OH274860   4.599   1.945  -0.001
 8131TIP3    H174861   4.584   1.851  -0.015
 8131TIP3    H274862   4.513   1.981   0.022
 8132TIP3   OH274863   5.381   3.140   0.471
 8132TIP3    H174864   5.390   3.073   0.398
 8132TIP3    H274865   5.398   3.222   0.426
 8133TIP3   OH274866   4.826   2.828  18.918
 8133TIP3    H174867   4.755   2.884  18.881
 8133TIP3    H274868   4.896   2.837  18.851
 8134TIP3   OH274869   4.833   2.683  18.625
 8134TIP3    H174870   4.906   2.682  18.689
 8134TIP3    H274871   4.864   2.617  18.561
 8135TIP3   OH274872   5.169   2.849  19.010
 8135TIP3    H174873   5.096   2.875  19.072
 8135TIP3    H274874   5.218   2.783  19.062
 8136TIP3   OH274875   5.162   2.665   0.452
 8136TIP3    H174876   5.165   2.747   0.503
 8136TIP3    H274877   5.103   2.696   0.380
 8137TIP3   OH274878   4.333   2.918  19.201
 8137TIP3    H174879   4.300   2.878  19.117
 8137TIP3    H274880   4.394   2.849  19.236
 8138TIP3   OH274881   4.466   3.253  19.473
 8138TIP3    H174882   4.463   3.201  19.391
 8138TIP3    H274883   4.544   3.217  19.517
 8139TIP3   OH274884   4.458   3.231   0.567
 8139TIP3    H174885   4.424   3.308   0.614
 8139TIP3    H274886   4.392   3.214   0.495
 8140TIP3   OH274887   5.059   2.767  18.777
 8140TIP3    H174888   5.112   2.788  18.858
 8140TIP3    H274889   5.098   2.823  18.709
 8141TIP3   OH274890   4.152   2.851   0.480
 8141TIP3    H174891   4.159   2.913   0.554
 8141TIP3    H274892   4.059   2.860   0.459
 8142TIP3   OH274893   4.286   3.436   0.640
 8142TIP3    H174894   4.279   3.427   0.544
 8142TIP3    H274895   4.192   3.424   0.668
 8143TIP3   OH274896   5.430   1.940  18.765
 8143TIP3    H174897   5.336   1.956  18.791
 8143TIP3    H274898   5.452   2.027  18.726
 8144TIP3   OH274899   4.231   2.820  18.963
 8144TIP3    H174900   4.203   2.896  18.909
 8144TIP3    H274901   4.166   2.754  18.939
 8145TIP3   OH274902   3.834   3.061   0.380
 8145TIP3    H174903   3.795   3.055   0.291
 8145TIP3    H274904   3.846   2.966   0.400
 8146TIP3   OH274905   5.639   3.403   0.623
 8146TIP3    H174906   5.626   3.307   0.627
 8146TIP3    H274907   5.555   3.432   0.666
 8147TIP3   OH274908   4.141   3.621  19.145
 8147TIP3    H174909   4.158   3.582  19.235
 8147TIP3    H274910   4.057   3.577  19.124
 8148TIP3   OH274911   5.352   2.555   0.672
 8148TIP3    H174912   5.305   2.599   0.600
 8148TIP3    H274913   5.353   2.461   0.644
 8149TIP3   OH274914   4.061   3.200   0.476
 8149TIP3    H174915   4.088   3.155   0.560
 8149TIP3    H274916   3.981   3.151   0.451
 8150TIP3   OH274917   5.125   2.390   0.493
 8150TIP3    H174918   5.071   2.373   0.575
 8150TIP3    H274919   5.112   2.485   0.473
 8151TIP3   OH274920   4.766   2.264  18.612
 8151TIP3    H174921   4.732   2.264  18.702
 8151TIP3    H274922   4.731   2.178  18.583
 8152TIP3   OH274923   4.338   2.554  19.150
 8152TIP3    H174924   4.248   2.524  19.135
 8152TIP3    H274925   4.380   2.522  19.067
 8153TIP3   OH274926   4.894   2.600  19.030
 8153TIP3    H174927   4.853   2.682  18.996
 8153TIP3    H274928   4.961   2.582  18.963
 8154TIP3   OH274929   4.798   2.612   0.699
 8154TIP3    H174930   4.744   2.545   0.741
 8154TIP3    H274931   4.881   2.609   0.750
 8155TIP3   OH274932   4.993   2.545  19.315
 8155TIP3    H174933   4.968   2.603  19.240
 8155TIP3    H274934   5.007   2.462  19.265
 8156TIP3   OH274935   4.914   2.706   0.299
 8156TIP3    H174936   4.952   2.639   0.239
 8156TIP3    H274937   4.871   2.653   0.367
 8157TIP3   OH274938   4.442   2.472  18.908
 8157TIP3    H174939   4.538   2.474  18.915
 8157TIP3    H274940   4.419   2.531  18.835
 8158TIP3   OH274941   5.037   2.229   0.105
 8158TIP3    H174942   4.969   2.234   0.176
 8158TIP3    H274943   4.987   2.203   0.026
 8159TIP3   OH274944   4.310   2.585  18.667
 8159TIP3    H174945   4.257   2.545  18.596
 8159TIP3    H274946   4.393   2.604  18.620
 8160TIP3   OH274947   4.125   3.044   0.691
 8160TIP3    H174948   4.196   3.061   0.757
 8160TIP3    H274949   4.048   3.049   0.751
 8161TIP3   OH274950   4.721   2.574  19.439
 8161TIP3    H174951   4.786   2.524  19.389
 8161TIP3    H274952   4.712   2.526  19.522
 8162TIP3   OH274953   4.647   3.036  18.857
 8162TIP3    H174954   4.568   2.988  18.822
 8162TIP3    H274955   4.626   3.046  18.951
 8163TIP3   OH274956   5.363   2.957   0.264
 8163TIP3    H174957   5.424   2.997   0.201
 8163TIP3    H274958   5.280   2.967   0.215
 8164TIP3   OH274959   5.033   2.315  18.672
 8164TIP3    H174960   4.939   2.331  18.656
 8164TIP3    H274961   5.065   2.402  18.704
 8165TIP3   OH274962   4.798   3.057   0.506
 8165TIP3    H174963   4.763   3.016   0.587
 8165TIP3    H274964   4.772   3.149   0.515
 8166TIP3   OH274965   5.104   2.507  18.837
 8166TIP3    H174966   5.193   2.495  18.876
 8166TIP3    H274967   5.113   2.589  18.787
 8167TIP3   OH274968   4.153   2.966  19.431
 8167TIP3    H174969   4.227   2.967  19.367
 8167TIP3    H274970   4.167   2.884  19.481
 8168TIP3   OH274971   4.858   3.186  18.758
 8168TIP3    H174972   4.820   3.266  18.797
 8168TIP3    H274973   4.786   3.122  18.774
 8169TIP3   OH274974   3.861   2.810   0.485
 8169TIP3    H174975   3.877   2.770   0.573
 8169TIP3    H274976   3.795   2.751   0.446
 8170TIP3   OH274977   4.558   2.767   0.709
 8170TIP3    H174978   4.530   2.748   0.619
 8170TIP3    H274979   4.652   2.742   0.708
 8171TIP3   OH274980   5.596   3.107   0.619
 8171TIP3    H174981   5.506   3.126   0.583
 8171TIP3    H274982   5.649   3.099   0.539
 8172TIP3   OH274983   4.395   3.318  19.168
 8172TIP3    H174984   4.441   3.402  19.154
 8172TIP3    H274985   4.305   3.342  19.142
 8173TIP3   OH274986   3.970   2.809  18.624
 8173TIP3    H174987   4.031   2.868  18.669
 8173TIP3    H274988   3.882   2.831  18.659
 8174TIP3   OH274989   4.539   3.085  19.125
 8174TIP3    H174990   4.505   3.177  19.133
 8174TIP3    H274991   4.466   3.036  19.169
 8175TIP3   OH274992   4.405   3.590  19.076
 8175TIP3    H174993   4.309   3.600  19.093
 8175TIP3    H274994   4.439   3.671  19.117
 8176TIP3   OH274995   4.936   3.104   0.254
 8176TIP3    H174996   4.899   3.084   0.341
 8176TIP3    H274997   5.001   3.034   0.241
 8177TIP3   OH274998   5.162   3.199  18.637
 8177TIP3    H174999   5.195   3.166  18.723
 8177TIP3    H275000   5.067   3.192  18.650
 8178TIP3   OH275001   5.245   3.071  18.860
 8178TIP3    H175002   5.222   2.995  18.917
 8178TIP3    H275003   5.340   3.080  18.880
 8179TIP3   OH275004   3.983   3.465   0.286
 8179TIP3    H175005   4.011   3.373   0.286
 8179TIP3    H275006   4.009   3.497   0.373
 8180TIP3   OH275007   4.458   3.273  18.729
 8180TIP3    H175008   4.484   3.218  18.804
 8180TIP3    H275009   4.463   3.367  18.759
 8181TIP3   OH275010   4.109   2.999  18.777
 8181TIP3    H175011   4.043   3.039  18.838
 8181TIP3    H275012   4.164   3.075  18.754
 8182TIP3   OH275013   4.898   2.264   0.339
 8182TIP3    H175014   4.967   2.272   0.406
 8182TIP3    H275015   4.857   2.178   0.356
 8183TIP3   OH275016   4.971   2.221  18.919
 8183TIP3    H175017   4.996   2.270  18.838
 8183TIP3    H275018   5.025   2.265  18.986
 8184TIP3   OH275019   4.751   2.499   0.448
 8184TIP3    H175020   4.758   2.556   0.526
 8184TIP3    H275021   4.815   2.429   0.458
 8185TIP3   OH275022   4.467   3.542  18.802
 8185TIP3    H175023   4.493   3.623  18.753
 8185TIP3    H275024   4.453   3.576  18.893
 8186TIP3   OH275025   5.369   2.291   0.529
 8186TIP3    H175026   5.274   2.318   0.520
 8186TIP3    H275027   5.396   2.285   0.438
 8187TIP3   OH275028   5.228   2.665  19.402
 8187TIP3    H175029   5.144   2.624  19.380
 8187TIP3    H275030   5.271   2.599  19.460
 8188TIP3   OH275031   4.170   3.258  18.667
 8188TIP3    H175032   4.234   3.322  18.699
 8188TIP3    H275033   4.220   3.214  18.598
 8189TIP3   OH275034   3.981   3.398  19.069
 8189TIP3    H175035   3.895   3.442  19.064
 8189TIP3    H275036   4.028   3.442  18.996
 8190TIP3   OH275037   3.907   3.660   0.723
 8190TIP3    H175038   3.960   3.641   0.803
 8190TIP3    H275039   3.861   3.577   0.708
 8191TIP3   OH275040   4.368   3.554   0.884
 8191TIP3    H175041   4.445   3.505   0.917
 8191TIP3    H275042   4.365   3.524   0.791
 8192TIP3   OH275043   3.891   3.036   0.822
 8192TIP3    H175044   3.909   2.944   0.792
 8192TIP3    H275045   3.817   3.063   0.766
 8193TIP3   OH275046   4.565   3.040   0.761
 8193TIP3    H175047   4.526   3.066   0.676
 8193TIP3    H275048   4.573   2.943   0.755
 8194TIP3   OH275049   5.134   3.025   0.508
 8194TIP3    H175050   5.212   3.082   0.490
 8194TIP3    H275051   5.061   3.088   0.504
 8195TIP3   OH275052   3.982   2.759   0.763
 8195TIP3    H175053   4.023   2.673   0.750
 8195TIP3    H275054   3.959   2.761   0.859
 8196TIP3   OH275055   4.447   2.875  18.740
 8196TIP3    H175056   4.398   2.823  18.805
 8196TIP3    H275057   4.477   2.808  18.676
 8197TIP3   OH275058   4.552   2.689  18.561
 8197TIP3    H175059   4.545   2.688  18.465
 8197TIP3    H275060   4.649   2.703  18.574
 8198TIP3   OH275061   4.881   2.900   0.822
 8198TIP3    H175062   4.975   2.915   0.828
 8198TIP3    H275063   4.860   2.838   0.895
 8199TIP3   OH275064   5.487   2.928  18.506
 8199TIP3    H175065   5.467   2.889  18.420
 8199TIP3    H275066   5.498   3.021  18.485
 8200TIP3   OH275067   4.612   2.780   0.388
 8200TIP3    H175068   4.681   2.763   0.324
 8200TIP3    H275069   4.568   2.858   0.350
 8201TIP3   OH275070   5.047   2.552   0.876
 8201TIP3    H175071   5.074   2.460   0.873
 8201TIP3    H275072   5.132   2.599   0.882
 8202TIP3   OH275073   5.182   2.836   0.694
 8202TIP3    H175074   5.157   2.908   0.631
 8202TIP3    H275075   5.278   2.830   0.675
 8203TIP3   OH275076   4.929   2.322   0.669
 8203TIP3    H175077   4.834   2.324   0.681
 8203TIP3    H275078   4.961   2.258   0.735
 8204TIP3   OH275079   5.084   2.185   0.858
 8204TIP3    H175080   5.085   2.087   0.864
 8204TIP3    H275081   5.063   2.214   0.951
 8205TIP3   OH275082   4.540   3.763  18.663
 8205TIP3    H175083   4.634   3.777  18.677
 8205TIP3    H275084   4.517   3.832  18.600
 8206TIP3   OH275085   3.899   3.227  18.615
 8206TIP3    H175086   3.994   3.234  18.638
 8206TIP3    H275087   3.896   3.164  18.542
 8207TIP3   OH275088   3.770   3.763  19.109
 8207TIP3    H175089   3.698   3.717  19.066
 8207TIP3    H275090   3.800   3.701  19.178
 8208TIP3   OH275091   3.856   3.577  19.296
 8208TIP3    H175092   3.820   3.490  19.317
 8208TIP3    H275093   3.876   3.611  19.385
 8209TIP3   OH275094   5.605   3.655   0.124
 8209TIP3    H175095   5.609   3.675   0.219
 8209TIP3    H275096   5.677   3.712   0.091
 8210TIP3   OH275097   5.566   3.615   0.412
 8210TIP3    H175098   5.515   3.539   0.381
 8210TIP3    H275099   5.614   3.575   0.486
 8211TIP3   OH275100   5.406   3.194   0.879
 8211TIP3    H175101   5.320   3.182   0.922
 8211TIP3    H275102   5.446   3.267   0.928
 8212TIP3   OH275103   5.537   3.020  18.903
 8212TIP3    H175104   5.624   3.061  18.917
 8212TIP3    H275105   5.541   2.945  18.965
 8213TIP3   OH275106   5.575   2.827  19.086
 8213TIP3    H175107   5.503   2.774  19.124
 8213TIP3    H275108   5.636   2.840  19.161
 8214TIP3   OH275109   5.551   3.101   0.112
 8214TIP3    H175110   5.633   3.060   0.078
 8214TIP3    H275111   5.570   3.195   0.095
 8215TIP3   OH275112   5.607   2.813  18.722
 8215TIP3    H175113   5.549   2.847  18.651
 8215TIP3    H275114   5.597   2.879  18.792
 8216TIP3   OH275115   5.427   2.534  18.581
 8216TIP3    H175116   5.456   2.599  18.515
 8216TIP3    H275117   5.431   2.452  18.530
 8217TIP3   OH275118   5.357   2.676  19.146
 8217TIP3    H175119   5.342   2.581  19.140
 8217TIP3    H275120   5.321   2.700  19.234
 8218TIP3   OH275121   3.855   2.880   0.079
 8218TIP3    H175122   3.874   2.879  -0.018
 8218TIP3    H275123   3.946   2.869   0.114
 8219TIP3   OH275124   5.444   2.876   0.643
 8219TIP3    H175125   5.503   2.798   0.653
 8219TIP3    H275126   5.506   2.950   0.637
 8220TIP3   OH275127   5.595   2.660   0.714
 8220TIP3    H175128   5.506   2.623   0.693
 8220TIP3    H275129   5.654   2.586   0.697
 8221TIP3   OH275130   5.367   2.272  18.486
 8221TIP3    H175131   5.425   2.237  18.556
 8221TIP3    H275132   5.279   2.242  18.511
 8222TIP3   OH275133   5.325   2.435  18.991
 8222TIP3    H175134   5.353   2.341  19.001
 8222TIP3    H275135   5.402   2.476  18.952
 8223TIP3   OH275136   5.388   2.485   0.062
 8223TIP3    H175137   5.481   2.514   0.057
 8223TIP3    H275138   5.363   2.505   0.153
 8224TIP3   OH275139   3.817   2.414   0.694
 8224TIP3    H175140   3.911   2.394   0.707
 8224TIP3    H275141   3.773   2.334   0.723
 8225TIP3   OH275142   5.617   1.960   0.873
 8225TIP3    H175143   5.658   1.896   0.812
 8225TIP3    H275144   5.634   2.044   0.825
 8226TIP3   OH275145   5.388   2.162  18.996
 8226TIP3    H175146   5.408   2.115  19.079
 8226TIP3    H275147   5.330   2.100  18.948
 8227TIP3   OH275148   3.770   2.541   0.082
 8227TIP3    H175149   3.827   2.526   0.003
 8227TIP3    H275150   3.808   2.627   0.110
 8228TIP3   OH275151   5.575   2.176   0.710
 8228TIP3    H175152   5.481   2.203   0.705
 8228TIP3    H275153   5.580   2.122   0.630
 8229TIP3   OH275154   5.572   2.163  18.655
 8229TIP3    H175155   5.616   2.097  18.599
 8229TIP3    H275156   5.635   2.237  18.648
 8230TIP3   OH275157   3.800   2.033   0.317
 8230TIP3    H175158   3.744   2.014   0.394
 8230TIP3    H275159   3.772   2.114   0.277
 8231TIP3   OH275160   4.022   3.356   0.737
 8231TIP3    H175161   3.940   3.377   0.693
 8231TIP3    H275162   3.995   3.349   0.830
 8232TIP3   OH275163   5.475   1.986   0.494
 8232TIP3    H175164   5.391   2.012   0.453
 8232TIP3    H275165   5.494   1.904   0.443
 8233TIP3   OH275166   4.054   3.780   0.366
 8233TIP3    H175167   3.980   3.827   0.323
 8233TIP3    H275168   4.020   3.760   0.454
 8234TIP3   OH275169   4.292   3.744   0.263
 8234TIP3    H175170   4.205   3.756   0.308
 8234TIP3    H275171   4.290   3.803   0.187
 8235TIP3   OH275172   4.209   3.511  19.386
 8235TIP3    H175173   4.189   3.421  19.419
 8235TIP3    H275174   4.289   3.531  19.438
 8236TIP3   OH275175   4.465   3.562   0.006
 8236TIP3    H175176   4.488   3.471  -0.019
 8236TIP3    H275177   4.470   3.560   0.103
 8237TIP3   OH275178   5.331   1.932  19.405
 8237TIP3    H175179   5.389   1.992  19.352
 8237TIP3    H275180   5.242   1.966  19.381
 8238TIP3   OH275181   5.496   2.054  19.234
 8238TIP3    H175182   5.564   1.999  19.188
 8238TIP3    H275183   5.541   2.139  19.240
 8239TIP3   OH275184   5.071   1.987  19.320
 8239TIP3    H175185   5.064   1.998  19.224
 8239TIP3    H275186   5.028   1.899  19.334
 8240TIP3   OH275187   5.199   1.987  18.885
 8240TIP3    H175188   5.125   2.049  18.874
 8240TIP3    H275189   5.153   1.904  18.912
 8241TIP3   OH275190   3.925   3.565  18.850
 8241TIP3    H175191   3.853   3.560  18.782
 8241TIP3    H275192   3.922   3.657  18.873
 8242TIP3   OH275193   4.103   3.659  18.551
 8242TIP3    H175194   4.078   3.686  18.639
 8242TIP3    H275195   4.182   3.606  18.566
 8243TIP3   OH275196   5.082   1.914   0.831
 8243TIP3    H175197   5.093   1.864   0.915
 8243TIP3    H275198   5.173   1.910   0.797
 8244TIP3   OH275199   5.404   3.517   0.692
 8244TIP3    H175200   5.320   3.503   0.647
 8244TIP3    H275201   5.393   3.609   0.718
 8245TIP3   OH275202   6.851   2.904  19.166
 8245TIP3    H175203   6.847   3.003  19.163
 8245TIP3    H275204   6.776   2.882  19.111
 8246TIP3   OH275205   6.741   2.830   0.044
 8246TIP3    H175206   6.727   2.764   0.113
 8246TIP3    H275207   6.700   2.782  -0.031
 8247TIP3   OH275208   7.094   3.126  19.340
 8247TIP3    H175209   7.062   3.053  19.394
 8247TIP3    H275210   7.110   3.192  19.410
 8248TIP3   OH275211   5.795   2.821  19.282
 8248TIP3    H175212   5.821   2.741  19.328
 8248TIP3    H275213   5.867   2.831  19.217
 8249TIP3   OH275214   6.577   3.054   0.097
 8249TIP3    H175215   6.610   2.997   0.027
 8249TIP3    H275216   6.657   3.082   0.144
 8250TIP3   OH275217   6.885   2.519   0.118
 8250TIP3    H175218   6.903   2.424   0.123
 8250TIP3    H275219   6.880   2.533   0.022
 8251TIP3   OH275220   6.818   3.160  19.077
 8251TIP3    H175221   6.791   3.138  18.987
 8251TIP3    H275222   6.797   3.253  19.083
 8252TIP3   OH275223   6.340   2.982   0.282
 8252TIP3    H175224   6.269   3.046   0.292
 8252TIP3    H275225   6.410   3.037   0.244
 8253TIP3   OH275226   6.182   3.184   0.359
 8253TIP3    H175227   6.183   3.271   0.317
 8253TIP3    H275228   6.093   3.176   0.399
 8254TIP3   OH275229   5.793   3.146  18.907
 8254TIP3    H175230   5.767   3.174  18.817
 8254TIP3    H275231   5.799   3.229  18.958
 8255TIP3   OH275232   7.153   3.310   0.108
 8255TIP3    H175233   7.058   3.319   0.123
 8255TIP3    H275234   7.181   3.402   0.091
 8256TIP3   OH275235   7.185   2.136   0.244
 8256TIP3    H175236   7.113   2.200   0.242
 8256TIP3    H275237   7.257   2.183   0.200
 8257TIP3   OH275238   6.487   1.948  -0.004
 8257TIP3    H175239   6.476   1.852  -0.014
 8257TIP3    H275240   6.399   1.978   0.022
 8258TIP3   OH275241   7.100   3.280  19.091
 8258TIP3    H175242   7.072   3.210  19.031
 8258TIP3    H275243   7.103   3.234  19.177
 8259TIP3   OH275244   7.056   2.852  19.009
 8259TIP3    H175245   6.985   2.875  19.073
 8259TIP3    H275246   7.102   2.785  19.060
 8260TIP3   OH275247   6.891   3.347   0.166
 8260TIP3    H175248   6.860   3.408   0.232
 8260TIP3    H275249   6.867   3.261   0.207
 8261TIP3   OH275250   6.342   3.228   0.573
 8261TIP3    H175251   6.309   3.311   0.609
 8261TIP3    H275252   6.283   3.216   0.494
 8262TIP3   OH275253   6.941   2.769  18.782
 8262TIP3    H175254   6.999   2.787  18.858
 8262TIP3    H275255   6.982   2.817  18.710
 8263TIP3   OH275256   7.314   1.938  18.763
 8263TIP3    H175257   7.222   1.955  18.793
 8263TIP3    H275258   7.338   2.026  18.729
 8264TIP3   OH275259   7.428   3.378  18.605
 8264TIP3    H175260   7.439   3.474  18.615
 8264TIP3    H275261   7.519   3.349  18.594
 8265TIP3   OH275262   5.700   3.334   0.058
 8265TIP3    H175263   5.796   3.323   0.053
 8265TIP3    H275264   5.691   3.417   0.107
 8266TIP3   OH275265   7.528   3.400   0.633
 8266TIP3    H175266   7.512   3.306   0.622
 8266TIP3    H275267   7.438   3.431   0.663
 8267TIP3   OH275268   5.946   3.192   0.473
 8267TIP3    H175269   5.973   3.162   0.562
 8267TIP3    H275270   5.863   3.150   0.457
 8268TIP3   OH275271   6.681   2.010   0.406
 8268TIP3    H175272   6.723   1.967   0.484
 8268TIP3    H275273   6.586   1.993   0.422
 8269TIP3   OH275274   7.010   2.387   0.493
 8269TIP3    H175275   6.959   2.369   0.574
 8269TIP3    H275276   6.995   2.479   0.475
 8270TIP3   OH275277   6.649   2.261  18.612
 8270TIP3    H175278   6.618   2.262  18.703
 8270TIP3    H275279   6.618   2.175  18.582
 8271TIP3   OH275280   6.873   2.546  19.311
 8271TIP3    H175281   6.857   2.606  19.238
 8271TIP3    H275282   6.896   2.462  19.271
 8272TIP3   OH275283   6.922   2.227   0.105
 8272TIP3    H175284   6.854   2.233   0.176
 8272TIP3    H275285   6.868   2.203   0.029
 8273TIP3   OH275286   6.621   2.584  19.449
 8273TIP3    H175287   6.671   2.525  19.393
 8273TIP3    H275288   6.598   2.527  19.524
 8274TIP3   OH275289   6.472   2.409   0.214
 8274TIP3    H175290   6.397   2.466   0.221
 8274TIP3    H275291   6.531   2.446   0.284
 8275TIP3   OH275292   6.913   2.317  18.687
 8275TIP3    H175293   6.824   2.331  18.651
 8275TIP3    H275294   6.951   2.405  18.690
 8276TIP3   OH275295   6.688   3.061   0.508
 8276TIP3    H175296   6.647   3.017   0.583
 8276TIP3    H275297   6.658   3.151   0.515
 8277TIP3   OH275298   6.041   2.965  19.428
 8277TIP3    H175299   6.119   2.968  19.372
 8277TIP3    H275300   6.056   2.887  19.480
 8278TIP3   OH275301   6.910   3.305   0.500
 8278TIP3    H175302   6.819   3.321   0.476
 8278TIP3    H275303   6.909   3.335   0.593
 8279TIP3   OH275304   7.319   3.405  18.859
 8279TIP3    H175305   7.273   3.325  18.887
 8279TIP3    H275306   7.337   3.389  18.765
 8280TIP3   OH275307   7.028   2.887   0.086
 8280TIP3    H175308   6.933   2.863   0.078
 8280TIP3    H275309   7.071   2.809   0.051
 8281TIP3   OH275310   6.276   3.323  19.178
 8281TIP3    H175311   6.332   3.394  19.149
 8281TIP3    H275312   6.191   3.342  19.139
 8282TIP3   OH275313   5.861   2.805  18.621
 8282TIP3    H175314   5.913   2.869  18.671
 8282TIP3    H275315   5.770   2.826  18.653
 8283TIP3   OH275316   6.824   3.105   0.256
 8283TIP3    H175317   6.787   3.085   0.344
 8283TIP3    H275318   6.886   3.032   0.240
 8284TIP3   OH275319   7.049   3.203  18.638
 8284TIP3    H175320   7.082   3.162  18.720
 8284TIP3    H275321   6.954   3.196  18.645
 8285TIP3   OH275322   7.101   3.560   0.504
 8285TIP3    H175323   7.034   3.511   0.456
 8285TIP3    H275324   7.120   3.634   0.441
 8286TIP3   OH275325   7.500   3.652  18.659
 8286TIP3    H175326   7.574   3.711  18.640
 8286TIP3    H275327   7.431   3.710  18.689
 8287TIP3   OH275328   7.134   3.073  18.860
 8287TIP3    H175329   7.109   2.996  18.915
 8287TIP3    H275330   7.227   3.082  18.883
 8288TIP3   OH275331   5.868   3.464   0.287
 8288TIP3    H175332   5.897   3.373   0.290
 8288TIP3    H275333   5.895   3.499   0.373
 8289TIP3   OH275334   6.476   3.306  18.491
 8289TIP3    H175335   6.479   3.235  18.426
 8289TIP3    H275336   6.425   3.270  18.564
 8290TIP3   OH275337   5.981   3.001  18.769
 8290TIP3    H175338   5.923   3.038  18.837
 8290TIP3    H275339   6.043   3.074  18.756
 8291TIP3   OH275340   6.777   2.266   0.339
 8291TIP3    H175341   6.851   2.272   0.401
 8291TIP3    H275342   6.742   2.177   0.356
 8292TIP3   OH275343   6.851   2.231  18.927
 8292TIP3    H175344   6.879   2.264  18.837
 8292TIP3    H275345   6.922   2.266  18.980
 8293TIP3   OH275346   6.584   2.392  19.003
 8293TIP3    H175347   6.654   2.456  19.002
 8293TIP3    H275348   6.549   2.390  19.092
 8294TIP3   OH275349   6.630   2.500   0.446
 8294TIP3    H175350   6.643   2.559   0.521
 8294TIP3    H275351   6.699   2.433   0.456
 8295TIP3   OH275352   6.666   2.105  19.094
 8295TIP3    H175353   6.632   2.170  19.156
 8295TIP3    H275354   6.731   2.158  19.044
 8296TIP3   OH275355   6.321   3.547  18.795
 8296TIP3    H175356   6.376   3.615  18.753
 8296TIP3    H275357   6.332   3.576  18.886
 8297TIP3   OH275358   6.053   3.261  18.664
 8297TIP3    H175359   6.118   3.324  18.701
 8297TIP3    H275360   6.105   3.212  18.599
 8298TIP3   OH275361   7.217   3.593   0.102
 8298TIP3    H175362   7.209   3.661   0.032
 8298TIP3    H275363   7.314   3.597   0.119
 8299TIP3   OH275364   5.863   3.391  19.066
 8299TIP3    H175365   5.782   3.444  19.066
 8299TIP3    H275366   5.915   3.446  19.006
 8300TIP3   OH275367   5.788   3.659   0.725
 8300TIP3    H175368   5.846   3.639   0.800
 8300TIP3    H275369   5.744   3.574   0.708
 8301TIP3   OH275370   6.906   3.387   0.760
 8301TIP3    H175371   6.873   3.300   0.786
 8301TIP3    H275372   6.983   3.400   0.816
 8302TIP3   OH275373   7.120   3.484  18.518
 8302TIP3    H175374   7.148   3.404  18.565
 8302TIP3    H275375   7.196   3.502  18.462
 8303TIP3   OH275376   5.782   3.039   0.820
 8303TIP3    H175377   5.795   2.948   0.792
 8303TIP3    H275378   5.705   3.067   0.769
 8304TIP3   OH275379   6.446   3.034   0.764
 8304TIP3    H175380   6.415   3.067   0.677
 8304TIP3    H275381   6.464   2.940   0.754
 8305TIP3   OH275382   6.938   2.554   0.879
 8305TIP3    H175383   6.959   2.462   0.869
 8305TIP3    H275384   7.021   2.600   0.882
 8306TIP3   OH275385   7.064   2.843   0.708
 8306TIP3    H175386   7.034   2.903   0.638
 8306TIP3    H275387   7.155   2.826   0.681
 8307TIP3   OH275388   6.417   1.976   0.400
 8307TIP3    H175389   6.402   2.071   0.389
 8307TIP3    H275390   6.342   1.936   0.353
 8308TIP3   OH275391   6.547   2.403   0.758
 8308TIP3    H175392   6.517   2.389   0.848
 8308TIP3    H275393   6.467   2.392   0.705
 8309TIP3   OH275394   6.813   2.311   0.663
 8309TIP3    H175395   6.720   2.329   0.684
 8309TIP3    H275396   6.847   2.259   0.738
 8310TIP3   OH275397   6.966   2.186   0.858
 8310TIP3    H175398   6.970   2.089   0.862
 8310TIP3    H275399   6.953   2.213   0.952
 8311TIP3   OH275400   6.443   1.912   0.670
 8311TIP3    H175401   6.509   1.840   0.666
 8311TIP3    H275402   6.429   1.931   0.576
 8312TIP3   OH275403   5.786   3.235  18.607
 8312TIP3    H175404   5.878   3.234  18.639
 8312TIP3    H275405   5.784   3.159  18.546
 8313TIP3   OH275406   5.653   3.766  19.117
 8313TIP3    H175407   5.585   3.720  19.068
 8313TIP3    H275408   5.688   3.700  19.180
 8314TIP3   OH275409   5.735   3.576  19.299
 8314TIP3    H175410   5.705   3.488  19.321
 8314TIP3    H275411   5.763   3.612  19.386
 8315TIP3   OH275412   7.489   3.658   0.122
 8315TIP3    H175413   7.491   3.671   0.218
 8315TIP3    H275414   7.561   3.713   0.091
 8316TIP3   OH275415   7.451   3.609   0.418
 8316TIP3    H175416   7.399   3.535   0.381
 8316TIP3    H275417   7.502   3.568   0.488
 8317TIP3   OH275418   7.295   3.187   0.879
 8317TIP3    H175419   7.208   3.181   0.920
 8317TIP3    H275420   7.333   3.264   0.927
 8318TIP3   OH275421   7.453   2.833  19.088
 8318TIP3    H175422   7.390   2.774  19.129
 8318TIP3    H275423   7.523   2.840  19.155
 8319TIP3   OH275424   7.433   3.098   0.113
 8319TIP3    H175425   7.517   3.062   0.080
 8319TIP3    H275426   7.449   3.193   0.098
 8320TIP3   OH275427   7.289   3.389   0.342
 8320TIP3    H175428   7.221   3.422   0.402
 8320TIP3    H275429   7.238   3.344   0.272
 8321TIP3   OH275430   5.749   2.888   0.075
 8321TIP3    H175431   5.761   2.875  -0.021
 8321TIP3    H275432   5.836   2.866   0.109
 8322TIP3   OH275433   7.501   1.961   0.869
 8322TIP3    H175434   7.546   1.898   0.810
 8322TIP3    H275435   7.520   2.045   0.826
 8323TIP3   OH275436   7.276   2.153  18.992
 8323TIP3    H175437   7.297   2.107  19.074
 8323TIP3    H275438   7.214   2.095  18.946
 8324TIP3   OH275439   7.471   2.150  18.670
 8324TIP3    H175440   7.503   2.092  18.600
 8324TIP3    H275441   7.523   2.230  18.657
 8325TIP3   OH275442   5.685   2.032   0.319
 8325TIP3    H175443   5.619   2.013   0.388
 8325TIP3    H275444   5.642   2.101   0.265
 8326TIP3   OH275445   5.906   3.354   0.738
 8326TIP3    H175446   5.824   3.374   0.692
 8326TIP3    H275447   5.880   3.351   0.831
 8327TIP3   OH275448   7.354   1.979   0.499
 8327TIP3    H175449   7.279   2.015   0.450
 8327TIP3    H275450   7.383   1.909   0.438
 8328TIP3   OH275451   5.940   3.781   0.366
 8328TIP3    H175452   5.867   3.827   0.321
 8328TIP3    H275453   5.903   3.760   0.452
 8329TIP3   OH275454   6.180   3.735   0.268
 8329TIP3    H175455   6.094   3.750   0.311
 8329TIP3    H275456   6.178   3.798   0.196
 8330TIP3   OH275457   7.147   3.765   0.310
 8330TIP3    H175458   7.141   3.861   0.291
 8330TIP3    H275459   7.171   3.729   0.223
 8331TIP3   OH275460   5.881   3.642   0.057
 8331TIP3    H175461   5.881   3.599   0.145
 8331TIP3    H275462   5.964   3.611   0.017
 8332TIP3   OH275463   6.101   3.518  19.396
 8332TIP3    H175464   6.075   3.427  19.412
 8332TIP3    H275465   6.182   3.527  19.447
 8333TIP3   OH275466   6.696   2.130  19.393
 8333TIP3    H175467   6.632   2.063  19.422
 8333TIP3    H275468   6.756   2.076  19.340
 8334TIP3   OH275469   7.214   1.934  19.405
 8334TIP3    H175470   7.275   1.991  19.353
 8334TIP3    H275471   7.125   1.968  19.381
 8335TIP3   OH275472   7.378   2.054  19.234
 8335TIP3    H175473   7.447   1.999  19.189
 8335TIP3    H275474   7.428   2.136  19.240
 8336TIP3   OH275475   5.934   1.992  19.180
 8336TIP3    H175476   5.856   1.969  19.128
 8336TIP3    H275477   5.986   1.912  19.176
 8337TIP3   OH275478   5.813   1.969  18.750
 8337TIP3    H175479   5.863   2.034  18.700
 8337TIP3    H275480   5.757   2.023  18.808
 8338TIP3   OH275481   6.384   1.994  19.159
 8338TIP3    H175482   6.479   2.015  19.152
 8338TIP3    H275483   6.380   1.959  19.248
 8339TIP3   OH275484   6.949   1.986  19.320
 8339TIP3    H175485   6.950   1.994  19.224
 8339TIP3    H275486   6.915   1.895  19.334
 8340TIP3   OH275487   7.082   1.989  18.890
 8340TIP3    H175488   7.009   2.049  18.869
 8340TIP3    H275489   7.040   1.905  18.911
 8341TIP3   OH275490   5.806   3.562  18.853
 8341TIP3    H175491   5.739   3.563  18.784
 8341TIP3    H275492   5.810   3.658  18.871
 8342TIP3   OH275493   6.130   1.976   0.820
 8342TIP3    H175494   6.216   1.944   0.789
 8342TIP3    H275495   6.085   1.899   0.857
 8343TIP3   OH275496   6.967   1.910   0.828
 8343TIP3    H175497   6.979   1.868   0.914
 8343TIP3    H275498   7.059   1.913   0.795
 8344TIP3   OH275499   7.294   3.507   0.690
 8344TIP3    H175500   7.210   3.497   0.640
 8344TIP3    H275501   7.285   3.600   0.716
 8345TIP3   OH275502   7.864   2.789   0.200
 8345TIP3    H175503   7.859   2.736   0.279
 8345TIP3    H275504   7.925   2.860   0.220
 8346TIP3   OH275505   7.940   3.237   0.058
 8346TIP3    H175506   7.912   3.153   0.017
 8346TIP3    H275507   8.038   3.224   0.057
 8347TIP3   OH275508   8.041   2.339  19.323
 8347TIP3    H175509   8.095   2.408  19.282
 8347TIP3    H275510   8.039   2.269  19.257
 8348TIP3   OH275511   7.970   2.218   0.251
 8348TIP3    H175512   7.945   2.268   0.172
 8348TIP3    H275513   7.901   2.238   0.315
 8349TIP3   OH275514   8.054   3.191   0.348
 8349TIP3    H175515   8.058   3.282   0.320
 8349TIP3    H275516   7.971   3.186   0.400
 8350TIP3   OH275517   8.057   3.430   0.637
 8350TIP3    H175518   8.050   3.424   0.542
 8350TIP3    H275519   7.963   3.423   0.665
 8351TIP3   OH275520   7.588   3.335   0.058
 8351TIP3    H175521   7.684   3.322   0.057
 8351TIP3    H275522   7.577   3.416   0.108
 8352TIP3   OH275523   7.831   3.196   0.480
 8352TIP3    H175524   7.859   3.155   0.563
 8352TIP3    H275525   7.750   3.150   0.455
 8353TIP3   OH275526   8.099   2.054   0.068
 8353TIP3    H175527   8.009   2.034   0.033
 8353TIP3    H275528   8.091   2.137   0.115
 8354TIP3   OH275529   8.108   2.535   0.186
 8354TIP3    H175530   8.044   2.531   0.256
 8354TIP3    H275531   8.111   2.627   0.159
 8355TIP3   OH275532   8.098   2.563  19.125
 8355TIP3    H175533   8.013   2.519  19.132
 8355TIP3    H275534   8.149   2.512  19.063
 8356TIP3   OH275535   8.076   2.565  18.658
 8356TIP3    H175536   8.025   2.541  18.582
 8356TIP3    H275537   8.161   2.599  18.624
 8357TIP3   OH275538   7.929   2.218  19.079
 8357TIP3    H175539   7.938   2.121  19.092
 8357TIP3    H275540   8.019   2.235  19.049
 8358TIP3   OH275541   7.935   2.974  19.439
 8358TIP3    H175542   7.999   2.966  19.368
 8358TIP3    H275543   7.931   2.885  19.478
 8359TIP3   OH275544   7.757   3.466   0.291
 8359TIP3    H175545   7.785   3.374   0.288
 8359TIP3    H275546   7.784   3.497   0.377
 8360TIP3   OH275547   7.863   1.996  19.448
 8360TIP3    H175548   7.832   2.008  19.356
 8360TIP3    H275549   7.810   1.921  19.480
 8361TIP3   OH275550   7.753   3.403  19.070
 8361TIP3    H175551   7.664   3.440  19.065
 8361TIP3    H275552   7.802   3.449  19.002
 8362TIP3   OH275553   7.677   3.656   0.721
 8362TIP3    H175554   7.725   3.632   0.801
 8362TIP3    H275555   7.627   3.575   0.704
 8363TIP3   OH275556   7.659   3.048   0.815
 8363TIP3    H175557   7.683   2.956   0.790
 8363TIP3    H275558   7.579   3.066   0.765
 8364TIP3   OH275559   8.028   2.521   0.794
 8364TIP3    H175560   7.952   2.461   0.777
 8364TIP3    H275561   8.095   2.482   0.738
 8365TIP3   OH275562   7.851   2.311   0.771
 8365TIP3    H175563   7.861   2.238   0.707
 8365TIP3    H275564   7.834   2.265   0.853
 8366TIP3   OH275565   7.792   3.360   0.734
 8366TIP3    H175566   7.706   3.374   0.690
 8366TIP3    H275567   7.765   3.350   0.827
 8367TIP3   OH275568   7.820   1.992  19.180
 8367TIP3    H175569   7.740   1.968  19.130
 8367TIP3    H275570   7.869   1.908  19.174
 8368TIP3   OH275571   7.700   1.967  18.753
 8368TIP3    H175572   7.748   2.032  18.699
 8368TIP3    H275573   7.641   2.022  18.807
 8369TIP3   OH275574   7.810   2.048   0.654
 8369TIP3    H175575   7.777   1.965   0.692
 8369TIP3    H275576   7.902   2.041   0.687
 8370TIP3   OH275577   7.993   1.949   0.796
 8370TIP3    H175578   8.088   1.943   0.796
 8370TIP3    H275579   7.967   1.887   0.867
 8371TIP3   OH275580   1.081   4.715   0.041
 8371TIP3    H175581   1.073   4.654   0.117
 8371TIP3    H275582   1.037   4.666  -0.030
 8372TIP3   OH275583  -0.014   4.668  19.000
 8372TIP3    H175584   0.008   4.617  19.083
 8372TIP3    H275585   0.010   4.584  18.954
 8373TIP3   OH275586   0.150   4.710  19.309
 8373TIP3    H175587   0.166   4.620  19.344
 8373TIP3    H275588   0.207   4.716  19.230
 8374TIP3   OH275589   0.911   4.954   0.088
 8374TIP3    H175590   0.950   4.893   0.025
 8374TIP3    H275591   0.990   4.973   0.141
 8375TIP3   OH275592   1.225   4.401   0.118
 8375TIP3    H175593   1.246   4.307   0.119
 8375TIP3    H275594   1.219   4.417   0.024
 8376TIP3   OH275595   0.543   4.208  19.316
 8376TIP3    H175596   0.552   4.295  19.272
 8376TIP3    H275597   0.500   4.155  19.245
 8377TIP3   OH275598   0.231   4.461  19.401
 8377TIP3    H175599   0.281   4.390  19.443
 8377TIP3    H275600   0.217   4.422  19.314
 8378TIP3   OH275601   0.722   4.608  19.320
 8378TIP3    H175602   0.787   4.548  19.361
 8378TIP3    H275603   0.664   4.546  19.271
 8379TIP3   OH275604   0.435   4.104   0.251
 8379TIP3    H175605   0.405   4.157   0.175
 8379TIP3    H275606   0.364   4.124   0.316
 8380TIP3   OH275607   0.693   4.869   0.279
 8380TIP3    H175608   0.618   4.928   0.294
 8380TIP3    H275609   0.759   4.928   0.242
 8381TIP3   OH275610   1.515   4.155  19.360
 8381TIP3    H175611   1.482   4.079  19.410
 8381TIP3    H275612   1.571   4.205  19.420
 8382TIP3   OH275613   0.388   4.286   0.051
 8382TIP3    H175614   0.451   4.353   0.086
 8382TIP3    H275615   0.444   4.246  -0.019
 8383TIP3   OH275616   1.054   4.714  18.917
 8383TIP3    H175617   0.983   4.768  18.879
 8383TIP3    H275618   1.126   4.719  18.852
 8384TIP3   OH275619   1.061   4.565  18.621
 8384TIP3    H175620   1.131   4.566  18.689
 8384TIP3    H275621   1.094   4.496  18.562
 8385TIP3   OH275622   1.797   4.656   0.272
 8385TIP3    H175623   1.726   4.722   0.281
 8385TIP3    H275624   1.839   4.684   0.190
 8386TIP3   OH275625   1.401   4.719  19.005
 8386TIP3    H175626   1.333   4.758  19.062
 8386TIP3    H275627   1.451   4.661  19.064
 8387TIP3   OH275628   0.611   4.665   0.099
 8387TIP3    H175629   0.654   4.687   0.014
 8387TIP3    H275630   0.634   4.741   0.155
 8388TIP3   OH275631   1.238   5.234   0.175
 8388TIP3    H175632   1.198   5.292   0.237
 8388TIP3    H275633   1.209   5.145   0.203
 8389TIP3   OH275634   1.285   4.651  18.781
 8389TIP3    H175635   1.343   4.671  18.859
 8389TIP3    H275636   1.324   4.701  18.710
 8390TIP3   OH275637   1.773   5.267  18.597
 8390TIP3    H175638   1.785   5.359  18.623
 8390TIP3    H275639   1.865   5.231  18.594
 8391TIP3   OH275640   0.961   5.242   0.516
 8391TIP3    H175641   0.970   5.327   0.563
 8391TIP3    H275642   0.874   5.212   0.540
 8392TIP3   OH275643   0.361   5.528  19.145
 8392TIP3    H175644   0.393   5.476  19.221
 8392TIP3    H275645   0.293   5.468  19.109
 8393TIP3   OH275646   1.574   4.437   0.681
 8393TIP3    H175647   1.540   4.485   0.603
 8393TIP3    H275648   1.585   4.349   0.644
 8394TIP3   OH275649   0.572   4.422   0.192
 8394TIP3    H175650   0.499   4.422   0.257
 8394TIP3    H275651   0.570   4.514   0.157
 8395TIP3   OH275652   0.569   4.437  19.156
 8395TIP3    H175653   0.476   4.407  19.140
 8395TIP3    H275654   0.610   4.410  19.071
 8396TIP3   OH275655   1.028   4.498   0.689
 8396TIP3    H175656   0.967   4.425   0.722
 8396TIP3    H275657   1.112   4.470   0.729
 8397TIP3   OH275658   0.341   4.449   0.364
 8397TIP3    H175659   0.336   4.492   0.450
 8397TIP3    H275660   0.292   4.368   0.381
 8398TIP3   OH275661  -0.065   4.195  19.175
 8398TIP3    H175662  -0.009   4.198  19.255
 8398TIP3    H275663   0.011   4.143  19.133
 8399TIP3   OH275664   0.178   4.254  18.776
 8399TIP3    H175665   0.186   4.301  18.694
 8399TIP3    H275666   0.085   4.273  18.799
 8400TIP3   OH275667   1.140   4.593   0.300
 8400TIP3    H175668   1.185   4.527   0.243
 8400TIP3    H275669   1.099   4.538   0.367
 8401TIP3   OH275670   0.826   4.184  19.257
 8401TIP3    H175671   0.732   4.190  19.283
 8401TIP3    H275672   0.871   4.175  19.340
 8402TIP3   OH275673   0.329   4.310  19.143
 8402TIP3    H175674   0.243   4.341  19.108
 8402TIP3    H275675   0.343   4.234  19.086
 8403TIP3   OH275676   0.675   4.347  18.904
 8403TIP3    H175677   0.767   4.367  18.921
 8403TIP3    H275678   0.648   4.414  18.837
 8404TIP3   OH275679   0.542   4.465  18.662
 8404TIP3    H175680   0.487   4.430  18.590
 8404TIP3    H275681   0.624   4.491  18.616
 8405TIP3   OH275682   0.954   4.466  19.446
 8405TIP3    H175683   1.010   4.413  19.391
 8405TIP3    H275684   0.936   4.411  19.524
 8406TIP3   OH275685   0.460   4.078  19.087
 8406TIP3    H175686   0.427   3.987  19.085
 8406TIP3    H275687   0.537   4.074  19.029
 8407TIP3   OH275688   0.820   4.303   0.209
 8407TIP3    H175689   0.734   4.349   0.221
 8407TIP3    H275690   0.870   4.331   0.288
 8408TIP3   OH275691   1.592   4.841   0.261
 8408TIP3    H175692   1.650   4.892   0.203
 8408TIP3    H275693   1.507   4.848   0.214
 8409TIP3   OH275694   1.024   4.943   0.505
 8409TIP3    H175695   0.990   4.906   0.587
 8409TIP3    H275696   1.009   5.038   0.514
 8410TIP3   OH275697   1.084   5.069  18.763
 8410TIP3    H175698   1.056   5.156  18.793
 8410TIP3    H275699   1.010   5.011  18.775
 8411TIP3   OH275700   0.085   4.708   0.483
 8411TIP3    H175701   0.110   4.661   0.564
 8411TIP3    H275702   0.025   4.643   0.444
 8412TIP3   OH275703   0.791   4.658   0.703
 8412TIP3    H175704   0.753   4.626   0.621
 8412TIP3    H275705   0.880   4.623   0.699
 8413TIP3   OH275706   1.822   4.409  18.813
 8413TIP3    H175707   1.769   4.374  18.740
 8413TIP3    H275708   1.831   4.501  18.785
 8414TIP3   OH275709   1.372   4.770   0.092
 8414TIP3    H175710   1.278   4.750   0.082
 8414TIP3    H275711   1.415   4.694   0.047
 8415TIP3   OH275712   0.212   4.698  18.686
 8415TIP3    H175713   0.274   4.770  18.670
 8415TIP3    H275714   0.126   4.735  18.665
 8416TIP3   OH275715   0.762   4.968  19.121
 8416TIP3    H175716   0.743   5.062  19.132
 8416TIP3    H275717   0.699   4.922  19.176
 8417TIP3   OH275718   0.814   5.386   0.288
 8417TIP3    H175719   0.856   5.471   0.263
 8417TIP3    H275720   0.869   5.356   0.361
 8418TIP3   OH275721   1.164   4.991   0.256
 8418TIP3    H175722   1.131   4.969   0.346
 8418TIP3    H275723   1.228   4.920   0.239
 8419TIP3   OH275724   0.250   4.173   0.437
 8419TIP3    H175725   0.162   4.211   0.451
 8419TIP3    H275726   0.242   4.091   0.490
 8420TIP3   OH275727   0.982   4.385   0.443
 8420TIP3    H175728   0.984   4.439   0.524
 8420TIP3    H275729   1.043   4.313   0.458
 8421TIP3   OH275730   0.582   4.099  18.765
 8421TIP3    H175731   0.568   4.190  18.799
 8421TIP3    H275732   0.673   4.079  18.790
 8422TIP3   OH275733   1.454   4.551  19.405
 8422TIP3    H175734   1.376   4.503  19.377
 8422TIP3    H275735   1.504   4.485  19.458
 8423TIP3   OH275736   0.321   3.890  19.442
 8423TIP3    H175737   0.295   3.887  19.349
 8423TIP3    H275738   0.283   3.811  19.483
 8424TIP3   OH275739   0.805   4.924   0.755
 8424TIP3    H175740   0.755   4.952   0.679
 8424TIP3    H275741   0.795   4.826   0.753
 8425TIP3   OH275742   0.279   4.690   0.756
 8425TIP3    H175743   0.278   4.596   0.732
 8425TIP3    H275744   0.217   4.682   0.828
 8426TIP3   OH275745   0.604   4.544   0.498
 8426TIP3    H175746   0.543   4.614   0.525
 8426TIP3    H275747   0.640   4.579   0.415
 8427TIP3   OH275748   0.783   4.576  18.562
 8427TIP3    H175749   0.770   4.568  18.466
 8427TIP3    H275750   0.880   4.595  18.570
 8428TIP3   OH275751   0.649   4.279   0.603
 8428TIP3    H175752   0.652   4.206   0.538
 8428TIP3    H275753   0.632   4.358   0.548
 8429TIP3   OH275754   0.679   4.128   0.366
 8429TIP3    H175755   0.733   4.159   0.291
 8429TIP3    H275756   0.597   4.104   0.318
 8430TIP3   OH275757   0.843   4.668   0.385
 8430TIP3    H175758   0.913   4.646   0.322
 8430TIP3    H275759   0.803   4.748   0.348
 8431TIP3   OH275760   1.275   4.443   0.874
 8431TIP3    H175761   1.299   4.348   0.877
 8431TIP3    H275762   1.364   4.482   0.884
 8432TIP3   OH275763   1.411   4.718   0.697
 8432TIP3    H175764   1.383   4.784   0.631
 8432TIP3    H275765   1.507   4.715   0.674
 8433TIP3   OH275766   0.512   4.401   0.776
 8433TIP3    H175767   0.426   4.353   0.779
 8433TIP3    H275768   0.566   4.352   0.716
 8434TIP3   OH275769   0.885   4.299   0.762
 8434TIP3    H175770   0.852   4.265   0.848
 8434TIP3    H275771   0.806   4.274   0.708
 8435TIP3   OH275772   0.292   4.200   0.759
 8435TIP3    H175773   0.323   4.126   0.704
 8435TIP3    H275774   0.303   4.160   0.847
 8436TIP3   OH275775   8.146   5.650  19.101
 8436TIP3    H175776   8.067   5.603  19.073
 8436TIP3    H275777   8.170   5.595  19.178
 8437TIP3   OH275778   1.648   5.068   0.881
 8437TIP3    H175779   1.555   5.063   0.909
 8437TIP3    H275780   1.678   5.151   0.919
 8438TIP3   OH275781   1.807   4.708  19.085
 8438TIP3    H175782   1.727   4.666  19.125
 8438TIP3    H275783   1.862   4.730  19.162
 8439TIP3   OH275784   1.780   4.985   0.114
 8439TIP3    H175785   1.862   4.948   0.079
 8439TIP3    H275786   1.791   5.080   0.093
 8440TIP3   OH275787   1.587   4.560  19.146
 8440TIP3    H175788   1.570   4.464  19.141
 8440TIP3    H275789   1.552   4.584  19.233
 8441TIP3   OH275790   1.668   4.759   0.645
 8441TIP3    H175791   1.732   4.685   0.652
 8441TIP3    H275792   1.729   4.833   0.634
 8442TIP3   OH275793   1.820   4.548   0.708
 8442TIP3    H175794   1.736   4.505   0.688
 8442TIP3    H275795   1.883   4.474   0.694
 8443TIP3   OH275796   1.558   4.320  18.994
 8443TIP3    H175797   1.582   4.226  19.000
 8443TIP3    H275798   1.631   4.361  18.948
 8444TIP3   OH275799   1.616   4.374   0.060
 8444TIP3    H175800   1.711   4.398   0.058
 8444TIP3    H275801   1.597   4.386   0.153
 8445TIP3   OH275802   0.073   4.241   0.636
 8445TIP3    H175803   0.144   4.280   0.692
 8445TIP3    H275804   0.012   4.225   0.710
 8446TIP3   OH275805   1.850   3.848   0.875
 8446TIP3    H175806   1.887   3.787   0.809
 8446TIP3    H275807   1.861   3.933   0.829
 8447TIP3   OH275808   1.625   4.044  18.990
 8447TIP3    H175809   1.630   4.008  19.081
 8447TIP3    H275810   1.555   3.990  18.950
 8448TIP3   OH275811   0.202   4.071  19.577
 8448TIP3    H175812   0.231   4.023  19.496
 8448TIP3    H275813   0.205   4.159  19.535
 8449TIP3   OH275814  -0.004   4.462   0.019
 8449TIP3    H175815   0.063   4.399  -0.011
 8449TIP3    H275816   0.050   4.498   0.090
 8450TIP3   OH275817   1.799   4.059   0.709
 8450TIP3    H175818   1.706   4.087   0.705
 8450TIP3    H275819   1.813   4.011   0.628
 8451TIP3   OH275820   1.805   4.053  18.653
 8451TIP3    H175821   1.844   3.981  18.601
 8451TIP3    H275822   1.877   4.119  18.651
 8452TIP3   OH275823   0.070   4.160  18.992
 8452TIP3    H175824  -0.023   4.118  18.982
 8452TIP3    H275825   0.088   4.133  18.900
 8453TIP3   OH275826   8.236   3.906   0.433
 8453TIP3    H175827   8.141   3.884   0.420
 8453TIP3    H275828   8.227   3.947   0.343
 8454TIP3   OH275829   0.973   5.607   0.193
 8454TIP3    H175830   0.948   5.668   0.121
 8454TIP3    H275831   1.012   5.671   0.257
 8455TIP3   OH275832   0.227   5.523   0.051
 8455TIP3    H175833   0.228   5.485   0.140
 8455TIP3    H275834   0.313   5.497   0.017
 8456TIP3   OH275835   1.693   3.950  19.233
 8456TIP3    H175836   1.740   3.883  19.181
 8456TIP3    H275837   1.743   4.034  19.237
 8457TIP3   OH275838   0.290   3.876  19.183
 8457TIP3    H175839   0.203   3.853  19.147
 8457TIP3    H275840   0.338   3.790  19.178
 8458TIP3   OH275841   0.227   3.730  18.844
 8458TIP3    H175842   0.255   3.786  18.770
 8458TIP3    H275843   0.149   3.794  18.846
 8459TIP3   OH275844   0.731   3.868  19.161
 8459TIP3    H175845   0.817   3.910  19.153
 8459TIP3    H275846   0.721   3.846  19.254
 8460TIP3   OH275847   0.152   5.451  18.848
 8460TIP3    H175848   0.086   5.444  18.779
 8460TIP3    H275849   0.154   5.544  18.870
 8461TIP3   OH275850   0.376   4.107  18.559
 8461TIP3    H175851   0.383   4.012  18.539
 8461TIP3    H275852   0.397   4.096  18.653
 8462TIP3   OH275853   0.847   4.077  18.850
 8462TIP3    H175854   0.870   4.012  18.917
 8462TIP3    H275855   0.846   4.162  18.894
 8463TIP3   OH275856   0.270   3.933   0.660
 8463TIP3    H175857   0.233   3.849   0.694
 8463TIP3    H275858   0.362   3.926   0.691
 8464TIP3   OH275859   0.473   3.869   0.818
 8464TIP3    H175860   0.559   3.834   0.790
 8464TIP3    H275861   0.431   3.789   0.854
 8465TIP3   OH275862   3.363   5.005  19.346
 8465TIP3    H175863   3.289   4.952  19.382
 8465TIP3    H275864   3.335   5.080  19.401
 8466TIP3   OH275865   2.293   5.128   0.054
 8466TIP3    H175866   2.259   5.045   0.019
 8466TIP3    H275867   2.389   5.111   0.057
 8467TIP3   OH275868   1.950   4.485  19.070
 8467TIP3    H175869   1.905   4.572  19.065
 8467TIP3    H275870   1.894   4.431  19.013
 8468TIP3   OH275871   2.026   4.708  19.287
 8468TIP3    H175872   2.049   4.624  19.326
 8468TIP3    H275873   2.095   4.717  19.218
 8469TIP3   OH275874   2.800   4.958   0.093
 8469TIP3    H175875   2.832   4.899   0.022
 8469TIP3    H275876   2.883   4.976   0.139
 8470TIP3   OH275877   3.119   4.403   0.114
 8470TIP3    H175878   3.131   4.307   0.124
 8470TIP3    H275879   3.104   4.416   0.021
 8471TIP3   OH275880   3.199   4.226  19.157
 8471TIP3    H175881   3.267   4.189  19.217
 8471TIP3    H275882   3.258   4.273  19.095
 8472TIP3   OH275883   2.310   4.097   0.245
 8472TIP3    H175884   2.292   4.159   0.175
 8472TIP3    H275885   2.250   4.127   0.317
 8473TIP3   OH275886   3.381   4.154  19.351
 8473TIP3    H175887   3.359   4.077  19.405
 8473TIP3    H275888   3.448   4.198  19.405
 8474TIP3   OH275889   2.023   5.031  18.904
 8474TIP3    H175890   1.995   5.059  18.815
 8474TIP3    H275891   2.025   5.113  18.954
 8475TIP3   OH275892   3.388   5.197   0.118
 8475TIP3    H175893   3.290   5.201   0.116
 8475TIP3    H275894   3.409   5.287   0.089
 8476TIP3   OH275895   3.418   4.023   0.245
 8476TIP3    H175896   3.343   4.084   0.244
 8476TIP3    H275897   3.484   4.070   0.194
 8477TIP3   OH275898   3.208   5.378  19.246
 8477TIP3    H175899   3.247   5.303  19.199
 8477TIP3    H275900   3.251   5.453  19.203
 8478TIP3   OH275901   3.496   5.022   0.469
 8478TIP3    H175902   3.501   4.959   0.394
 8478TIP3    H275903   3.509   5.108   0.425
 8479TIP3   OH275904   3.680   4.659   0.279
 8479TIP3    H175905   3.613   4.730   0.280
 8479TIP3    H275906   3.726   4.673   0.195
 8480TIP3   OH275907   3.274   4.553   0.445
 8480TIP3    H175908   3.279   4.628   0.508
 8480TIP3    H275909   3.213   4.586   0.379
 8481TIP3   OH275910   2.442   4.800  19.204
 8481TIP3    H175911   2.417   4.766  19.115
 8481TIP3    H275912   2.510   4.738  19.233
 8482TIP3   OH275913   2.577   5.143  19.474
 8482TIP3    H175914   2.577   5.089  19.393
 8482TIP3    H275915   2.657   5.105  19.516
 8483TIP3   OH275916   3.131   5.240   0.169
 8483TIP3    H175917   3.086   5.296   0.229
 8483TIP3    H275918   3.100   5.150   0.197
 8484TIP3   OH275919   3.173   4.654  18.782
 8484TIP3    H175920   3.230   4.667  18.857
 8484TIP3    H275921   3.210   4.704  18.710
 8485TIP3   OH275922   2.944   5.330  19.122
 8485TIP3    H175923   2.990   5.352  19.204
 8485TIP3    H275924   2.887   5.404  19.103
 8486TIP3   OH275925   2.345   4.709  18.960
 8486TIP3    H175926   2.312   4.784  18.908
 8486TIP3    H275927   2.283   4.638  18.939
 8487TIP3   OH275928   3.655   5.269  18.609
 8487TIP3    H175929   3.673   5.364  18.614
 8487TIP3    H275930   3.746   5.234  18.597
 8488TIP3   OH275931   1.950   4.945   0.374
 8488TIP3    H175932   1.903   4.938   0.290
 8488TIP3    H275933   1.959   4.853   0.400
 8489TIP3   OH275934   1.931   5.221   0.059
 8489TIP3    H175935   2.027   5.209   0.057
 8489TIP3    H275936   1.917   5.302   0.108
 8490TIP3   OH275937   3.751   5.292   0.624
 8490TIP3    H175938   3.746   5.196   0.626
 8490TIP3    H275939   3.666   5.316   0.666
 8491TIP3   OH275940   3.206   5.538  18.666
 8491TIP3    H175941   3.241   5.462  18.616
 8491TIP3    H275942   3.199   5.506  18.756
 8492TIP3   OH275943   3.465   4.440   0.673
 8492TIP3    H175944   3.424   4.484   0.598
 8492TIP3    H275945   3.471   4.348   0.645
 8493TIP3   OH275946   2.447   3.928   0.065
 8493TIP3    H175947   2.356   3.913   0.035
 8493TIP3    H275948   2.434   4.005   0.123
 8494TIP3   OH275949   2.911   3.902   0.410
 8494TIP3    H175950   2.952   3.849   0.482
 8494TIP3    H275951   2.816   3.877   0.418
 8495TIP3   OH275952   3.238   4.273   0.492
 8495TIP3    H175953   3.185   4.259   0.574
 8495TIP3    H275954   3.226   4.368   0.473
 8496TIP3   OH275955   2.874   4.133  18.600
 8496TIP3    H175956   2.851   4.141  18.694
 8496TIP3    H275957   2.847   4.043  18.581
 8497TIP3   OH275958   1.885   4.142  19.235
 8497TIP3    H175959   1.955   4.164  19.301
 8497TIP3    H275960   1.933   4.139  19.150
 8498TIP3   OH275961   2.015   4.235  18.775
 8498TIP3    H175962   2.062   4.290  18.710
 8498TIP3    H275963   1.945   4.298  18.802
 8499TIP3   OH275964   3.151   4.111   0.103
 8499TIP3    H175965   3.085   4.119   0.178
 8499TIP3    H275966   3.099   4.088   0.026
 8500TIP3   OH275967   3.480   5.676   0.740
 8500TIP3    H175968   3.502   5.717   0.654
 8500TIP3    H275969   3.547   5.713   0.798
 8501TIP3   OH275970   2.239   4.925   0.702
 8501TIP3    H175971   2.310   4.952   0.760
 8501TIP3    H275972   2.158   4.941   0.752
 8502TIP3   OH275973   2.346   4.078  19.090
 8502TIP3    H175974   2.310   3.989  19.083
 8502TIP3    H275975   2.418   4.076  19.028
 8503TIP3   OH275976   3.480   4.842   0.262
 8503TIP3    H175977   3.537   4.888   0.199
 8503TIP3    H275978   3.394   4.848   0.213
 8504TIP3   OH275979   2.270   4.853  19.433
 8504TIP3    H175980   2.344   4.854  19.369
 8504TIP3    H275981   2.283   4.770  19.479
 8505TIP3   OH275982   3.709   4.409  18.815
 8505TIP3    H175983   3.654   4.375  18.742
 8505TIP3    H275984   3.718   4.500  18.786
 8506TIP3   OH275985   3.705   4.987   0.621
 8506TIP3    H175986   3.618   5.014   0.582
 8506TIP3    H275987   3.763   4.993   0.545
 8507TIP3   OH275988   3.534   5.295  18.851
 8507TIP3    H175989   3.502   5.211  18.885
 8507TIP3    H275990   3.568   5.271  18.762
 8508TIP3   OH275991   3.262   4.752   0.110
 8508TIP3    H175992   3.170   4.761   0.076
 8508TIP3    H275993   3.301   4.692   0.044
 8509TIP3   OH275994   2.510   5.205  19.174
 8509TIP3    H175995   2.560   5.285  19.152
 8509TIP3    H275996   2.422   5.227  19.143
 8510TIP3   OH275997   2.081   4.692  18.626
 8510TIP3    H175998   2.146   4.751  18.668
 8510TIP3    H275999   1.998   4.725  18.659
 8511TIP3   OH276000   2.522   5.469  19.083
 8511TIP3    H176001   2.428   5.486  19.098
 8511TIP3    H276002   2.557   5.551  19.122
 8512TIP3   OH276003   3.054   5.001   0.291
 8512TIP3    H176004   3.006   4.955   0.359
 8512TIP3    H276005   3.105   4.934   0.241
 8513TIP3   OH276006   3.333   5.447   0.504
 8513TIP3    H176007   3.263   5.400   0.458
 8513TIP3    H276008   3.350   5.521   0.441
 8514TIP3   OH276009   3.728   5.537  18.663
 8514TIP3    H176010   3.800   5.597  18.637
 8514TIP3    H276011   3.658   5.597  18.691
 8515TIP3   OH276012   2.134   4.173   0.441
 8515TIP3    H176013   2.046   4.212   0.444
 8515TIP3    H276014   2.124   4.091   0.490
 8516TIP3   OH276015   3.367   4.957  18.854
 8516TIP3    H176016   3.339   4.886  18.913
 8516TIP3    H276017   3.457   4.970  18.882
 8517TIP3   OH276018   2.224   4.885  18.776
 8517TIP3    H176019   2.157   4.924  18.837
 8517TIP3    H276020   2.276   4.964  18.752
 8518TIP3   OH276021   3.015   4.144   0.334
 8518TIP3    H176022   3.079   4.157   0.405
 8518TIP3    H276023   2.972   4.059   0.358
 8519TIP3   OH276024   2.892   3.997  19.088
 8519TIP3    H176025   2.862   4.054  19.160
 8519TIP3    H276026   2.966   4.046  19.049
 8520TIP3   OH276027   2.594   5.426  18.802
 8520TIP3    H176028   2.610   5.507  18.754
 8520TIP3    H276029   2.574   5.457  18.893
 8521TIP3   OH276030   2.461   4.102  18.763
 8521TIP3    H176031   2.451   4.191  18.799
 8521TIP3    H276032   2.552   4.076  18.785
 8522TIP3   OH276033   3.482   4.168   0.530
 8522TIP3    H176034   3.391   4.204   0.520
 8522TIP3    H276035   3.513   4.179   0.440
 8523TIP3   OH276036   3.342   4.548  19.408
 8523TIP3    H176037   3.261   4.506  19.378
 8523TIP3    H276038   3.387   4.483  19.463
 8524TIP3   OH276039   2.286   5.137  18.671
 8524TIP3    H176040   2.343   5.212  18.695
 8524TIP3    H276041   2.330   5.103  18.593
 8525TIP3   OH276042   3.446   5.480   0.104
 8525TIP3    H176043   3.438   5.546   0.032
 8525TIP3    H276044   3.543   5.483   0.119
 8526TIP3   OH276045   2.189   3.892  19.454
 8526TIP3    H176046   2.185   3.889  19.356
 8526TIP3    H276047   2.158   3.803  19.481
 8527TIP3   OH276048   2.014   5.546   0.728
 8527TIP3    H176049   2.077   5.524   0.799
 8527TIP3    H276050   1.975   5.460   0.708
 8528TIP3   OH276051   2.477   5.434   0.890
 8528TIP3    H176052   2.559   5.389   0.916
 8528TIP3    H276053   2.476   5.414   0.795
 8529TIP3   OH276054   3.134   5.276   0.761
 8529TIP3    H176055   3.105   5.188   0.785
 8529TIP3    H276056   3.211   5.295   0.818
 8530TIP3   OH276057   3.352   5.366  18.518
 8530TIP3    H176058   3.384   5.287  18.564
 8530TIP3    H276059   3.427   5.390  18.462
 8531TIP3   OH276060   2.000   4.917   0.829
 8531TIP3    H176061   2.028   4.832   0.789
 8531TIP3    H276062   1.938   4.954   0.766
 8532TIP3   OH276063   2.102   4.648   0.765
 8532TIP3    H176064   2.135   4.559   0.749
 8532TIP3    H276065   2.075   4.646   0.858
 8533TIP3   OH276066   3.302   4.704   0.677
 8533TIP3    H176067   3.272   4.787   0.639
 8533TIP3    H276068   3.399   4.714   0.675
 8534TIP3   OH276069   2.645   3.864   0.402
 8534TIP3    H176070   2.633   3.957   0.384
 8534TIP3    H276071   2.573   3.824   0.349
 8535TIP3   OH276072   3.042   4.204   0.664
 8535TIP3    H176073   2.949   4.212   0.682
 8535TIP3    H276074   3.076   4.148   0.735
 8536TIP3   OH276075   3.196   4.074   0.865
 8536TIP3    H176076   3.203   3.978   0.865
 8536TIP3    H276077   3.177   4.099   0.955
 8537TIP3   OH276078   2.181   4.195   0.770
 8537TIP3    H176079   2.207   4.123   0.711
 8537TIP3    H276080   2.180   4.154   0.859
 8538TIP3   OH276081   2.707   3.965   0.867
 8538TIP3    H176082   2.687   3.912   0.791
 8538TIP3    H276083   2.642   4.036   0.866
 8539TIP3   OH276084   2.013   5.114  18.615
 8539TIP3    H176085   2.108   5.122  18.636
 8539TIP3    H276086   2.014   5.048  18.544
 8540TIP3   OH276087   1.963   5.462  19.299
 8540TIP3    H176088   1.931   5.374  19.319
 8540TIP3    H276089   1.991   5.497  19.386
 8541TIP3   OH276090   3.719   5.543   0.121
 8541TIP3    H176091   3.721   5.557   0.218
 8541TIP3    H276092   3.790   5.600   0.092
 8542TIP3   OH276093   3.675   5.500   0.416
 8542TIP3    H176094   3.627   5.423   0.379
 8542TIP3    H276095   3.728   5.458   0.486
 8543TIP3   OH276096   3.521   5.078   0.875
 8543TIP3    H176097   3.438   5.064   0.922
 8543TIP3    H276098   3.561   5.153   0.925
 8544TIP3   OH276099   3.668   4.981   0.114
 8544TIP3    H176100   3.752   4.951   0.077
 8544TIP3    H276101   3.676   5.078   0.096
 8545TIP3   OH276102   3.519   5.273   0.343
 8545TIP3    H176103   3.451   5.309   0.401
 8545TIP3    H276104   3.466   5.236   0.268
 8546TIP3   OH276105   3.559   4.419  18.581
 8546TIP3    H176106   3.557   4.486  18.513
 8546TIP3    H276107   3.537   4.337  18.533
 8547TIP3   OH276108   3.471   4.564  19.145
 8547TIP3    H176109   3.456   4.469  19.136
 8547TIP3    H276110   3.437   4.587  19.232
 8548TIP3   OH276111   1.971   4.768   0.077
 8548TIP3    H176112   1.989   4.765  -0.019
 8548TIP3    H276113   2.060   4.759   0.113
 8549TIP3   OH276114   3.557   4.755   0.646
 8549TIP3    H176115   3.617   4.679   0.651
 8549TIP3    H276116   3.614   4.835   0.639
 8550TIP3   OH276117   3.479   4.165  18.492
 8550TIP3    H176118   3.540   4.122  18.555
 8550TIP3    H276119   3.394   4.125  18.513
 8551TIP3   OH276120   3.441   4.319  18.997
 8551TIP3    H176121   3.472   4.226  19.000
 8551TIP3    H276122   3.515   4.360  18.951
 8552TIP3   OH276123   3.506   4.447   0.337
 8552TIP3    H176124   3.421   4.478   0.373
 8552TIP3    H276125   3.555   4.530   0.320
 8553TIP3   OH276126   1.935   4.300   0.693
 8553TIP3    H176127   2.030   4.281   0.710
 8553TIP3    H276128   1.892   4.218   0.723
 8554TIP3   OH276129   3.739   3.846   0.877
 8554TIP3    H176130   3.772   3.784   0.811
 8554TIP3    H276131   3.743   3.930   0.826
 8555TIP3   OH276132   3.501   4.046  18.997
 8555TIP3    H176133   3.524   4.000  19.081
 8555TIP3    H276134   3.444   3.986  18.948
 8556TIP3   OH276135   2.057   4.126  19.443
 8556TIP3    H176136   2.104   4.046  19.476
 8556TIP3    H276137   2.102   4.198  19.490
 8557TIP3   OH276138   1.883   4.424   0.078
 8557TIP3    H176139   1.938   4.402   0.003
 8557TIP3    H276140   1.921   4.507   0.111
 8558TIP3   OH276141   3.685   4.049   0.713
 8558TIP3    H176142   3.597   4.091   0.707
 8558TIP3    H276143   3.694   4.009   0.625
 8559TIP3   OH276144   3.687   4.053  18.648
 8559TIP3    H176145   3.729   3.982  18.598
 8559TIP3    H276146   3.757   4.119  18.654
 8560TIP3   OH276147   1.917   4.052  18.960
 8560TIP3    H176148   1.824   4.077  18.943
 8560TIP3    H276149   1.963   4.104  18.891
 8561TIP3   OH276150   3.403   5.543  19.158
 8561TIP3    H176151   3.471   5.517  19.094
 8561TIP3    H276152   3.449   5.598  19.223
 8562TIP3   OH276153   1.914   3.920   0.313
 8562TIP3    H176154   1.852   3.896   0.382
 8562TIP3    H276155   1.869   3.989   0.264
 8563TIP3   OH276156   2.134   5.244   0.739
 8563TIP3    H176157   2.054   5.261   0.691
 8563TIP3    H276158   2.107   5.233   0.830
 8564TIP3   OH276159   3.588   3.868   0.491
 8564TIP3    H176160   3.506   3.905   0.452
 8564TIP3    H276161   3.607   3.790   0.437
 8565TIP3   OH276162   2.414   5.628   0.267
 8565TIP3    H176163   2.331   5.638   0.312
 8565TIP3    H276164   2.408   5.683   0.188
 8566TIP3   OH276165   3.378   5.653   0.311
 8566TIP3    H176166   3.366   5.748   0.288
 8566TIP3    H276167   3.397   5.616   0.223
 8567TIP3   OH276168   2.109   5.524   0.054
 8567TIP3    H176169   2.116   5.491   0.143
 8567TIP3    H276170   2.195   5.495   0.014
 8568TIP3   OH276171   2.320   5.402  19.403
 8568TIP3    H176172   2.309   5.306  19.413
 8568TIP3    H276173   2.410   5.417  19.439
 8569TIP3   OH276174   2.579   5.445   0.007
 8569TIP3    H176175   2.600   5.355  -0.018
 8569TIP3    H276176   2.585   5.446   0.102
 8570TIP3   OH276177   3.613   3.939  19.235
 8570TIP3    H176178   3.680   3.887  19.186
 8570TIP3    H276179   3.655   4.028  19.239
 8571TIP3   OH276180   2.156   3.870  19.186
 8571TIP3    H176181   2.092   3.851  19.116
 8571TIP3    H276182   2.215   3.792  19.174
 8572TIP3   OH276183   2.047   3.855  18.758
 8572TIP3    H176184   2.091   3.917  18.697
 8572TIP3    H276185   1.984   3.910  18.804
 8573TIP3   OH276186   2.229   4.043  18.605
 8573TIP3    H176187   2.280   3.983  18.551
 8573TIP3    H276188   2.294   4.080  18.667
 8574TIP3   OH276189   2.730   4.077  18.848
 8574TIP3    H176190   2.759   4.013  18.917
 8574TIP3    H276191   2.734   4.161  18.896
 8575TIP3   OH276192   3.591   5.530  18.962
 8575TIP3    H176193   3.574   5.451  18.904
 8575TIP3    H276194   3.587   5.602  18.896
 8576TIP3   OH276195   2.157   3.933   0.650
 8576TIP3    H176196   2.118   3.855   0.694
 8576TIP3    H276197   2.248   3.929   0.687
 8577TIP3   OH276198   2.357   3.867   0.815
 8577TIP3    H176199   2.445   3.835   0.794
 8577TIP3    H276200   2.318   3.790   0.859
 8578TIP3   OH276201   3.516   5.399   0.698
 8578TIP3    H176202   3.436   5.390   0.642
 8578TIP3    H276203   3.509   5.496   0.715
 8579TIP3   OH276204   4.953   4.789  19.172
 8579TIP3    H176205   4.965   4.886  19.163
 8579TIP3    H276206   4.888   4.770  19.104
 8580TIP3   OH276207   4.839   4.717   0.047
 8580TIP3    H176208   4.848   4.646   0.110
 8580TIP3    H276209   4.815   4.667  -0.033
 8581TIP3   OH276210   4.174   5.126   0.056
 8581TIP3    H176211   4.144   5.041   0.018
 8581TIP3    H276212   4.271   5.114   0.057
 8582TIP3   OH276213   4.685   4.958   0.086
 8582TIP3    H176214   4.722   4.890   0.027
 8582TIP3    H276215   4.763   4.974   0.140
 8583TIP3   OH276216   5.546   4.120   0.166
 8583TIP3    H176217   5.562   4.180   0.242
 8583TIP3    H276218   5.597   4.164   0.096
 8584TIP3   OH276219   4.996   4.399   0.118
 8584TIP3    H176220   5.020   4.305   0.114
 8584TIP3    H276221   4.995   4.422   0.023
 8585TIP3   OH276222   5.588   4.264   0.394
 8585TIP3    H176223   5.527   4.338   0.385
 8585TIP3    H276224   5.593   4.250   0.489
 8586TIP3   OH276225   4.909   5.040  19.085
 8586TIP3    H176226   4.906   5.020  18.992
 8586TIP3    H276227   4.913   5.137  19.090
 8587TIP3   OH276228   5.302   4.021   0.251
 8587TIP3    H176229   5.229   4.082   0.239
 8587TIP3    H276230   5.370   4.060   0.193
 8588TIP3   OH276231   4.600   3.834  -0.010
 8588TIP3    H176232   4.588   3.738  -0.010
 8588TIP3    H276233   4.513   3.863   0.025
 8589TIP3   OH276234   5.562   4.650   0.274
 8589TIP3    H176235   5.502   4.723   0.284
 8589TIP3    H276236   5.613   4.679   0.198
 8590TIP3   OH276237   4.336   4.802  19.201
 8590TIP3    H176238   4.297   4.762  19.122
 8590TIP3    H276239   4.390   4.730  19.235
 8591TIP3   OH276240   4.463   5.136  19.472
 8591TIP3    H176241   4.463   5.087  19.390
 8591TIP3    H276242   4.543   5.106  19.518
 8592TIP3   OH276243   4.370   4.680   0.089
 8592TIP3    H176244   4.429   4.687   0.014
 8592TIP3    H276245   4.403   4.742   0.153
 8593TIP3   OH276246   5.007   5.232   0.170
 8593TIP3    H176247   4.974   5.296   0.233
 8593TIP3    H276248   4.983   5.148   0.208
 8594TIP3   OH276249   5.057   4.650  18.781
 8594TIP3    H176250   5.113   4.668  18.857
 8594TIP3    H276251   5.098   4.702  18.711
 8595TIP3   OH276252   3.817   5.215   0.061
 8595TIP3    H176253   3.913   5.211   0.054
 8595TIP3    H276254   3.805   5.298   0.108
 8596TIP3   OH276255   5.641   5.288   0.629
 8596TIP3    H176256   5.623   5.195   0.621
 8596TIP3    H276257   5.551   5.318   0.662
 8597TIP3   OH276258   4.735   5.248   0.515
 8597TIP3    H176259   4.739   5.329   0.565
 8597TIP3    H276260   4.649   5.212   0.537
 8598TIP3   OH276261   4.772   5.624  18.956
 8598TIP3    H176262   4.765   5.618  18.862
 8598TIP3    H276263   4.774   5.719  18.980
 8599TIP3   OH276264   5.356   4.439   0.670
 8599TIP3    H176265   5.309   4.489   0.602
 8599TIP3    H276266   5.350   4.348   0.639
 8600TIP3   OH276267   4.335   3.924   0.071
 8600TIP3    H176268   4.245   3.913   0.034
 8600TIP3    H276269   4.325   4.008   0.116
 8601TIP3   OH276270   4.799   4.500   0.707
 8601TIP3    H176271   4.745   4.431   0.745
 8601TIP3    H276272   4.886   4.491   0.748
 8602TIP3   OH276273   4.988   4.427  19.315
 8602TIP3    H176274   4.974   4.489  19.242
 8602TIP3    H276275   5.009   4.345  19.268
 8603TIP3   OH276276   3.773   4.156  19.227
 8603TIP3    H176277   3.840   4.159  19.295
 8603TIP3    H276278   3.820   4.125  19.149
 8604TIP3   OH276279   5.035   4.119   0.109
 8604TIP3    H176280   4.967   4.116   0.176
 8604TIP3    H276281   4.990   4.087   0.029
 8605TIP3   OH276282   5.362   5.677   0.739
 8605TIP3    H176283   5.385   5.719   0.655
 8605TIP3    H276284   5.432   5.709   0.799
 8606TIP3   OH276285   4.122   4.925   0.701
 8606TIP3    H176286   4.194   4.951   0.758
 8606TIP3    H276287   4.043   4.942   0.755
 8607TIP3   OH276288   4.730   4.467  19.444
 8607TIP3    H176289   4.785   4.410  19.390
 8607TIP3    H276290   4.712   4.412  19.521
 8608TIP3   OH276291   4.224   4.067  19.082
 8608TIP3    H176292   4.200   3.975  19.084
 8608TIP3    H276293   4.308   4.074  19.035
 8609TIP3   OH276294   4.587   4.298   0.213
 8609TIP3    H176295   4.507   4.351   0.221
 8609TIP3    H276296   4.642   4.329   0.286
 8610TIP3   OH276297   4.648   4.921  18.857
 8610TIP3    H176298   4.571   4.874  18.819
 8610TIP3    H276299   4.626   4.930  18.951
 8611TIP3   OH276300   4.166   4.861  19.446
 8611TIP3    H176301   4.227   4.852  19.371
 8611TIP3    H276302   4.164   4.770  19.480
 8612TIP3   OH276303   4.537   4.971  19.124
 8612TIP3    H176304   4.512   5.064  19.131
 8612TIP3    H276305   4.464   4.924  19.168
 8613TIP3   OH276306   3.985   5.354   0.290
 8613TIP3    H176307   4.014   5.262   0.285
 8613TIP3    H276308   4.012   5.382   0.378
 8614TIP3   OH276309   4.114   4.882  18.783
 8614TIP3    H176310   4.040   4.917  18.833
 8614TIP3    H276311   4.162   4.959  18.755
 8615TIP3   OH276312   4.083   3.891  19.452
 8615TIP3    H176313   4.064   3.892  19.356
 8615TIP3    H276314   4.044   3.807  19.479
 8616TIP3   OH276315   3.896   5.545   0.730
 8616TIP3    H176316   3.965   5.523   0.792
 8616TIP3    H276317   3.859   5.460   0.703
 8617TIP3   OH276318   3.893   4.927   0.821
 8617TIP3    H176319   3.909   4.836   0.793
 8617TIP3    H276320   3.816   4.953   0.768
 8618TIP3   OH276321   4.555   4.918   0.766
 8618TIP3    H176322   4.532   4.949   0.677
 8618TIP3    H276323   4.582   4.826   0.752
 8619TIP3   OH276324   4.441   4.766  18.737
 8619TIP3    H176325   4.393   4.714  18.803
 8619TIP3    H276326   4.473   4.701  18.673
 8620TIP3   OH276327   4.879   4.797   0.833
 8620TIP3    H176328   4.975   4.797   0.823
 8620TIP3    H276329   4.860   4.719   0.887
 8621TIP3   OH276330   5.048   4.441   0.891
 8621TIP3    H176331   5.070   4.349   0.869
 8621TIP3    H276332   5.133   4.486   0.880
 8622TIP3   OH276333   4.938   4.217   0.680
 8622TIP3    H176334   4.842   4.210   0.668
 8622TIP3    H276335   4.958   4.139   0.730
 8623TIP3   OH276336   4.558   5.648  18.649
 8623TIP3    H176337   4.644   5.673  18.678
 8623TIP3    H276338   4.521   5.724  18.604
 8624TIP3   OH276339   3.896   5.115  18.615
 8624TIP3    H176340   3.991   5.124  18.633
 8624TIP3    H276341   3.898   5.049  18.544
 8625TIP3   OH276342   3.768   5.654  19.118
 8625TIP3    H176343   3.702   5.603  19.064
 8625TIP3    H276344   3.803   5.583  19.173
 8626TIP3   OH276345   5.609   5.544   0.120
 8626TIP3    H176346   5.608   5.559   0.216
 8626TIP3    H276347   5.679   5.603   0.093
 8627TIP3   OH276348   5.566   5.499   0.413
 8627TIP3    H176349   5.514   5.425   0.380
 8627TIP3    H276350   5.615   5.458   0.486
 8628TIP3   OH276351   5.595   4.549   0.702
 8628TIP3    H176352   5.505   4.511   0.691
 8628TIP3    H276353   5.651   4.470   0.696
 8629TIP3   OH276354   5.390   4.373   0.062
 8629TIP3    H176355   5.484   4.398   0.059
 8629TIP3    H276356   5.367   4.389   0.153
 8630TIP3   OH276357   5.619   3.849   0.870
 8630TIP3    H176358   5.658   3.784   0.811
 8630TIP3    H276359   5.638   3.930   0.824
 8631TIP3   OH276360   5.576   4.055  18.658
 8631TIP3    H176361   5.610   3.983  18.604
 8631TIP3    H276362   5.644   4.121  18.648
 8632TIP3   OH276363   3.802   3.925   0.316
 8632TIP3    H176364   3.738   3.906   0.387
 8632TIP3    H276365   3.754   3.989   0.263
 8633TIP3   OH276366   4.317   5.341   0.365
 8633TIP3    H176367   4.273   5.420   0.334
 8633TIP3    H276368   4.406   5.352   0.331
 8634TIP3   OH276369   5.474   3.871   0.488
 8634TIP3    H176370   5.391   3.904   0.451
 8634TIP3    H276371   5.493   3.789   0.438
 8635TIP3   OH276372   5.264   5.654   0.311
 8635TIP3    H176373   5.252   5.749   0.288
 8635TIP3    H276374   5.284   5.618   0.224
 8636TIP3   OH276375   4.813   4.015  19.391
 8636TIP3    H176376   4.748   3.949  19.422
 8636TIP3    H276377   4.873   3.962  19.338
 8637TIP3   OH276378   4.049   3.876  19.179
 8637TIP3    H176379   3.970   3.852  19.129
 8637TIP3    H276380   4.101   3.793  19.176
 8638TIP3   OH276381   4.503   3.870  19.158
 8638TIP3    H176382   4.593   3.904  19.155
 8638TIP3    H276383   4.494   3.848  19.252
 8639TIP3   OH276384   3.917   5.446  18.853
 8639TIP3    H176385   3.852   5.450  18.781
 8639TIP3    H276386   3.925   5.539  18.873
 8640TIP3   OH276387   5.470   5.533  18.964
 8640TIP3    H176388   5.457   5.461  18.901
 8640TIP3    H276389   5.471   5.606  18.899
 8641TIP3   OH276390   4.036   3.929   0.655
 8641TIP3    H176391   4.005   3.849   0.699
 8641TIP3    H276392   4.129   3.931   0.687
 8642TIP3   OH276393   4.243   3.862   0.810
 8642TIP3    H176394   4.333   3.832   0.791
 8642TIP3    H276395   4.203   3.787   0.858
 8643TIP3   OH276396   5.406   5.405   0.690
 8643TIP3    H176397   5.320   5.385   0.649
 8643TIP3    H276398   5.390   5.498   0.718
 8644TIP3   OH276399   5.972   4.676   0.192
 8644TIP3    H176400   5.973   4.616   0.270
 8644TIP3    H276401   6.036   4.743   0.220
 8645TIP3   OH276402   5.730   4.490  19.059
 8645TIP3    H176403   5.681   4.572  19.065
 8645TIP3    H276404   5.666   4.432  19.017
 8646TIP3   OH276405   5.794   4.706  19.281
 8646TIP3    H176406   5.820   4.628  19.333
 8646TIP3    H276407   5.868   4.717  19.221
 8647TIP3   OH276408   6.814   5.520  19.365
 8647TIP3    H176409   6.880   5.453  19.341
 8647TIP3    H276410   6.796   5.499  19.457
 8648TIP3   OH276411   6.877   4.396   0.119
 8648TIP3    H176412   6.908   4.304   0.117
 8648TIP3    H276413   6.881   4.422   0.027
 8649TIP3   OH276414   6.201   4.214  19.317
 8649TIP3    H176415   6.206   4.301  19.270
 8649TIP3    H276416   6.159   4.156  19.252
 8650TIP3   OH276417   5.862   4.453  19.388
 8650TIP3    H176418   5.929   4.398  19.435
 8650TIP3    H276419   5.869   4.419  19.297
 8651TIP3   OH276420   6.378   4.604  19.316
 8651TIP3    H176421   6.442   4.549  19.363
 8651TIP3    H276422   6.321   4.539  19.271
 8652TIP3   OH276423   7.148   4.152  19.354
 8652TIP3    H176424   7.132   4.076  19.410
 8652TIP3    H276425   7.216   4.203  19.401
 8653TIP3   OH276426   6.040   4.293   0.043
 8653TIP3    H176427   6.106   4.352   0.085
 8653TIP3    H276428   6.097   4.246  -0.021
 8654TIP3   OH276429   6.186   5.066   0.357
 8654TIP3    H176430   6.182   5.155   0.319
 8654TIP3    H276431   6.097   5.058   0.398
 8655TIP3   OH276432   7.184   4.026   0.249
 8655TIP3    H176433   7.110   4.087   0.241
 8655TIP3    H276434   7.254   4.066   0.197
 8656TIP3   OH276435   7.448   4.655   0.275
 8656TIP3    H176436   7.388   4.730   0.279
 8656TIP3    H276437   7.498   4.681   0.194
 8657TIP3   OH276438   6.223   4.806  19.196
 8657TIP3    H176439   6.183   4.757  19.121
 8657TIP3    H276440   6.274   4.734  19.240
 8658TIP3   OH276441   6.356   5.147  19.466
 8658TIP3    H176442   6.343   5.085  19.393
 8658TIP3    H276443   6.426   5.108  19.519
 8659TIP3   OH276444   6.349   5.118   0.565
 8659TIP3    H176445   6.308   5.193   0.612
 8659TIP3    H276446   6.284   5.100   0.493
 8660TIP3   OH276447   6.040   4.735   0.485
 8660TIP3    H176448   6.041   4.804   0.554
 8660TIP3    H276449   5.947   4.743   0.457
 8661TIP3   OH276450   6.169   5.322   0.642
 8661TIP3    H176451   6.167   5.314   0.545
 8661TIP3    H276452   6.075   5.310   0.666
 8662TIP3   OH276453   6.122   4.704  18.957
 8662TIP3    H176454   6.086   4.782  18.910
 8662TIP3    H276455   6.052   4.639  18.943
 8663TIP3   OH276456   7.429   5.261  18.608
 8663TIP3    H176457   7.440   5.358  18.614
 8663TIP3    H276458   7.521   5.232  18.595
 8664TIP3   OH276459   7.531   5.289   0.636
 8664TIP3    H176460   7.512   5.197   0.621
 8664TIP3    H276461   7.441   5.321   0.661
 8665TIP3   OH276462   6.616   5.247   0.510
 8665TIP3    H176463   6.624   5.328   0.564
 8665TIP3    H276464   6.532   5.208   0.539
 8666TIP3   OH276465   6.657   5.623  18.964
 8666TIP3    H176466   6.656   5.610  18.868
 8666TIP3    H276467   6.665   5.717  18.975
 8667TIP3   OH276468   6.031   5.502  19.147
 8667TIP3    H176469   6.042   5.467  19.238
 8667TIP3    H276470   5.943   5.469  19.126
 8668TIP3   OH276471   5.947   5.081   0.475
 8668TIP3    H176472   5.973   5.040   0.560
 8668TIP3    H276473   5.867   5.034   0.453
 8669TIP3   OH276474   7.011   4.273   0.494
 8669TIP3    H176475   6.962   4.258   0.576
 8669TIP3    H276476   6.995   4.365   0.473
 8670TIP3   OH276477   6.645   4.143  18.616
 8670TIP3    H176478   6.616   4.145  18.708
 8670TIP3    H276479   6.619   4.057  18.586
 8671TIP3   OH276480   6.228   4.423   0.189
 8671TIP3    H176481   6.159   4.418   0.258
 8671TIP3    H276482   6.222   4.514   0.159
 8672TIP3   OH276483   6.226   4.432  19.154
 8672TIP3    H176484   6.131   4.413  19.139
 8672TIP3    H276485   6.263   4.407  19.067
 8673TIP3   OH276486   6.685   4.512   0.712
 8673TIP3    H176487   6.634   4.429   0.728
 8673TIP3    H276488   6.770   4.489   0.749
 8674TIP3   OH276489   5.996   4.450   0.364
 8674TIP3    H176490   5.997   4.489   0.453
 8674TIP3    H276491   5.951   4.365   0.380
 8675TIP3   OH276492   5.664   4.168  19.230
 8675TIP3    H176493   5.723   4.153  19.306
 8675TIP3    H276494   5.700   4.115  19.157
 8676TIP3   OH276495   5.788   4.241  18.777
 8676TIP3    H176496   5.833   4.293  18.708
 8676TIP3    H276497   5.713   4.296  18.799
 8677TIP3   OH276498   6.486   4.190  19.254
 8677TIP3    H176499   6.391   4.189  19.280
 8677TIP3    H276500   6.528   4.175  19.339
 8678TIP3   OH276501   5.964   4.344  19.137
 8678TIP3    H176502   5.875   4.364  19.103
 8678TIP3    H276503   5.986   4.258  19.100
 8679TIP3   OH276504   6.327   4.351  18.905
 8679TIP3    H176505   6.422   4.363  18.922
 8679TIP3    H276506   6.304   4.415  18.835
 8680TIP3   OH276507   6.921   4.115   0.112
 8680TIP3    H176508   6.852   4.116   0.178
 8680TIP3    H276509   6.875   4.087   0.031
 8681TIP3   OH276510   6.196   4.468  18.663
 8681TIP3    H176511   6.142   4.430  18.591
 8681TIP3    H276512   6.278   4.485  18.616
 8682TIP3   OH276513   7.247   5.674   0.738
 8682TIP3    H176514   7.270   5.713   0.652
 8682TIP3    H276515   7.317   5.709   0.792
 8683TIP3   OH276516   6.010   4.926   0.696
 8683TIP3    H176517   6.082   4.948   0.759
 8683TIP3    H276518   5.933   4.931   0.754
 8684TIP3   OH276519   6.607   4.459  19.441
 8684TIP3    H176520   6.671   4.408  19.392
 8684TIP3    H276521   6.597   4.414  19.525
 8685TIP3   OH276522   6.551   4.907  18.864
 8685TIP3    H176523   6.480   4.852  18.827
 8685TIP3    H276524   6.528   4.923  18.958
 8686TIP3   OH276525   5.749   4.698   0.488
 8686TIP3    H176526   5.761   4.656   0.574
 8686TIP3    H276527   5.680   4.644   0.445
 8687TIP3   OH276528   6.446   4.654   0.710
 8687TIP3    H176529   6.413   4.629   0.622
 8687TIP3    H276530   6.539   4.624   0.705
 8688TIP3   OH276531   7.315   5.290  18.858
 8688TIP3    H176532   7.271   5.209  18.885
 8688TIP3    H276533   7.337   5.274  18.764
 8689TIP3   OH276534   6.280   5.204  19.169
 8689TIP3    H176535   6.329   5.287  19.152
 8689TIP3    H276536   6.191   5.231  19.144
 8690TIP3   OH276537   5.849   4.688  18.631
 8690TIP3    H176538   5.915   4.751  18.664
 8690TIP3    H276539   5.766   4.723  18.661
 8691TIP3   OH276540   6.419   4.975  19.117
 8691TIP3    H176541   6.391   5.066  19.139
 8691TIP3    H276542   6.352   4.923  19.168
 8692TIP3   OH276543   6.468   5.390   0.292
 8692TIP3    H176544   6.516   5.469   0.264
 8692TIP3    H276545   6.530   5.353   0.357
 8693TIP3   OH276546   6.289   5.470  19.079
 8693TIP3    H176547   6.193   5.489  19.091
 8693TIP3    H276548   6.328   5.553  19.112
 8694TIP3   OH276549   7.500   5.535  18.662
 8694TIP3    H176550   7.570   5.596  18.638
 8694TIP3    H276551   7.428   5.592  18.687
 8695TIP3   OH276552   5.904   4.177   0.447
 8695TIP3    H176553   5.813   4.208   0.438
 8695TIP3    H276554   5.896   4.089   0.487
 8696TIP3   OH276555   5.871   5.352   0.287
 8696TIP3    H176556   5.900   5.261   0.285
 8696TIP3    H276557   5.896   5.380   0.375
 8697TIP3   OH276558   6.340   5.181  18.719
 8697TIP3    H176559   6.367   5.150  18.802
 8697TIP3    H276560   6.352   5.276  18.746
 8698TIP3   OH276561   5.997   4.883  18.781
 8698TIP3    H176562   5.924   4.920  18.834
 8698TIP3    H276563   6.044   4.962  18.751
 8699TIP3   OH276564   6.579   4.289  19.002
 8699TIP3    H176565   6.659   4.341  19.006
 8699TIP3    H276566   6.551   4.269  19.094
 8700TIP3   OH276567   6.660   3.997  19.082
 8700TIP3    H176568   6.628   4.050  19.157
 8700TIP3    H276569   6.736   4.046  19.052
 8701TIP3   OH276570   6.352   5.429  18.803
 8701TIP3    H176571   6.379   5.510  18.753
 8701TIP3    H276572   6.340   5.463  18.894
 8702TIP3   OH276573   6.228   4.101  18.766
 8702TIP3    H176574   6.226   4.192  18.798
 8702TIP3    H276575   6.320   4.075  18.787
 8703TIP3   OH276576   7.248   4.162   0.533
 8703TIP3    H176577   7.161   4.206   0.520
 8703TIP3    H276578   7.288   4.175   0.446
 8704TIP3   OH276579   6.059   5.138  18.671
 8704TIP3    H176580   6.116   5.212  18.697
 8704TIP3    H276581   6.104   5.103  18.593
 8705TIP3   OH276582   7.220   5.478   0.102
 8705TIP3    H176583   7.207   5.545   0.033
 8705TIP3    H276584   7.316   5.484   0.118
 8706TIP3   OH276585   5.868   5.285  19.069
 8706TIP3    H176586   5.782   5.328  19.064
 8706TIP3    H276587   5.917   5.332  19.001
 8707TIP3   OH276588   5.786   5.547   0.725
 8707TIP3    H176589   5.845   5.526   0.799
 8707TIP3    H276590   5.746   5.461   0.705
 8708TIP3   OH276591   6.252   5.438   0.887
 8708TIP3    H176592   6.328   5.388   0.919
 8708TIP3    H276593   6.248   5.412   0.792
 8709TIP3   OH276594   6.902   5.279   0.762
 8709TIP3    H176595   6.880   5.188   0.784
 8709TIP3    H276596   6.981   5.292   0.818
 8710TIP3   OH276597   6.438   4.922   0.767
 8710TIP3    H176598   6.417   4.955   0.677
 8710TIP3    H276599   6.459   4.828   0.751
 8711TIP3   OH276600   5.873   4.646   0.765
 8711TIP3    H176601   5.909   4.558   0.755
 8711TIP3    H276602   5.838   4.648   0.854
 8712TIP3   OH276603   6.333   4.765  18.745
 8712TIP3    H176604   6.282   4.706  18.804
 8712TIP3    H276605   6.359   4.698  18.676
 8713TIP3   OH276606   6.265   4.546   0.502
 8713TIP3    H176607   6.197   4.613   0.523
 8713TIP3    H276608   6.291   4.575   0.414
 8714TIP3   OH276609   6.437   4.583  18.563
 8714TIP3    H176610   6.425   4.564  18.469
 8714TIP3    H276611   6.534   4.587  18.567
 8715TIP3   OH276612   6.148   4.399   0.803
 8715TIP3    H176613   6.067   4.348   0.780
 8715TIP3    H276614   6.209   4.371   0.734
 8716TIP3   OH276615   6.542   4.300   0.762
 8716TIP3    H176616   6.511   4.269   0.848
 8716TIP3    H276617   6.468   4.273   0.706
 8717TIP3   OH276618   6.964   4.083   0.858
 8717TIP3    H176619   6.972   3.986   0.857
 8717TIP3    H276620   6.950   4.104   0.950
 8718TIP3   OH276621   5.958   4.198   0.769
 8718TIP3    H176622   5.978   4.123   0.710
 8718TIP3    H276623   5.947   4.152   0.856
 8719TIP3   OH276624   6.428   5.641  18.657
 8719TIP3    H176625   6.522   5.660  18.677
 8719TIP3    H276626   6.403   5.715  18.600
 8720TIP3   OH276627   5.790   5.109  18.609
 8720TIP3    H176628   5.883   5.120  18.636
 8720TIP3    H276629   5.790   5.047  18.538
 8721TIP3   OH276630   5.658   5.652  19.113
 8721TIP3    H176631   5.587   5.604  19.065
 8721TIP3    H276632   5.684   5.586  19.180
 8722TIP3   OH276633   5.734   5.460  19.297
 8722TIP3    H176634   5.702   5.373  19.322
 8722TIP3    H276635   5.763   5.495  19.384
 8723TIP3   OH276636   7.499   5.537   0.124
 8723TIP3    H176637   7.486   5.561   0.217
 8723TIP3    H276638   7.560   5.603   0.090
 8724TIP3   OH276639   7.438   4.986   0.116
 8724TIP3    H176640   7.517   4.944   0.077
 8724TIP3    H276641   7.454   5.079   0.095
 8725TIP3   OH276642   7.276   4.368   0.062
 8725TIP3    H176643   7.369   4.399   0.061
 8725TIP3    H276644   7.253   4.391   0.154
 8726TIP3   OH276645   7.273   4.448   0.328
 8726TIP3    H176646   7.197   4.478   0.378
 8726TIP3    H276647   7.327   4.530   0.318
 8727TIP3   OH276648   5.707   4.294   0.692
 8727TIP3    H176649   5.801   4.278   0.711
 8727TIP3    H276650   5.664   4.215   0.726
 8728TIP3   OH276651   7.513   3.846   0.875
 8728TIP3    H176652   7.543   3.784   0.809
 8728TIP3    H276653   7.515   3.931   0.827
 8729TIP3   OH276654   7.288   4.044  18.988
 8729TIP3    H176655   7.294   4.008  19.077
 8729TIP3    H276656   7.213   3.995  18.951
 8730TIP3   OH276657   5.826   4.128  19.449
 8730TIP3    H176658   5.871   4.048  19.479
 8730TIP3    H276659   5.879   4.198  19.490
 8731TIP3   OH276660   5.654   4.429   0.083
 8731TIP3    H176661   5.711   4.406   0.007
 8731TIP3    H276662   5.697   4.510   0.111
 8732TIP3   OH276663   7.457   4.054   0.716
 8732TIP3    H176664   7.367   4.089   0.705
 8732TIP3    H276665   7.467   4.012   0.630
 8733TIP3   OH276666   7.461   4.047  18.651
 8733TIP3    H176667   7.505   3.980  18.599
 8733TIP3    H276668   7.527   4.117  18.654
 8734TIP3   OH276669   5.693   4.060  18.961
 8734TIP3    H176670   5.599   4.069  18.945
 8734TIP3    H276671   5.734   4.105  18.885
 8735TIP3   OH276672   5.687   3.918   0.317
 8735TIP3    H176673   5.621   3.903   0.388
 8735TIP3    H276674   5.641   3.987   0.264
 8736TIP3   OH276675   5.907   5.244   0.737
 8736TIP3    H176676   5.822   5.261   0.692
 8736TIP3    H276677   5.882   5.236   0.829
 8737TIP3   OH276678   6.201   5.340   0.364
 8737TIP3    H176679   6.166   5.425   0.336
 8737TIP3    H276680   6.293   5.350   0.332
 8738TIP3   OH276681   6.632   5.482   0.653
 8738TIP3    H176682   6.645   5.448   0.745
 8738TIP3    H276683   6.721   5.507   0.628
 8739TIP3   OH276684   5.942   5.664   0.365
 8739TIP3    H176685   5.869   5.713   0.321
 8739TIP3    H276686   5.907   5.646   0.453
 8740TIP3   OH276687   6.189   5.623   0.268
 8740TIP3    H176688   6.099   5.637   0.309
 8740TIP3    H276689   6.176   5.678   0.190
 8741TIP3   OH276690   6.656   5.612   0.189
 8741TIP3    H176691   6.613   5.667   0.122
 8741TIP3    H276692   6.676   5.676   0.260
 8742TIP3   OH276693   7.148   5.654   0.315
 8742TIP3    H176694   7.140   5.749   0.293
 8742TIP3    H276695   7.166   5.615   0.229
 8743TIP3   OH276696   5.882   5.523   0.055
 8743TIP3    H176697   5.880   5.483   0.144
 8743TIP3    H276698   5.967   5.496   0.017
 8744TIP3   OH276699   6.096   5.396  19.394
 8744TIP3    H176700   6.079   5.304  19.417
 8744TIP3    H276701   6.181   5.415  19.439
 8745TIP3   OH276702   6.353   5.447   0.008
 8745TIP3    H176703   6.373   5.355  -0.017
 8745TIP3    H276704   6.357   5.442   0.105
 8746TIP3   OH276705   7.210   3.823  19.409
 8746TIP3    H176706   7.274   3.877  19.356
 8746TIP3    H276707   7.125   3.856  19.379
 8747TIP3   OH276708   7.400   3.937  19.255
 8747TIP3    H176709   7.449   3.890  19.187
 8747TIP3    H276710   7.430   4.030  19.241
 8748TIP3   OH276711   5.812   3.853  18.756
 8748TIP3    H176712   5.861   3.915  18.699
 8748TIP3    H276713   5.755   3.911  18.809
 8749TIP3   OH276714   6.000   4.041  18.605
 8749TIP3    H176715   6.054   3.986  18.548
 8749TIP3    H276716   6.069   4.077  18.664
 8750TIP3   OH276717   6.504   4.073  18.849
 8750TIP3    H176718   6.525   4.013  18.922
 8750TIP3    H276719   6.503   4.159  18.896
 8751TIP3   OH276720   6.690   5.578  18.687
 8751TIP3    H176721   6.780   5.606  18.669
 8751TIP3    H276722   6.670   5.524  18.609
 8752TIP3   OH276723   5.926   3.932   0.657
 8752TIP3    H176724   5.890   3.850   0.693
 8752TIP3    H276725   6.018   3.926   0.691
 8753TIP3   OH276726   6.128   3.869   0.815
 8753TIP3    H176727   6.217   3.838   0.793
 8753TIP3    H276728   6.087   3.792   0.859
 8754TIP3   OH276729   5.991   5.548  18.551
 8754TIP3    H176730   5.958   5.571  18.638
 8754TIP3    H276731   6.066   5.490  18.567
 8755TIP3   OH276732   7.284   5.401   0.699
 8755TIP3    H176733   7.209   5.388   0.640
 8755TIP3    H276734   7.278   5.497   0.715
 8756TIP3   OH276735   7.861   4.676   0.194
 8756TIP3    H176736   7.860   4.619   0.272
 8756TIP3    H276737   7.928   4.740   0.226
 8757TIP3   OH276738   7.929   5.132   0.050
 8757TIP3    H176739   7.904   5.042   0.020
 8757TIP3    H276740   8.021   5.129   0.069
 8758TIP3   OH276741   7.684   4.709  19.280
 8758TIP3    H176742   7.704   4.627  19.328
 8758TIP3    H276743   7.754   4.715  19.215
 8759TIP3   OH276744   7.750   4.451  19.390
 8759TIP3    H176745   7.821   4.400  19.432
 8759TIP3    H276746   7.755   4.422  19.298
 8760TIP3   OH276747   8.065   5.039   0.335
 8760TIP3    H176748   8.073   5.137   0.327
 8760TIP3    H276749   7.990   5.048   0.400
 8761TIP3   OH276750   7.673   5.032  18.908
 8761TIP3    H176751   7.655   5.057  18.816
 8761TIP3    H276752   7.683   5.116  18.955
 8762TIP3   OH276753   8.087   4.810  19.207
 8762TIP3    H176754   8.070   4.768  19.119
 8762TIP3    H276755   8.155   4.746  19.238
 8763TIP3   OH276756   7.919   4.735   0.480
 8763TIP3    H176757   7.930   4.799   0.552
 8763TIP3    H276758   7.826   4.748   0.460
 8764TIP3   OH276759   8.056   5.311   0.650
 8764TIP3    H176760   8.053   5.306   0.554
 8764TIP3    H276761   7.961   5.311   0.670
 8765TIP3   OH276762   7.586   5.223   0.055
 8765TIP3    H176763   7.681   5.208   0.057
 8765TIP3    H276764   7.576   5.303   0.108
 8766TIP3   OH276765   7.905   5.509  19.144
 8766TIP3    H176766   7.923   5.468  19.232
 8766TIP3    H276767   7.823   5.461  19.123
 8767TIP3   OH276768   7.835   5.080   0.473
 8767TIP3    H176769   7.860   5.042   0.561
 8767TIP3    H276770   7.752   5.034   0.456
 8768TIP3   OH276771   8.106   4.441   0.269
 8768TIP3    H176772   8.018   4.406   0.265
 8768TIP3    H276773   8.101   4.490   0.185
 8769TIP3   OH276774   7.542   4.162  19.232
 8769TIP3    H176775   7.610   4.159  19.302
 8769TIP3    H276776   7.588   4.122  19.155
 8770TIP3   OH276777   7.666   4.233  18.768
 8770TIP3    H176778   7.717   4.294  18.714
 8770TIP3    H276779   7.598   4.290  18.803
 8771TIP3   OH276780   7.896   4.929   0.693
 8771TIP3    H176781   7.969   4.948   0.756
 8771TIP3    H276782   7.820   4.942   0.752
 8772TIP3   OH276783   7.944   4.862  19.444
 8772TIP3    H176784   7.993   4.847  19.359
 8772TIP3    H276785   7.930   4.771  19.476
 8773TIP3   OH276786   7.629   4.700   0.489
 8773TIP3    H176787   7.653   4.654   0.571
 8773TIP3    H276788   7.566   4.641   0.445
 8774TIP3   OH276789   7.766   5.356   0.285
 8774TIP3    H176790   7.780   5.260   0.288
 8774TIP3    H276791   7.776   5.379   0.378
 8775TIP3   OH276792   7.942   5.146  18.666
 8775TIP3    H176793   8.006   5.210  18.697
 8775TIP3    H276794   7.992   5.099  18.599
 8776TIP3   OH276795   7.749   5.283  19.068
 8776TIP3    H176796   7.664   5.329  19.064
 8776TIP3    H276797   7.799   5.329  19.000
 8777TIP3   OH276798   7.673   5.544   0.724
 8777TIP3    H176799   7.733   5.527   0.799
 8777TIP3    H276800   7.630   5.459   0.707
 8778TIP3   OH276801   7.661   4.925   0.825
 8778TIP3    H176802   7.682   4.835   0.791
 8778TIP3    H276803   7.588   4.948   0.766
 8779TIP3   OH276804   7.749   4.647   0.762
 8779TIP3    H176805   7.789   4.561   0.747
 8779TIP3    H276806   7.731   4.648   0.858
 8780TIP3   OH276807   7.671   5.116  18.614
 8780TIP3    H176808   7.766   5.120  18.639
 8780TIP3    H276809   7.670   5.048  18.546
 8781TIP3   OH276810   7.546   5.650  19.106
 8781TIP3    H176811   7.468   5.607  19.070
 8781TIP3    H276812   7.568   5.588  19.180
 8782TIP3   OH276813   7.621   5.465  19.298
 8782TIP3    H176814   7.591   5.374  19.317
 8782TIP3    H276815   7.650   5.494  19.386
 8783TIP3   OH276816   7.629   4.767   0.075
 8783TIP3    H176817   7.645   4.762  -0.021
 8783TIP3    H276818   7.717   4.751   0.114
 8784TIP3   OH276819   7.710   4.128  19.448
 8784TIP3    H176820   7.761   4.049  19.472
 8784TIP3    H276821   7.764   4.197  19.487
 8785TIP3   OH276822   7.546   4.424   0.086
 8785TIP3    H176823   7.596   4.408   0.004
 8785TIP3    H276824   7.580   4.512   0.109
 8786TIP3   OH276825   7.576   4.058  18.968
 8786TIP3    H176826   7.481   4.069  18.947
 8786TIP3    H276827   7.620   4.097  18.890
 8787TIP3   OH276828   7.792   5.245   0.737
 8787TIP3    H176829   7.708   5.264   0.692
 8787TIP3    H276830   7.764   5.236   0.829
 8788TIP3   OH276831   8.057   5.281   0.346
 8788TIP3    H176832   8.011   5.367   0.341
 8788TIP3    H276833   8.148   5.319   0.354
 8789TIP3   OH276834   8.079   5.662   0.217
 8789TIP3    H176835   8.010   5.654   0.283
 8789TIP3    H276836   8.047   5.713   0.143
 8790TIP3   OH276837   7.768   5.531   0.061
 8790TIP3    H176838   7.765   5.479   0.143
 8790TIP3    H276839   7.848   5.496   0.017
 8791TIP3   OH276840   7.977   5.408  19.402
 8791TIP3    H176841   7.961   5.312  19.414
 8791TIP3    H276842   8.066   5.416  19.437
 8792TIP3   OH276843   7.696   5.451  18.847
 8792TIP3    H176844   7.623   5.446  18.781
 8792TIP3    H276845   7.689   5.544  18.873
 8793TIP3   OH276846   7.880   5.549  18.551
 8793TIP3    H176847   7.844   5.568  18.638
 8793TIP3    H276848   7.952   5.488  18.565
 8794TIP3   OH276849   1.192   6.677  19.167
 8794TIP3    H176850   1.188   6.775  19.163
 8794TIP3    H276851   1.119   6.651  19.107
 8795TIP3   OH276852   1.080   6.601   0.045
 8795TIP3    H176853   1.069   6.533   0.110
 8795TIP3    H276854   1.042   6.555  -0.033
 8796TIP3   OH276855   1.445   6.899  19.343
 8796TIP3    H176856   1.406   6.826  19.391
 8796TIP3    H276857   1.446   6.968  19.412
 8797TIP3   OH276858   0.100   6.404  19.012
 8797TIP3    H176859   0.041   6.464  19.060
 8797TIP3    H276860   0.037   6.336  18.994
 8798TIP3   OH276861   1.159   7.415  19.370
 8798TIP3    H176862   1.218   7.342  19.339
 8798TIP3    H276863   1.136   7.381  19.455
 8799TIP3   OH276864   0.924   6.853   0.071
 8799TIP3    H176865   0.948   6.774   0.022
 8799TIP3    H276866   0.989   6.855   0.141
 8800TIP3   OH276867   1.775   6.007   0.164
 8800TIP3    H176868   1.789   6.066   0.241
 8800TIP3    H276869   1.830   6.049   0.097
 8801TIP3   OH276870   1.231   6.287   0.122
 8801TIP3    H176871   1.241   6.191   0.125
 8801TIP3    H276872   1.220   6.303   0.026
 8802TIP3   OH276873   0.543   6.096  19.320
 8802TIP3    H176874   0.552   6.182  19.273
 8802TIP3    H276875   0.505   6.040  19.251
 8803TIP3   OH276876   1.314   6.109  19.156
 8803TIP3    H176877   1.382   6.074  19.218
 8803TIP3    H276878   1.370   6.160  19.095
 8804TIP3   OH276879   1.822   6.154   0.391
 8804TIP3    H176880   1.753   6.223   0.379
 8804TIP3    H276881   1.820   6.139   0.486
 8805TIP3   OH276882   0.432   5.988   0.246
 8805TIP3    H176883   0.403   6.044   0.171
 8805TIP3    H276884   0.365   6.011   0.314
 8806TIP3   OH276885   1.167   6.936  19.073
 8806TIP3    H176886   1.135   6.906  18.987
 8806TIP3    H276887   1.135   7.027  19.080
 8807TIP3   OH276888   1.494   6.039  19.355
 8807TIP3    H176889   1.478   5.960  19.408
 8807TIP3    H276890   1.562   6.085  19.408
 8808TIP3   OH276891   0.386   6.173   0.051
 8808TIP3    H176892   0.449   6.241   0.082
 8808TIP3    H276893   0.439   6.133  -0.022
 8809TIP3   OH276894   1.495   7.078   0.099
 8809TIP3    H176895   1.401   7.091   0.121
 8809TIP3    H276896   1.525   7.171   0.091
 8810TIP3   OH276897   0.829   5.720  -0.005
 8810TIP3    H176898   0.814   5.626  -0.017
 8810TIP3    H276899   0.740   5.751   0.019
 8811TIP3   OH276900   1.320   7.259  19.236
 8811TIP3    H176901   1.370   7.188  19.191
 8811TIP3    H276902   1.366   7.339  19.204
 8812TIP3   OH276903   1.438   7.052  19.089
 8812TIP3    H176904   1.414   6.979  19.031
 8812TIP3    H276905   1.448   7.005  19.174
 8813TIP3   OH276906   1.058   6.605  18.918
 8813TIP3    H176907   0.985   6.653  18.879
 8813TIP3    H276908   1.126   6.610  18.848
 8814TIP3   OH276909   1.059   6.445  18.629
 8814TIP3    H176910   1.137   6.452  18.686
 8814TIP3    H276911   1.093   6.392  18.556
 8815TIP3   OH276912   1.791   6.538   0.270
 8815TIP3    H176913   1.729   6.613   0.280
 8815TIP3    H276914   1.844   6.566   0.193
 8816TIP3   OH276915   1.401   6.622  19.009
 8816TIP3    H176916   1.326   6.645  19.071
 8816TIP3    H276917   1.446   6.554  19.063
 8817TIP3   OH276918   1.393   6.439   0.447
 8817TIP3    H176919   1.392   6.518   0.503
 8817TIP3    H276920   1.329   6.466   0.380
 8818TIP3   OH276921   1.227   7.116   0.163
 8818TIP3    H176922   1.208   7.182   0.230
 8818TIP3    H276923   1.211   7.034   0.211
 8819TIP3   OH276924   1.287   6.540  18.776
 8819TIP3    H176925   1.341   6.559  18.857
 8819TIP3    H276926   1.326   6.594  18.707
 8820TIP3   OH276927   0.102   6.807   0.357
 8820TIP3    H176928   0.024   6.828   0.304
 8820TIP3    H276929   0.073   6.729   0.407
 8821TIP3   OH276930   0.960   7.143   0.509
 8821TIP3    H176931   0.968   7.221   0.567
 8821TIP3    H276932   0.880   7.097   0.538
 8822TIP3   OH276933   1.007   7.504  18.964
 8822TIP3    H176934   0.995   7.498  18.868
 8822TIP3    H276935   1.008   7.600  18.983
 8823TIP3   OH276936   0.369   7.397  19.151
 8823TIP3    H176937   0.384   7.342  19.228
 8823TIP3    H276938   0.288   7.352  19.118
 8824TIP3   OH276939   1.308   7.423  18.663
 8824TIP3    H176940   1.356   7.349  18.620
 8824TIP3    H276941   1.317   7.400  18.757
 8825TIP3   OH276942   1.281   7.416  18.939
 8825TIP3    H176943   1.186   7.429  18.962
 8825TIP3    H276944   1.307   7.346  19.000
 8826TIP3   OH276945   1.584   6.320   0.675
 8826TIP3    H176946   1.535   6.367   0.605
 8826TIP3    H276947   1.580   6.230   0.642
 8827TIP3   OH276948   0.565   5.811   0.068
 8827TIP3    H176949   0.473   5.798   0.035
 8827TIP3    H276950   0.553   5.892   0.119
 8828TIP3   OH276951   1.028   5.778   0.407
 8828TIP3    H176952   1.063   5.739   0.487
 8828TIP3    H276953   0.930   5.766   0.418
 8829TIP3   OH276954   1.363   6.161   0.502
 8829TIP3    H176955   1.295   6.142   0.572
 8829TIP3    H276956   1.338   6.250   0.471
 8830TIP3   OH276957   0.573   6.307   0.192
 8830TIP3    H176958   0.499   6.307   0.255
 8830TIP3    H276959   0.570   6.397   0.157
 8831TIP3   OH276960   1.120   6.369  19.029
 8831TIP3    H176961   1.081   6.453  18.997
 8831TIP3    H276962   1.189   6.352  18.964
 8832TIP3   OH276963   1.030   6.389   0.703
 8832TIP3    H176964   0.974   6.314   0.732
 8832TIP3    H276965   1.112   6.375   0.754
 8833TIP3   OH276966   1.224   6.317  19.314
 8833TIP3    H176967   1.196   6.373  19.239
 8833TIP3    H276968   1.234   6.233  19.265
 8834TIP3   OH276969   0.339   6.338   0.367
 8834TIP3    H176970   0.337   6.377   0.455
 8834TIP3    H276971   0.290   6.257   0.382
 8835TIP3   OH276972   0.043   6.048  19.186
 8835TIP3    H176973   0.069   6.034  19.281
 8835TIP3    H276974   0.081   5.974  19.139
 8836TIP3   OH276975   0.150   6.140  18.790
 8836TIP3    H176976   0.186   6.185  18.711
 8836TIP3    H276977   0.070   6.193  18.799
 8837TIP3   OH276978   0.827   6.067  19.251
 8837TIP3    H176979   0.734   6.072  19.281
 8837TIP3    H276980   0.872   6.062  19.336
 8838TIP3   OH276981   1.596   7.553   0.734
 8838TIP3    H176982   1.604   7.607   0.655
 8838TIP3    H276983   1.655   7.597   0.797
 8839TIP3   OH276984   0.958   6.351  19.445
 8839TIP3    H176985   1.009   6.295  19.385
 8839TIP3    H276986   0.937   6.294  19.520
 8840TIP3   OH276987   0.821   6.186   0.211
 8840TIP3    H176988   0.735   6.233   0.221
 8840TIP3    H276989   0.871   6.218   0.287
 8841TIP3   OH276990   1.597   6.722   0.258
 8841TIP3    H176991   1.650   6.778   0.202
 8841TIP3    H276992   1.509   6.730   0.216
 8842TIP3   OH276993   1.264   6.089  18.669
 8842TIP3    H176994   1.169   6.101  18.658
 8842TIP3    H276995   1.290   6.176  18.704
 8843TIP3   OH276996   1.336   6.278  18.838
 8843TIP3    H176997   1.425   6.266  18.875
 8843TIP3    H276998   1.341   6.360  18.787
 8844TIP3   OH276999   1.088   6.952  18.768
 8844TIP3    H177000   1.051   7.038  18.790
 8844TIP3    H277001   1.011   6.893  18.772
 8845TIP3   OH277002   0.085   6.583   0.490
 8845TIP3    H177003   0.109   6.543   0.574
 8845TIP3    H277004   0.023   6.521   0.449
 8846TIP3   OH277005   1.254   7.072   0.502
 8846TIP3    H177006   1.162   7.093   0.477
 8846TIP3    H277007   1.254   7.104   0.594
 8847TIP3   OH277008   1.816   6.296  18.813
 8847TIP3    H177009   1.770   6.258  18.737
 8847TIP3    H277010   1.834   6.388  18.781
 8848TIP3   OH277011   1.815   6.871   0.620
 8848TIP3    H177012   1.733   6.909   0.585
 8848TIP3    H277013   1.877   6.880   0.544
 8849TIP3   OH277014   1.655   7.176  18.853
 8849TIP3    H177015   1.616   7.095  18.888
 8849TIP3    H277016   1.682   7.156  18.763
 8850TIP3   OH277017   1.371   6.657   0.090
 8850TIP3    H177018   1.277   6.637   0.075
 8850TIP3    H277019   1.415   6.582   0.047
 8851TIP3   OH277020   0.814   7.277   0.289
 8851TIP3    H177021   0.863   7.356   0.264
 8851TIP3    H277022   0.871   7.240   0.359
 8852TIP3   OH277023   0.633   7.356  19.085
 8852TIP3    H177024   0.537   7.371  19.087
 8852TIP3    H277025   0.671   7.443  19.108
 8853TIP3   OH277026   1.389   6.980  18.640
 8853TIP3    H177027   1.423   6.935  18.720
 8853TIP3    H277028   1.293   6.965  18.645
 8854TIP3   OH277029   1.842   7.421  18.653
 8854TIP3    H177030   1.913   7.484  18.641
 8854TIP3    H277031   1.772   7.477  18.693
 8855TIP3   OH277032   0.249   6.058   0.445
 8855TIP3    H177033   0.158   6.092   0.444
 8855TIP3    H277034   0.239   5.972   0.488
 8856TIP3   OH277035   1.475   6.841  18.858
 8856TIP3    H177036   1.448   6.765  18.915
 8856TIP3    H277037   1.566   6.855  18.886
 8857TIP3   OH277038   1.199   5.995  18.920
 8857TIP3    H177039   1.222   6.042  18.839
 8857TIP3    H277040   1.255   6.039  18.985
 8858TIP3   OH277041   1.013   5.874  19.099
 8858TIP3    H177042   0.969   5.942  19.152
 8858TIP3    H277043   1.074   5.929  19.045
 8859TIP3   OH277044   0.701   7.314  18.803
 8859TIP3    H177045   0.723   7.394  18.752
 8859TIP3    H277046   0.682   7.348  18.892
 8860TIP3   OH277047   1.597   6.057   0.533
 8860TIP3    H177048   1.503   6.088   0.521
 8860TIP3    H277049   1.624   6.056   0.440
 8861TIP3   OH277050   1.457   6.439  19.406
 8861TIP3    H177051   1.374   6.394  19.381
 8861TIP3    H277052   1.504   6.370  19.458
 8862TIP3   OH277053   1.566   7.359   0.101
 8862TIP3    H177054   1.549   7.431   0.037
 8862TIP3    H277055   1.662   7.370   0.113
 8863TIP3   OH277056   0.313   5.777  19.452
 8863TIP3    H177057   0.289   5.779  19.357
 8863TIP3    H277058   0.267   5.695  19.478
 8864TIP3   OH277059   0.210   7.179  19.079
 8864TIP3    H177060   0.120   7.211  19.063
 8864TIP3    H277061   0.252   7.212  18.998
 8865TIP3   OH277062   0.133   7.426   0.726
 8865TIP3    H177063   0.195   7.409   0.799
 8865TIP3    H277064   0.089   7.344   0.699
 8866TIP3   OH277065   0.593   7.322   0.882
 8866TIP3    H177066   0.667   7.276   0.924
 8866TIP3    H277067   0.597   7.297   0.790
 8867TIP3   OH277068   1.245   7.161   0.760
 8867TIP3    H177069   1.216   7.073   0.789
 8867TIP3    H277070   1.322   7.175   0.817
 8868TIP3   OH277071   1.463   7.254  18.518
 8868TIP3    H177072   1.490   7.173  18.565
 8868TIP3    H277073   1.541   7.277  18.466
 8869TIP3   OH277074   0.152   6.808   0.801
 8869TIP3    H177075   0.157   6.714   0.776
 8869TIP3    H277076   0.079   6.835   0.744
 8870TIP3   OH277077   1.364   6.798   0.500
 8870TIP3    H177078   1.439   6.858   0.493
 8870TIP3    H277079   1.290   6.860   0.505
 8871TIP3   OH277080   0.207   6.530   0.762
 8871TIP3    H177081   0.255   6.447   0.747
 8871TIP3    H277082   0.179   6.525   0.853
 8872TIP3   OH277083   1.106   6.687   0.838
 8872TIP3    H177084   1.201   6.681   0.820
 8872TIP3    H277085   1.091   6.605   0.886
 8873TIP3   OH277086   0.682   6.002   0.356
 8873TIP3    H177087   0.733   6.051   0.288
 8873TIP3    H277088   0.593   5.996   0.315
 8874TIP3   OH277089   1.276   6.329   0.885
 8874TIP3    H177090   1.297   6.235   0.876
 8874TIP3    H277091   1.362   6.371   0.882
 8875TIP3   OH277092   1.410   6.608   0.695
 8875TIP3    H177093   1.383   6.678   0.633
 8875TIP3    H277094   1.506   6.603   0.675
 8876TIP3   OH277095   0.757   5.746   0.401
 8876TIP3    H177096   0.746   5.844   0.390
 8876TIP3    H277097   0.683   5.711   0.351
 8877TIP3   OH277098   0.887   6.176   0.759
 8877TIP3    H177099   0.859   6.157   0.851
 8877TIP3    H277100   0.810   6.158   0.705
 8878TIP3   OH277101   1.162   6.092   0.668
 8878TIP3    H177102   1.066   6.098   0.680
 8878TIP3    H277103   1.190   6.032   0.738
 8879TIP3   OH277104   1.310   5.963   0.864
 8879TIP3    H177105   1.322   5.867   0.865
 8879TIP3    H277106   1.291   5.986   0.956
 8880TIP3   OH277107   0.816   5.840   0.878
 8880TIP3    H177108   0.806   5.803   0.790
 8880TIP3    H277109   0.763   5.922   0.870
 8881TIP3   OH277110   0.765   7.543  18.667
 8881TIP3    H177111   0.862   7.547  18.675
 8881TIP3    H277112   0.745   7.603  18.595
 8882TIP3   OH277113   0.129   7.007  18.603
 8882TIP3    H177114   0.218   7.006  18.639
 8882TIP3    H277115   0.128   6.933  18.543
 8883TIP3   OH277116   8.146   7.537  19.112
 8883TIP3    H177117   8.070   7.487  19.082
 8883TIP3    H277118   8.170   7.475  19.183
 8884TIP3   OH277119   0.091   7.348  19.297
 8884TIP3    H177120   0.046   7.262  19.310
 8884TIP3    H277121   0.102   7.380  19.387
 8885TIP3   OH277122   1.827   7.437   0.113
 8885TIP3    H177123   1.834   7.446   0.208
 8885TIP3    H277124   1.907   7.482   0.085
 8886TIP3   OH277125   1.636   6.961   0.881
 8886TIP3    H177126   1.547   6.954   0.921
 8886TIP3    H277127   1.673   7.037   0.925
 8887TIP3   OH277128   1.806   6.594  19.085
 8887TIP3    H177129   1.729   6.549  19.125
 8887TIP3    H277130   1.863   6.612  19.161
 8888TIP3   OH277131   1.832   6.583  18.725
 8888TIP3    H177132   1.776   6.617  18.654
 8888TIP3    H277133   1.831   6.651  18.793
 8889TIP3   OH277134   1.583   6.448  19.141
 8889TIP3    H177135   1.570   6.352  19.141
 8889TIP3    H277136   1.553   6.471  19.231
 8890TIP3   OH277137   0.087   6.653   0.071
 8890TIP3    H177138   0.107   6.647  -0.022
 8890TIP3    H277139   0.171   6.643   0.116
 8891TIP3   OH277140   1.670   6.644   0.636
 8891TIP3    H177141   1.733   6.570   0.652
 8891TIP3    H277142   1.732   6.721   0.639
 8892TIP3   OH277143   1.821   6.432   0.702
 8892TIP3    H177144   1.733   6.391   0.689
 8892TIP3    H277145   1.879   6.354   0.696
 8893TIP3   OH277146   1.555   6.205  18.985
 8893TIP3    H177147   1.586   6.116  19.002
 8893TIP3    H277148   1.635   6.248  18.952
 8894TIP3   OH277149   1.616   6.263   0.060
 8894TIP3    H177150   1.712   6.282   0.059
 8894TIP3    H277151   1.598   6.267   0.155
 8895TIP3   OH277152   1.622   6.331   0.339
 8895TIP3    H177153   1.535   6.361   0.373
 8895TIP3    H277154   1.667   6.417   0.317
 8896TIP3   OH277155   0.055   6.164   0.672
 8896TIP3    H177156   0.144   6.162   0.708
 8896TIP3    H277157   0.005   6.102   0.725
 8897TIP3   OH277158   1.859   5.737   0.875
 8897TIP3    H177159   1.887   5.669   0.811
 8897TIP3    H277160   1.859   5.820   0.823
 8898TIP3   OH277161   0.172   6.014  19.443
 8898TIP3    H177162   0.215   5.934  19.476
 8898TIP3    H277163   0.219   6.083  19.490
 8899TIP3   OH277164   0.022   6.354   0.005
 8899TIP3    H177165   0.068   6.271  -0.006
 8899TIP3    H277166   0.051   6.380   0.093
 8900TIP3   OH277167   1.805   5.944   0.708
 8900TIP3    H177168   1.711   5.973   0.704
 8900TIP3    H277169   1.808   5.893   0.627
 8901TIP3   OH277170   0.047   5.932  18.962
 8901TIP3    H177171  -0.042   5.971  18.972
 8901TIP3    H277172   0.093   5.998  18.906
 8902TIP3   OH277173   1.507   7.437  19.154
 8902TIP3    H177174   1.575   7.406  19.093
 8902TIP3    H277175   1.559   7.485  19.221
 8903TIP3   OH277176   0.543   7.233   0.364
 8903TIP3    H177177   0.503   7.315   0.336
 8903TIP3    H277178   0.633   7.234   0.329
 8904TIP3   OH277179   0.975   7.369   0.654
 8904TIP3    H177180   0.992   7.337   0.745
 8904TIP3    H277181   1.064   7.402   0.627
 8905TIP3   OH277182   1.206   7.497   0.584
 8905TIP3    H177183   1.275   7.434   0.558
 8905TIP3    H277184   1.243   7.539   0.664
 8906TIP3   OH277185   0.281   7.523   0.360
 8906TIP3    H177186   0.213   7.584   0.325
 8906TIP3    H277187   0.255   7.523   0.453
 8907TIP3   OH277188   0.526   7.503   0.256
 8907TIP3    H177189   0.444   7.518   0.311
 8907TIP3    H277190   0.531   7.583   0.202
 8908TIP3   OH277191   0.998   7.499   0.190
 8908TIP3    H177192   0.959   7.554   0.121
 8908TIP3    H277193   1.017   7.565   0.261
 8909TIP3   OH277194   1.232   7.386   0.288
 8909TIP3    H177195   1.145   7.408   0.251
 8909TIP3    H277196   1.277   7.471   0.278
 8910TIP3   OH277197   0.690   7.336   0.009
 8910TIP3    H177198   0.717   7.246  -0.017
 8910TIP3    H277199   0.705   7.325   0.105
 8911TIP3   OH277200   0.275   5.765  19.181
 8911TIP3    H177201   0.198   5.737  19.130
 8911TIP3    H277202   0.329   5.682  19.175
 8912TIP3   OH277203   0.157   5.740  18.756
 8912TIP3    H177204   0.208   5.798  18.699
 8912TIP3    H277205   0.101   5.798  18.806
 8913TIP3   OH277206   0.142   7.339  18.859
 8913TIP3    H177207   0.083   7.331  18.783
 8913TIP3    H277208   0.154   7.434  18.868
 8914TIP3   OH277209   1.033   7.468  18.686
 8914TIP3    H177210   1.128   7.486  18.671
 8914TIP3    H277211   1.016   7.408  18.611
 8915TIP3   OH277212   1.709   7.414  18.959
 8915TIP3    H177213   1.688   7.336  18.903
 8915TIP3    H277214   1.704   7.487  18.894
 8916TIP3   OH277215   0.471   5.755   0.819
 8916TIP3    H177216   0.556   5.723   0.787
 8916TIP3    H277217   0.427   5.677   0.851
 8917TIP3   OH277218   0.334   7.420  18.553
 8917TIP3    H177219   0.304   7.461  18.635
 8917TIP3    H277220   0.415   7.375  18.573
 8918TIP3   OH277221   1.609   7.287   0.724
 8918TIP3    H177222   1.554   7.270   0.646
 8918TIP3    H277223   1.618   7.385   0.720
 8919TIP3   OH277224   3.073   6.678  19.170
 8919TIP3    H177225   3.075   6.776  19.162
 8919TIP3    H277226   3.005   6.651  19.105
 8920TIP3   OH277227   2.957   6.601   0.044
 8920TIP3    H177228   2.961   6.538   0.116
 8920TIP3    H277229   2.931   6.554  -0.035
 8921TIP3   OH277230   1.954   6.372  19.066
 8921TIP3    H177231   1.908   6.458  19.065
 8921TIP3    H277232   1.895   6.318  19.012
 8922TIP3   OH277233   2.028   6.597  19.289
 8922TIP3    H177234   2.047   6.510  19.329
 8922TIP3    H277235   2.094   6.598  19.218
 8923TIP3   OH277236   2.811   6.854   0.033
 8923TIP3    H177237   2.840   6.764   0.017
 8923TIP3    H277238   2.852   6.864   0.123
 8924TIP3   OH277239   3.663   6.007   0.163
 8924TIP3    H177240   3.676   6.065   0.243
 8924TIP3    H277241   3.715   6.055   0.098
 8925TIP3   OH277242   3.203   6.106  19.155
 8925TIP3    H177243   3.269   6.077  19.221
 8925TIP3    H277244   3.255   6.163  19.097
 8926TIP3   OH277245   2.090   6.341  19.389
 8926TIP3    H177246   2.155   6.284  19.436
 8926TIP3    H277247   2.099   6.307  19.299
 8927TIP3   OH277248   2.606   6.491  19.318
 8927TIP3    H177249   2.670   6.437  19.363
 8927TIP3    H277250   2.552   6.427  19.269
 8928TIP3   OH277251   3.704   6.151   0.387
 8928TIP3    H177252   3.640   6.224   0.381
 8928TIP3    H277253   3.712   6.137   0.483
 8929TIP3   OH277254   2.316   5.989   0.252
 8929TIP3    H177255   2.289   6.040   0.175
 8929TIP3    H277256   2.247   6.011   0.318
 8930TIP3   OH277257   3.046   6.937  19.078
 8930TIP3    H177258   3.020   6.905  18.991
 8930TIP3    H277259   3.016   7.028  19.078
 8931TIP3   OH277260   2.556   6.743   0.278
 8931TIP3    H177261   2.489   6.810   0.281
 8931TIP3    H277262   2.634   6.799   0.254
 8932TIP3   OH277263   3.381   6.040  19.357
 8932TIP3    H177264   3.361   5.961  19.407
 8932TIP3    H277265   3.449   6.085  19.409
 8933TIP3   OH277266   2.270   6.179   0.046
 8933TIP3    H177267   2.337   6.240   0.085
 8933TIP3    H277268   2.322   6.130  -0.019
 8934TIP3   OH277269   3.412   5.911   0.245
 8934TIP3    H177270   3.340   5.974   0.244
 8934TIP3    H277271   3.485   5.954   0.197
 8935TIP3   OH277272   2.942   6.601  18.919
 8935TIP3    H177273   2.871   6.656  18.880
 8935TIP3    H277274   3.011   6.608  18.851
 8936TIP3   OH277275   2.947   6.447  18.629
 8936TIP3    H177276   3.021   6.453  18.690
 8936TIP3    H277277   2.980   6.391  18.558
 8937TIP3   OH277278   3.676   6.543   0.275
 8937TIP3    H177279   3.614   6.616   0.275
 8937TIP3    H277280   3.729   6.562   0.194
 8938TIP3   OH277281   3.285   6.619  19.010
 8938TIP3    H177282   3.211   6.645  19.071
 8938TIP3    H277283   3.332   6.553  19.065
 8939TIP3   OH277284   3.280   6.441   0.449
 8939TIP3    H177285   3.277   6.522   0.501
 8939TIP3    H277286   3.214   6.468   0.382
 8940TIP3   OH277287   2.448   6.687  19.200
 8940TIP3    H177288   2.417   6.648  19.117
 8940TIP3    H277289   2.509   6.619  19.235
 8941TIP3   OH277290   2.590   7.038  19.458
 8941TIP3    H177291   2.578   6.968  19.393
 8941TIP3    H277292   2.656   6.994  19.516
 8942TIP3   OH277293   3.117   7.124   0.163
 8942TIP3    H177294   3.089   7.180   0.235
 8942TIP3    H277295   3.100   7.035   0.202
 8943TIP3   OH277296   2.567   7.005   0.568
 8943TIP3    H177297   2.534   7.085   0.610
 8943TIP3    H277298   2.509   6.990   0.494
 8944TIP3   OH277299   3.173   6.538  18.777
 8944TIP3    H177300   3.226   6.559  18.858
 8944TIP3    H277301   3.210   6.595  18.710
 8945TIP3   OH277302   2.266   6.620   0.489
 8945TIP3    H177303   2.270   6.689   0.555
 8945TIP3    H277304   2.175   6.630   0.456
 8946TIP3   OH277305   3.539   5.715  18.774
 8946TIP3    H177306   3.443   5.725  18.783
 8946TIP3    H277307   3.564   5.794  18.724
 8947TIP3   OH277308   2.348   6.594  18.957
 8947TIP3    H177309   2.317   6.670  18.906
 8947TIP3    H277310   2.278   6.529  18.944
 8948TIP3   OH277311   1.950   6.831   0.377
 8948TIP3    H177312   1.909   6.821   0.290
 8948TIP3    H277313   1.961   6.737   0.404
 8949TIP3   OH277314   2.852   7.131   0.521
 8949TIP3    H177315   2.853   7.217   0.565
 8949TIP3    H277316   2.762   7.093   0.534
 8950TIP3   OH277317   2.894   7.504  18.962
 8950TIP3    H177318   2.881   7.498  18.866
 8950TIP3    H277319   2.892   7.600  18.982
 8951TIP3   OH277320   3.453   6.312   0.668
 8951TIP3    H177321   3.416   6.358   0.590
 8951TIP3    H277322   3.466   6.221   0.632
 8952TIP3   OH277323   3.245   6.163   0.502
 8952TIP3    H177324   3.182   6.142   0.572
 8952TIP3    H277325   3.224   6.252   0.470
 8953TIP3   OH277326   2.455   6.310   0.187
 8953TIP3    H177327   2.389   6.306   0.258
 8953TIP3    H277328   2.453   6.403   0.162
 8954TIP3   OH277329   2.454   6.325  19.150
 8954TIP3    H177330   2.361   6.295  19.141
 8954TIP3    H277331   2.491   6.290  19.069
 8955TIP3   OH277332   3.006   6.369  19.028
 8955TIP3    H177333   2.968   6.453  18.997
 8955TIP3    H277334   3.077   6.353  18.964
 8956TIP3   OH277335   2.912   6.388   0.701
 8956TIP3    H177336   2.860   6.314   0.734
 8956TIP3    H277337   2.995   6.378   0.751
 8957TIP3   OH277338   2.221   6.334   0.365
 8957TIP3    H177339   2.230   6.380   0.451
 8957TIP3    H277340   2.178   6.250   0.385
 8958TIP3   OH277341   1.896   6.063  19.230
 8958TIP3    H177342   1.954   6.041  19.306
 8958TIP3    H277343   1.931   6.007  19.161
 8959TIP3   OH277344   2.023   6.125  18.781
 8959TIP3    H177345   2.061   6.175  18.708
 8959TIP3    H277346   1.943   6.176  18.800
 8960TIP3   OH277347   3.031   6.474   0.299
 8960TIP3    H177348   3.065   6.407   0.238
 8960TIP3    H277349   2.986   6.426   0.370
 8961TIP3   OH277350   2.190   6.231  19.140
 8961TIP3    H177351   2.102   6.247  19.101
 8961TIP3    H277352   2.218   6.148  19.101
 8962TIP3   OH277353   2.763   6.807  18.858
 8962TIP3    H177354   2.684   6.760  18.822
 8962TIP3    H277355   2.741   6.813  18.953
 8963TIP3   OH277356   3.152   6.090  18.665
 8963TIP3    H177357   3.056   6.101  18.660
 8963TIP3    H277358   3.176   6.174  18.708
 8964TIP3   OH277359   2.945   6.837   0.562
 8964TIP3    H177360   2.871   6.785   0.591
 8964TIP3    H277361   2.896   6.904   0.508
 8965TIP3   OH277362   3.221   6.274  18.835
 8965TIP3    H177363   3.308   6.268  18.878
 8965TIP3    H277364   3.225   6.359  18.788
 8966TIP3   OH277365   2.971   6.955  18.758
 8966TIP3    H177366   2.939   7.038  18.793
 8966TIP3    H277367   2.898   6.892  18.776
 8967TIP3   OH277368   1.972   6.586   0.487
 8967TIP3    H177369   1.989   6.545   0.574
 8967TIP3    H277370   1.912   6.525   0.443
 8968TIP3   OH277371   2.670   6.540   0.711
 8968TIP3    H177372   2.641   6.516   0.622
 8968TIP3    H277373   2.764   6.516   0.706
 8969TIP3   OH277374   3.141   7.078   0.499
 8969TIP3    H177375   3.048   7.086   0.472
 8969TIP3    H277376   3.134   7.096   0.592
 8970TIP3   OH277377   3.700   6.294  18.815
 8970TIP3    H177378   3.655   6.259  18.738
 8970TIP3    H277379   3.720   6.385  18.784
 8971TIP3   OH277380   3.700   6.861   0.613
 8971TIP3    H177381   3.625   6.913   0.583
 8971TIP3    H277382   3.766   6.880   0.542
 8972TIP3   OH277383   2.088   6.578  18.624
 8972TIP3    H177384   2.146   6.642  18.669
 8972TIP3    H277385   1.999   6.602  18.656
 8973TIP3   OH277386   2.653   6.857  19.123
 8973TIP3    H177387   2.627   6.948  19.133
 8973TIP3    H277388   2.581   6.809  19.168
 8974TIP3   OH277389   2.697   7.278   0.293
 8974TIP3    H177390   2.745   7.355   0.261
 8974TIP3    H277391   2.757   7.238   0.357
 8975TIP3   OH277392   3.090   6.881   0.268
 8975TIP3    H177393   3.014   6.863   0.329
 8975TIP3    H277394   3.113   6.794   0.237
 8976TIP3   OH277395   2.134   6.061   0.446
 8976TIP3    H177396   2.043   6.094   0.438
 8976TIP3    H277397   2.126   5.975   0.489
 8977TIP3   OH277398   3.364   6.835  18.855
 8977TIP3    H177399   3.333   6.767  18.917
 8977TIP3    H277400   3.451   6.858  18.886
 8978TIP3   OH277401   2.223   6.770  18.776
 8978TIP3    H177402   2.157   6.808  18.836
 8978TIP3    H277403   2.280   6.844  18.753
 8979TIP3   OH277404   3.086   5.997  18.918
 8979TIP3    H177405   3.111   6.043  18.837
 8979TIP3    H277406   3.141   6.038  18.985
 8980TIP3   OH277407   3.484   6.059   0.532
 8980TIP3    H177408   3.390   6.088   0.520
 8980TIP3    H277409   3.512   6.053   0.440
 8981TIP3   OH277410   3.342   6.435  19.404
 8981TIP3    H177411   3.258   6.395  19.381
 8981TIP3    H277412   3.386   6.368  19.460
 8982TIP3   OH277413   2.191   5.777  19.452
 8982TIP3    H177414   2.182   5.773  19.356
 8982TIP3    H277415   2.157   5.690  19.479
 8983TIP3   OH277416   2.676   6.809   0.764
 8983TIP3    H177417   2.647   6.838   0.676
 8983TIP3    H277418   2.687   6.712   0.754
 8984TIP3   OH277419   3.254   6.797   0.513
 8984TIP3    H177420   3.318   6.862   0.483
 8984TIP3    H277421   3.174   6.852   0.503
 8985TIP3   OH277422   2.097   6.535   0.762
 8985TIP3    H177423   2.136   6.448   0.751
 8985TIP3    H277424   2.071   6.536   0.854
 8986TIP3   OH277425   2.563   6.646  18.740
 8986TIP3    H177426   2.516   6.592  18.806
 8986TIP3    H277427   2.591   6.579  18.676
 8987TIP3   OH277428   2.486   6.426   0.503
 8987TIP3    H177429   2.426   6.500   0.525
 8987TIP3    H277430   2.525   6.462   0.421
 8988TIP3   OH277431   2.994   6.681   0.836
 8988TIP3    H177432   3.089   6.683   0.824
 8988TIP3    H277433   2.975   6.608   0.895
 8989TIP3   OH277434   2.529   6.165   0.607
 8989TIP3    H177435   2.541   6.094   0.543
 8989TIP3    H277436   2.522   6.246   0.552
 8990TIP3   OH277437   2.723   6.545   0.383
 8990TIP3    H177438   2.799   6.537   0.326
 8990TIP3    H277439   2.688   6.632   0.354
 8991TIP3   OH277440   3.162   6.326   0.871
 8991TIP3    H177441   3.185   6.233   0.879
 8991TIP3    H277442   3.246   6.369   0.887
 8992TIP3   OH277443   3.299   6.606   0.696
 8992TIP3    H177444   3.264   6.677   0.636
 8992TIP3    H277445   3.392   6.612   0.668
 8993TIP3   OH277446   2.373   6.288   0.797
 8993TIP3    H177447   2.298   6.231   0.780
 8993TIP3    H277448   2.440   6.250   0.736
 8994TIP3   OH277449   2.655   7.535  18.660
 8994TIP3    H177450   2.749   7.550  18.678
 8994TIP3    H277451   2.630   7.606  18.601
 8995TIP3   OH277452   1.879   7.539  19.117
 8995TIP3    H177453   1.814   7.487  19.065
 8995TIP3    H277454   1.916   7.471  19.175
 8996TIP3   OH277455   3.689   6.603  19.086
 8996TIP3    H177456   3.616   6.549  19.123
 8996TIP3    H277457   3.747   6.615  19.163
 8997TIP3   OH277458   3.713   6.581  18.725
 8997TIP3    H177459   3.661   6.619  18.654
 8997TIP3    H277460   3.714   6.649  18.794
 8998TIP3   OH277461   3.472   6.444  19.145
 8998TIP3    H177462   3.454   6.349  19.141
 8998TIP3    H277463   3.434   6.469  19.231
 8999TIP3   OH277464   1.972   6.648   0.079
 8999TIP3    H177465   1.990   6.647  -0.018
 8999TIP3    H277466   2.061   6.646   0.115
 9000TIP3   OH277467   3.559   6.641   0.652
 9000TIP3    H177468   3.628   6.573   0.643
 9000TIP3    H277469   3.616   6.721   0.633
 9001TIP3   OH277470   3.712   6.431   0.694
 9001TIP3    H177471   3.634   6.382   0.669
 9001TIP3    H277472   3.775   6.355   0.693
 9002TIP3   OH277473   3.479   6.044  18.488
 9002TIP3    H177474   3.541   6.010  18.553
 9002TIP3    H277475   3.394   6.008  18.514
 9003TIP3   OH277476   3.443   6.206  18.991
 9003TIP3    H177477   3.471   6.112  19.000
 9003TIP3    H277478   3.523   6.245  18.952
 9004TIP3   OH277479   3.502   6.259   0.062
 9004TIP3    H177480   3.595   6.286   0.057
 9004TIP3    H277481   3.482   6.274   0.156
 9005TIP3   OH277482   3.510   6.331   0.345
 9005TIP3    H177483   3.420   6.361   0.370
 9005TIP3    H277484   3.552   6.415   0.315
 9006TIP3   OH277485   1.933   6.184   0.690
 9006TIP3    H177486   2.026   6.169   0.709
 9006TIP3    H277487   1.888   6.103   0.722
 9007TIP3   OH277488   3.505   5.931  18.991
 9007TIP3    H177489   3.521   5.893  19.079
 9007TIP3    H277490   3.443   5.870  18.950
 9008TIP3   OH277491   2.055   6.012  19.446
 9008TIP3    H177492   2.101   5.931  19.478
 9008TIP3    H277493   2.105   6.082  19.489
 9009TIP3   OH277494   1.883   6.316   0.081
 9009TIP3    H177495   1.938   6.290   0.005
 9009TIP3    H277496   1.928   6.396   0.109
 9010TIP3   OH277497   3.688   5.949   0.713
 9010TIP3    H177498   3.594   5.970   0.704
 9010TIP3    H277499   3.699   5.894   0.634
 9011TIP3   OH277500   2.861   7.373   0.655
 9011TIP3    H177501   2.877   7.334   0.745
 9011TIP3    H277502   2.949   7.396   0.626
 9012TIP3   OH277503   3.589   5.756   0.494
 9012TIP3    H177504   3.507   5.783   0.451
 9012TIP3    H277505   3.609   5.673   0.443
 9013TIP3   OH277506   2.171   7.555   0.362
 9013TIP3    H177507   2.097   7.600   0.322
 9013TIP3    H277508   2.138   7.525   0.448
 9014TIP3   OH277509   2.417   7.510   0.269
 9014TIP3    H177510   2.329   7.523   0.309
 9014TIP3    H277511   2.414   7.567   0.191
 9015TIP3   OH277512   2.886   7.500   0.186
 9015TIP3    H177513   2.840   7.555   0.121
 9015TIP3    H277514   2.905   7.563   0.258
 9016TIP3   OH277515   3.441   5.706  19.405
 9016TIP3    H177516   3.504   5.762  19.354
 9016TIP3    H277517   3.355   5.740  19.379
 9017TIP3   OH277518   3.609   5.828  19.232
 9017TIP3    H177519   3.675   5.770  19.187
 9017TIP3    H277520   3.656   5.914  19.240
 9018TIP3   OH277521   2.919   7.466  18.689
 9018TIP3    H177522   3.011   7.488  18.671
 9018TIP3    H277523   2.898   7.410  18.611
 9019TIP3   OH277524   4.851   6.601   0.038
 9019TIP3    H177525   4.845   6.540   0.114
 9019TIP3    H277526   4.810   6.550  -0.032
 9020TIP3   OH277527   4.081   6.568   0.200
 9020TIP3    H177528   4.091   6.501   0.269
 9020TIP3    H277529   4.156   6.625   0.221
 9021TIP3   OH277530   4.177   7.014   0.043
 9021TIP3    H177531   4.142   6.926   0.017
 9021TIP3    H277532   4.267   6.988   0.061
 9022TIP3   OH277533   3.838   6.371  19.070
 9022TIP3    H177534   3.796   6.459  19.065
 9022TIP3    H277535   3.780   6.319  19.011
 9023TIP3   OH277536   3.908   6.594  19.284
 9023TIP3    H177537   3.935   6.513  19.330
 9023TIP3    H277538   3.980   6.603  19.220
 9024TIP3   OH277539   5.543   6.011   0.164
 9024TIP3    H177540   5.562   6.067   0.243
 9024TIP3    H277541   5.602   6.049   0.099
 9025TIP3   OH277542   5.001   6.288   0.121
 9025TIP3    H177543   5.018   6.192   0.119
 9025TIP3    H277544   4.990   6.305   0.026
 9026TIP3   OH277545   5.088   6.105  19.152
 9026TIP3    H177546   5.152   6.076  19.220
 9026TIP3    H277547   5.144   6.162  19.098
 9027TIP3   OH277548   4.494   6.494  19.317
 9027TIP3    H177549   4.557   6.436  19.364
 9027TIP3    H277550   4.437   6.429  19.271
 9028TIP3   OH277551   5.589   6.152   0.388
 9028TIP3    H177552   5.523   6.225   0.382
 9028TIP3    H277553   5.596   6.140   0.484
 9029TIP3   OH277554   5.265   6.040  19.356
 9029TIP3    H177555   5.243   5.961  19.406
 9029TIP3    H277556   5.333   6.082  19.411
 9030TIP3   OH277557   4.296   6.951   0.352
 9030TIP3    H177558   4.296   7.044   0.324
 9030TIP3    H277559   4.210   6.945   0.399
 9031TIP3   OH277560   5.301   5.912   0.249
 9031TIP3    H177561   5.226   5.972   0.240
 9031TIP3    H277562   5.371   5.951   0.195
 9032TIP3   OH277563   4.605   5.721   0.002
 9032TIP3    H177564   4.588   5.627  -0.014
 9032TIP3    H277565   4.515   5.752   0.020
 9033TIP3   OH277566   4.831   6.447  18.627
 9033TIP3    H177567   4.904   6.452  18.688
 9033TIP3    H277568   4.865   6.389  18.558
 9034TIP3   OH277569   5.165   6.614  19.009
 9034TIP3    H177570   5.100   6.647  19.071
 9034TIP3    H277571   5.219   6.552  19.062
 9035TIP3   OH277572   5.170   6.440   0.439
 9035TIP3    H177573   5.159   6.511   0.505
 9035TIP3    H277574   5.099   6.469   0.380
 9036TIP3   OH277575   4.330   6.687  19.202
 9036TIP3    H177576   4.302   6.651  19.115
 9036TIP3    H277577   4.394   6.620  19.234
 9037TIP3   OH277578   4.366   6.569   0.092
 9037TIP3    H177579   4.424   6.574   0.015
 9037TIP3    H277580   4.406   6.628   0.155
 9038TIP3   OH277581   4.452   6.998   0.568
 9038TIP3    H177582   4.426   7.083   0.606
 9038TIP3    H277583   4.392   6.987   0.490
 9039TIP3   OH277584   4.156   6.623   0.484
 9039TIP3    H177585   4.157   6.689   0.556
 9039TIP3    H277586   4.062   6.628   0.460
 9040TIP3   OH277587   5.431   5.716  18.769
 9040TIP3    H177588   5.336   5.728  18.789
 9040TIP3    H277589   5.453   5.797  18.722
 9041TIP3   OH277590   4.232   6.592  18.964
 9041TIP3    H177591   4.204   6.668  18.909
 9041TIP3    H277592   4.165   6.527  18.942
 9042TIP3   OH277593   3.838   6.832   0.378
 9042TIP3    H177594   3.796   6.823   0.291
 9042TIP3    H277595   3.848   6.737   0.401
 9043TIP3   OH277596   5.090   7.432  18.664
 9043TIP3    H177597   5.123   7.353  18.621
 9043TIP3    H277598   5.080   7.405  18.756
 9044TIP3   OH277599   5.357   6.321   0.673
 9044TIP3    H177600   5.304   6.368   0.606
 9044TIP3    H277601   5.351   6.229   0.643
 9045TIP3   OH277602   4.063   6.965   0.474
 9045TIP3    H177603   4.087   6.928   0.561
 9045TIP3    H277604   3.978   6.923   0.453
 9046TIP3   OH277605   5.128   6.162   0.495
 9046TIP3    H177606   5.071   6.142   0.573
 9046TIP3    H277607   5.111   6.256   0.476
 9047TIP3   OH277608   4.768   6.032  18.612
 9047TIP3    H177609   4.732   6.032  18.702
 9047TIP3    H277610   4.735   5.946  18.583
 9048TIP3   OH277611   4.336   6.340  19.146
 9048TIP3    H177612   4.246   6.301  19.145
 9048TIP3    H277613   4.377   6.295  19.071
 9049TIP3   OH277614   4.893   6.373  19.030
 9049TIP3    H177615   4.848   6.451  18.995
 9049TIP3    H277616   4.961   6.351  18.964
 9050TIP3   OH277617   4.762   6.381   0.706
 9050TIP3    H177618   4.736   6.295   0.741
 9050TIP3    H277619   4.859   6.386   0.732
 9051TIP3   OH277620   4.996   6.318  19.313
 9051TIP3    H177621   4.966   6.372  19.239
 9051TIP3    H277622   5.006   6.232  19.267
 9052TIP3   OH277623   3.772   6.037  19.234
 9052TIP3    H177624   3.841   6.049  19.298
 9052TIP3    H277625   3.818   6.012  19.152
 9053TIP3   OH277626   3.908   6.131  18.781
 9053TIP3    H177627   3.943   6.182  18.707
 9053TIP3    H277628   3.828   6.181  18.804
 9054TIP3   OH277629   4.912   6.477   0.295
 9054TIP3    H177630   4.955   6.407   0.240
 9054TIP3    H277631   4.875   6.426   0.369
 9055TIP3   OH277632   4.075   6.229  19.140
 9055TIP3    H177633   3.987   6.248  19.101
 9055TIP3    H277634   4.102   6.148  19.097
 9056TIP3   OH277635   5.037   5.999   0.105
 9056TIP3    H177636   4.968   6.004   0.172
 9056TIP3    H277637   4.986   5.972   0.026
 9057TIP3   OH277638   5.361   7.566   0.744
 9057TIP3    H177639   5.384   7.604   0.658
 9057TIP3    H277640   5.434   7.596   0.801
 9058TIP3   OH277641   4.127   6.816   0.693
 9058TIP3    H177642   4.198   6.833   0.758
 9058TIP3    H277643   4.049   6.823   0.752
 9059TIP3   OH277644   4.726   6.350  19.445
 9059TIP3    H177645   4.782   6.292  19.391
 9059TIP3    H277646   4.708   6.294  19.522
 9060TIP3   OH277647   4.589   6.195   0.209
 9060TIP3    H177648   4.504   6.234   0.227
 9060TIP3    H277649   4.642   6.216   0.288
 9061TIP3   OH277650   4.637   6.816  18.851
 9061TIP3    H177651   4.567   6.754  18.821
 9061TIP3    H277652   4.631   6.812  18.948
 9062TIP3   OH277653   5.361   6.722   0.260
 9062TIP3    H177654   5.425   6.771   0.206
 9062TIP3    H277655   5.278   6.733   0.211
 9063TIP3   OH277656   5.034   6.085  18.673
 9063TIP3    H177657   4.939   6.100  18.655
 9063TIP3    H277658   5.064   6.172  18.704
 9064TIP3   OH277659   5.104   6.287  18.841
 9064TIP3    H177660   5.195   6.266  18.874
 9064TIP3    H277661   5.119   6.362  18.784
 9065TIP3   OH277662   4.158   6.741  19.436
 9065TIP3    H177663   4.227   6.736  19.367
 9065TIP3    H277664   4.165   6.656  19.481
 9066TIP3   OH277665   3.855   6.585   0.490
 9066TIP3    H177666   3.881   6.540   0.573
 9066TIP3    H277667   3.800   6.520   0.444
 9067TIP3   OH277668   4.557   6.542   0.709
 9067TIP3    H177669   4.530   6.516   0.620
 9067TIP3    H277670   4.651   6.512   0.708
 9068TIP3   OH277671   5.140   6.660   0.089
 9068TIP3    H177672   5.046   6.636   0.083
 9068TIP3    H277673   5.185   6.583   0.049
 9069TIP3   OH277674   4.397   7.093  19.175
 9069TIP3    H177675   4.446   7.171  19.150
 9069TIP3    H277676   4.307   7.112  19.145
 9070TIP3   OH277677   3.970   6.575  18.629
 9070TIP3    H177678   4.031   6.640  18.667
 9070TIP3    H277679   3.882   6.604  18.658
 9071TIP3   OH277680   4.538   6.861  19.126
 9071TIP3    H177681   4.505   6.952  19.134
 9071TIP3    H277682   4.465   6.809  19.168
 9072TIP3   OH277683   4.576   7.279   0.296
 9072TIP3    H177684   4.623   7.357   0.265
 9072TIP3    H277685   4.637   7.240   0.360
 9073TIP3   OH277686   3.982   7.238   0.289
 9073TIP3    H177687   4.013   7.146   0.285
 9073TIP3    H277688   4.013   7.266   0.376
 9074TIP3   OH277689   4.457   7.045  18.729
 9074TIP3    H177690   4.486   6.989  18.803
 9074TIP3    H277691   4.469   7.135  18.761
 9075TIP3   OH277692   4.118   6.764  18.782
 9075TIP3    H177693   4.049   6.805  18.835
 9075TIP3    H277694   4.165   6.843  18.750
 9076TIP3   OH277695   4.973   5.993  18.922
 9076TIP3    H177696   4.995   6.041  18.839
 9076TIP3    H277697   5.027   6.041  18.986
 9077TIP3   OH277698   4.752   6.274   0.445
 9077TIP3    H177699   4.756   6.327   0.528
 9077TIP3    H277700   4.814   6.203   0.462
 9078TIP3   OH277701   4.789   5.870  19.094
 9078TIP3    H177702   4.749   5.934  19.155
 9078TIP3    H277703   4.849   5.930  19.044
 9079TIP3   OH277704   5.369   6.060   0.532
 9079TIP3    H177705   5.276   6.088   0.520
 9079TIP3    H277706   5.397   6.055   0.440
 9080TIP3   OH277707   5.226   6.436  19.409
 9080TIP3    H177708   5.144   6.392  19.380
 9080TIP3    H277709   5.273   6.367  19.460
 9081TIP3   OH277710   4.174   7.023  18.675
 9081TIP3    H177711   4.234   7.096  18.695
 9081TIP3    H277712   4.217   6.988  18.597
 9082TIP3   OH277713   5.332   7.365   0.105
 9082TIP3    H177714   5.321   7.431   0.036
 9082TIP3    H277715   5.429   7.369   0.116
 9083TIP3   OH277716   3.987   7.169  19.064
 9083TIP3    H177717   3.900   7.213  19.067
 9083TIP3    H277718   4.032   7.221  18.999
 9084TIP3   OH277719   3.888   6.803   0.821
 9084TIP3    H177720   3.911   6.715   0.787
 9084TIP3    H277721   3.820   6.839   0.762
 9085TIP3   OH277722   4.555   6.808   0.766
 9085TIP3    H177723   4.533   6.839   0.676
 9085TIP3    H277724   4.579   6.714   0.752
 9086TIP3   OH277725   5.132   6.797   0.494
 9086TIP3    H177726   5.210   6.854   0.494
 9086TIP3    H277727   5.060   6.858   0.511
 9087TIP3   OH277728   3.978   6.532   0.762
 9087TIP3    H177729   4.025   6.449   0.750
 9087TIP3    H277730   3.963   6.534   0.859
 9088TIP3   OH277731   4.444   6.644  18.738
 9088TIP3    H177732   4.401   6.592  18.807
 9088TIP3    H277733   4.477   6.575  18.676
 9089TIP3   OH277734   4.376   6.432   0.501
 9089TIP3    H177735   4.310   6.500   0.524
 9089TIP3    H277736   4.411   6.464   0.416
 9090TIP3   OH277737   4.554   6.466  18.562
 9090TIP3    H177738   4.542   6.449  18.468
 9090TIP3    H277739   4.650   6.474  18.572
 9091TIP3   OH277740   4.873   6.698   0.852
 9091TIP3    H177741   4.960   6.682   0.811
 9091TIP3    H277742   4.857   6.610   0.886
 9092TIP3   OH277743   4.604   6.548   0.377
 9092TIP3    H177744   4.686   6.536   0.327
 9092TIP3    H277745   4.579   6.637   0.353
 9093TIP3   OH277746   5.063   6.310   0.923
 9093TIP3    H177747   5.074   6.231   0.869
 9093TIP3    H277748   5.124   6.370   0.877
 9094TIP3   OH277749   5.228   6.670   0.712
 9094TIP3    H177750   5.163   6.675   0.639
 9094TIP3    H277751   5.291   6.608   0.669
 9095TIP3   OH277752   4.655   6.158   0.760
 9095TIP3    H177753   4.629   6.158   0.853
 9095TIP3    H277754   4.576   6.160   0.707
 9096TIP3   OH277755   4.931   6.096   0.673
 9096TIP3    H177756   4.835   6.100   0.684
 9096TIP3    H277757   4.960   6.029   0.736
 9097TIP3   OH277758   5.086   5.953   0.859
 9097TIP3    H177759   5.088   5.857   0.868
 9097TIP3    H277760   5.063   5.986   0.950
 9098TIP3   OH277761   4.542   7.544  18.669
 9098TIP3    H177762   4.639   7.544  18.671
 9098TIP3    H277763   4.520   7.594  18.591
 9099TIP3   OH277764   5.607   7.429   0.125
 9099TIP3    H177765   5.606   7.443   0.221
 9099TIP3    H277766   5.679   7.484   0.092
 9100TIP3   OH277767   5.570   7.384   0.413
 9100TIP3    H177768   5.513   7.312   0.379
 9100TIP3    H277769   5.615   7.342   0.486
 9101TIP3   OH277770   5.568   6.607  19.086
 9101TIP3    H177771   5.500   6.549  19.124
 9101TIP3    H277772   5.634   6.614  19.156
 9102TIP3   OH277773   5.548   6.869   0.105
 9102TIP3    H177774   5.633   6.831   0.080
 9102TIP3    H277775   5.567   6.965   0.097
 9103TIP3   OH277776   5.407   7.163   0.339
 9103TIP3    H177777   5.337   7.195   0.398
 9103TIP3    H277778   5.353   7.120   0.271
 9104TIP3   OH277779   5.603   6.581  18.723
 9104TIP3    H177780   5.547   6.619  18.655
 9104TIP3    H277781   5.604   6.648  18.793
 9105TIP3   OH277782   5.354   6.446  19.143
 9105TIP3    H177783   5.340   6.350  19.140
 9105TIP3    H277784   5.325   6.469  19.232
 9106TIP3   OH277785   3.854   6.658   0.075
 9106TIP3    H177786   3.873   6.649  -0.020
 9106TIP3    H277787   3.942   6.638   0.112
 9107TIP3   OH277788   5.458   6.642   0.618
 9107TIP3    H177789   5.510   6.569   0.656
 9107TIP3    H277790   5.507   6.720   0.638
 9108TIP3   OH277791   5.595   6.434   0.703
 9108TIP3    H177792   5.506   6.394   0.690
 9108TIP3    H277793   5.652   6.355   0.696
 9109TIP3   OH277794   5.365   6.044  18.488
 9109TIP3    H177795   5.426   6.011  18.556
 9109TIP3    H277796   5.278   6.011  18.512
 9110TIP3   OH277797   5.324   6.203  18.991
 9110TIP3    H177798   5.356   6.111  19.003
 9110TIP3    H277799   5.402   6.246  18.953
 9111TIP3   OH277800   5.389   6.259   0.059
 9111TIP3    H177801   5.482   6.285   0.057
 9111TIP3    H277802   5.368   6.274   0.153
 9112TIP3   OH277803   5.395   6.333   0.334
 9112TIP3    H177804   5.308   6.361   0.373
 9112TIP3    H277805   5.433   6.422   0.322
 9113TIP3   OH277806   3.816   6.187   0.696
 9113TIP3    H177807   3.909   6.166   0.706
 9113TIP3    H277808   3.774   6.101   0.718
 9114TIP3   OH277809   5.618   5.732   0.871
 9114TIP3    H177810   5.661   5.669   0.811
 9114TIP3    H277811   5.632   5.817   0.824
 9115TIP3   OH277812   5.389   5.936  18.996
 9115TIP3    H177813   5.410   5.886  19.078
 9115TIP3    H277814   5.330   5.872  18.950
 9116TIP3   OH277815   5.572   5.947   0.713
 9116TIP3    H177816   5.478   5.972   0.705
 9116TIP3    H277817   5.582   5.897   0.630
 9117TIP3   OH277818   5.574   5.937  18.652
 9117TIP3    H177819   5.614   5.864  18.601
 9117TIP3    H277820   5.641   6.007  18.650
 9118TIP3   OH277821   5.281   7.447  19.146
 9118TIP3    H177822   5.346   7.394  19.100
 9118TIP3    H277823   5.330   7.478  19.224
 9119TIP3   OH277824   3.798   5.805   0.317
 9119TIP3    H177825   3.734   5.786   0.388
 9119TIP3    H277826   3.754   5.874   0.265
 9120TIP3   OH277827   4.312   7.224   0.358
 9120TIP3    H177828   4.275   7.310   0.333
 9120TIP3    H277829   4.406   7.237   0.331
 9121TIP3   OH277830   5.478   5.757   0.491
 9121TIP3    H177831   5.392   5.785   0.454
 9121TIP3    H277832   5.492   5.673   0.441
 9122TIP3   OH277833   4.055   7.555   0.367
 9122TIP3    H177834   3.981   7.598   0.322
 9122TIP3    H277835   4.018   7.523   0.450
 9123TIP3   OH277836   4.303   7.506   0.271
 9123TIP3    H177837   4.213   7.521   0.309
 9123TIP3    H277838   4.299   7.567   0.194
 9124TIP3   OH277839   4.007   7.423   0.060
 9124TIP3    H177840   3.994   7.369   0.141
 9124TIP3    H277841   4.078   7.376   0.014
 9125TIP3   OH277842   4.213   7.285  19.402
 9125TIP3    H177843   4.191   7.191  19.418
 9125TIP3    H277844   4.296   7.297  19.448
 9126TIP3   OH277845   4.817   5.903  19.399
 9126TIP3    H177846   4.747   5.839  19.421
 9126TIP3    H277847   4.870   5.852  19.337
 9127TIP3   OH277848   5.328   5.709  19.405
 9127TIP3    H177849   5.391   5.762  19.351
 9127TIP3    H277850   5.241   5.742  19.379
 9128TIP3   OH277851   5.495   5.827  19.232
 9128TIP3    H177852   5.562   5.770  19.188
 9128TIP3    H277853   5.545   5.911  19.241
 9129TIP3   OH277854   5.059   5.762  19.326
 9129TIP3    H177855   5.067   5.770  19.230
 9129TIP3    H277856   5.036   5.669  19.338
 9130TIP3   OH277857   5.199   5.763  18.892
 9130TIP3    H177858   5.124   5.820  18.871
 9130TIP3    H277859   5.159   5.676  18.906
 9131TIP3   OH277860   6.734   6.601   0.039
 9131TIP3    H177861   6.731   6.539   0.114
 9131TIP3    H277862   6.695   6.553  -0.035
 9132TIP3   OH277863   6.059   7.011   0.054
 9132TIP3    H177864   6.029   6.926   0.017
 9132TIP3    H277865   6.156   6.999   0.053
 9133TIP3   OH277866   6.576   6.852   0.081
 9133TIP3    H177867   6.603   6.776   0.027
 9133TIP3    H277868   6.647   6.857   0.145
 9134TIP3   OH277869   6.886   6.290   0.115
 9134TIP3    H177870   6.900   6.193   0.121
 9134TIP3    H277871   6.872   6.303   0.022
 9135TIP3   OH277872   5.791   6.914  18.903
 9135TIP3    H177873   5.768   6.944  18.815
 9135TIP3    H277874   5.801   6.997  18.955
 9136TIP3   OH277875   7.188   5.910   0.248
 9136TIP3    H177876   7.112   5.969   0.242
 9136TIP3    H277877   7.254   5.953   0.193
 9137TIP3   OH277878   6.484   5.718  -0.004
 9137TIP3    H177879   6.473   5.621  -0.013
 9137TIP3    H277880   6.397   5.748   0.025
 9138TIP3   OH277881   7.047   6.438   0.450
 9138TIP3    H177882   7.055   6.517   0.504
 9138TIP3    H277883   6.984   6.468   0.382
 9139TIP3   OH277884   6.218   6.688  19.202
 9139TIP3    H177885   6.188   6.648  19.118
 9139TIP3    H277886   6.278   6.619  19.235
 9140TIP3   OH277887   6.344   7.014  19.471
 9140TIP3    H177888   6.350   6.969  19.386
 9140TIP3    H277889   6.427   6.989  19.516
 9141TIP3   OH277890   6.343   7.001   0.566
 9141TIP3    H177891   6.311   7.080   0.613
 9141TIP3    H277892   6.280   6.994   0.493
 9142TIP3   OH277893   6.169   7.214   0.641
 9142TIP3    H177894   6.169   7.200   0.545
 9142TIP3    H277895   6.077   7.192   0.667
 9143TIP3   OH277896   6.123   6.591  18.957
 9143TIP3    H177897   6.085   6.668  18.911
 9143TIP3    H277898   6.053   6.525  18.945
 9144TIP3   OH277899   5.704   7.105   0.055
 9144TIP3    H177900   5.799   7.095   0.058
 9144TIP3    H277901   5.689   7.184   0.110
 9145TIP3   OH277902   6.666   7.501  18.966
 9145TIP3    H177903   6.656   7.490  18.869
 9145TIP3    H277904   6.667   7.597  18.974
 9146TIP3   OH277905   6.026   7.391  19.145
 9146TIP3    H177906   6.041   7.353  19.235
 9146TIP3    H277907   5.939   7.354  19.127
 9147TIP3   OH277908   6.682   5.784   0.411
 9147TIP3    H177909   6.724   5.740   0.486
 9147TIP3    H277910   6.587   5.763   0.422
 9148TIP3   OH277911   6.998   6.155   0.488
 9148TIP3    H177912   6.964   6.144   0.578
 9148TIP3    H277913   7.004   6.252   0.476
 9149TIP3   OH277914   6.652   6.032  18.610
 9149TIP3    H177915   6.619   6.035  18.700
 9149TIP3    H277916   6.622   5.946  18.580
 9150TIP3   OH277917   5.660   6.047  19.235
 9150TIP3    H177918   5.726   6.034  19.304
 9150TIP3    H277919   5.701   6.006  19.156
 9151TIP3   OH277920   6.803   6.477   0.301
 9151TIP3    H177921   6.835   6.409   0.239
 9151TIP3    H277922   6.759   6.424   0.369
 9152TIP3   OH277923   6.921   6.000   0.106
 9152TIP3    H177924   6.854   6.003   0.177
 9152TIP3    H277925   6.867   5.974   0.030
 9153TIP3   OH277926   7.204   7.555   0.702
 9153TIP3    H177927   7.262   7.604   0.644
 9153TIP3    H277928   7.263   7.576   0.781
 9154TIP3   OH277929   6.016   6.823   0.701
 9154TIP3    H177930   6.085   6.841   0.766
 9154TIP3    H277931   5.933   6.827   0.754
 9155TIP3   OH277932   7.246   6.725   0.265
 9155TIP3    H177933   7.310   6.765   0.205
 9155TIP3    H277934   7.164   6.732   0.213
 9156TIP3   OH277935   6.918   6.087  18.677
 9156TIP3    H177936   6.825   6.102  18.654
 9156TIP3    H277937   6.950   6.175  18.699
 9157TIP3   OH277938   6.674   6.831   0.501
 9157TIP3    H177939   6.650   6.793   0.585
 9157TIP3    H277940   6.661   6.925   0.515
 9158TIP3   OH277941   6.043   6.740  19.435
 9158TIP3    H177942   6.114   6.739  19.366
 9158TIP3    H277943   6.056   6.654  19.477
 9159TIP3   OH277944   7.480   6.874   0.624
 9159TIP3    H177945   7.395   6.904   0.585
 9159TIP3    H277946   7.534   6.875   0.542
 9160TIP3   OH277947   7.315   7.179  18.855
 9160TIP3    H177948   7.272   7.100  18.890
 9160TIP3    H277949   7.339   7.163  18.764
 9161TIP3   OH277950   7.028   6.655   0.087
 9161TIP3    H177951   6.933   6.637   0.082
 9161TIP3    H277952   7.071   6.578   0.046
 9162TIP3   OH277953   6.282   7.090  19.174
 9162TIP3    H177954   6.331   7.170  19.151
 9162TIP3    H277955   6.194   7.112  19.142
 9163TIP3   OH277956   6.290   7.358  19.078
 9163TIP3    H177957   6.194   7.368  19.094
 9163TIP3    H277958   6.328   7.438  19.116
 9164TIP3   OH277959   7.481   7.408  18.696
 9164TIP3    H177960   7.545   7.464  18.646
 9164TIP3    H277961   7.415   7.480  18.698
 9165TIP3   OH277962   5.874   7.239   0.285
 9165TIP3    H177963   5.896   7.145   0.285
 9165TIP3    H277964   5.896   7.265   0.375
 9166TIP3   OH277965   6.326   7.048  18.728
 9166TIP3    H177966   6.362   6.995  18.800
 9166TIP3    H277967   6.350   7.139  18.757
 9167TIP3   OH277968   6.002   6.768  18.781
 9167TIP3    H177969   5.928   6.803  18.833
 9167TIP3    H277970   6.045   6.849  18.751
 9168TIP3   OH277971   6.780   6.034   0.335
 9168TIP3    H177972   6.853   6.041   0.399
 9168TIP3    H277973   6.743   5.946   0.355
 9169TIP3   OH277974   6.607   6.158  19.012
 9169TIP3    H177975   6.664   6.235  19.010
 9169TIP3    H277976   6.556   6.165  19.093
 9170TIP3   OH277977   6.638   6.278   0.444
 9170TIP3    H177978   6.641   6.331   0.524
 9170TIP3    H277979   6.696   6.202   0.456
 9171TIP3   OH277980   6.357   7.314  18.799
 9171TIP3    H177981   6.376   7.398  18.752
 9171TIP3    H277982   6.339   7.344  18.890
 9172TIP3   OH277983   7.113   6.433  19.415
 9172TIP3    H177984   7.033   6.394  19.380
 9172TIP3    H277985   7.156   6.364  19.465
 9173TIP3   OH277986   6.053   7.032  18.667
 9173TIP3    H177987   6.121   7.094  18.697
 9173TIP3    H277988   6.101   6.985  18.598
 9174TIP3   OH277989   5.858   7.166  19.057
 9174TIP3    H177990   5.779   7.220  19.069
 9174TIP3    H277991   5.918   7.220  19.004
 9175TIP3   OH277992   5.791   7.432   0.721
 9175TIP3    H177993   5.846   7.411   0.799
 9175TIP3    H277994   5.746   7.349   0.708
 9176TIP3   OH277995   6.255   7.328   0.886
 9176TIP3    H177996   6.328   7.273   0.918
 9176TIP3    H277997   6.249   7.297   0.794
 9177TIP3   OH277998   5.783   6.802   0.823
 9177TIP3    H177999   5.793   6.713   0.790
 9177TIP3    H278000   5.707   6.833   0.773
 9178TIP3   OH278001   6.450   6.807   0.763
 9178TIP3    H178002   6.412   6.839   0.679
 9178TIP3    H278003   6.459   6.712   0.748
 9179TIP3   OH278004   6.492   6.549   0.380
 9179TIP3    H178005   6.570   6.532   0.326
 9179TIP3    H278006   6.458   6.633   0.352
 9180TIP3   OH278007   6.417   5.749   0.399
 9180TIP3    H178008   6.401   5.844   0.388
 9180TIP3    H278009   6.341   5.710   0.352
 9181TIP3   OH278010   6.442   5.684   0.670
 9181TIP3    H178011   6.509   5.613   0.665
 9181TIP3    H278012   6.426   5.702   0.576
 9182TIP3   OH278013   6.426   7.537  18.663
 9182TIP3    H178014   6.522   7.549  18.677
 9182TIP3    H278015   6.404   7.607  18.600
 9183TIP3   OH278016   5.737   7.347  19.299
 9183TIP3    H178017   5.699   7.260  19.320
 9183TIP3    H278018   5.758   7.380  19.388
 9184TIP3   OH278019   7.474   6.590  19.083
 9184TIP3    H178020   7.397   6.551  19.124
 9184TIP3    H278021   7.529   6.617  19.158
 9185TIP3   OH278022   5.745   6.659   0.071
 9185TIP3    H178023   5.764   6.645  -0.022
 9185TIP3    H278024   5.830   6.640   0.113
 9186TIP3   OH278025   5.704   6.187   0.693
 9186TIP3    H178026   5.797   6.163   0.701
 9186TIP3    H278027   5.661   6.104   0.721
 9187TIP3   OH278028   5.689   5.941  18.958
 9187TIP3    H178029   5.594   5.960  18.947
 9187TIP3    H278030   5.732   5.993  18.889
 9188TIP3   OH278031   5.687   5.808   0.317
 9188TIP3    H178032   5.621   5.789   0.386
 9188TIP3    H278033   5.640   5.874   0.263
 9189TIP3   OH278034   5.907   7.132   0.737
 9189TIP3    H178035   5.823   7.143   0.693
 9189TIP3    H278036   5.885   7.119   0.830
 9190TIP3   OH278037   6.203   7.225   0.367
 9190TIP3    H178038   6.164   7.307   0.335
 9190TIP3    H278039   6.291   7.235   0.329
 9191TIP3   OH278040   5.937   7.544   0.362
 9191TIP3    H178041   5.870   7.599   0.321
 9191TIP3    H278042   5.908   7.536   0.454
 9192TIP3   OH278043   6.185   7.511   0.270
 9192TIP3    H178044   6.096   7.524   0.310
 9192TIP3    H278045   6.182   7.563   0.190
 9193TIP3   OH278046   5.887   7.420   0.058
 9193TIP3    H178047   5.879   7.368   0.140
 9193TIP3    H278048   5.964   7.378   0.015
 9194TIP3   OH278049   6.097   7.287  19.395
 9194TIP3    H178050   6.077   7.194  19.414
 9194TIP3    H278051   6.180   7.298  19.443
 9195TIP3   OH278052   6.698   5.902  19.395
 9195TIP3    H178053   6.633   5.835  19.423
 9195TIP3    H278054   6.756   5.849  19.340
 9196TIP3   OH278055   7.215   5.704  19.403
 9196TIP3    H178056   7.273   5.766  19.356
 9196TIP3    H278057   7.130   5.743  19.380
 9197TIP3   OH278058   5.934   5.763  19.178
 9197TIP3    H178059   5.855   5.738  19.128
 9197TIP3    H278060   5.985   5.680  19.176
 9198TIP3   OH278061   5.815   5.741  18.751
 9198TIP3    H178062   5.864   5.805  18.699
 9198TIP3    H278063   5.757   5.792  18.810
 9199TIP3   OH278064   6.386   5.764  19.160
 9199TIP3    H178065   6.478   5.788  19.154
 9199TIP3    H278066   6.380   5.733  19.250
 9200TIP3   OH278067   6.689   7.467  18.693
 9200TIP3    H178068   6.776   7.498  18.672
 9200TIP3    H278069   6.668   7.414  18.615
 9201TIP3   OH278070   7.356   7.408  18.953
 9201TIP3    H178071   7.340   7.332  18.893
 9201TIP3    H278072   7.355   7.485  18.893
 9202TIP3   OH278073   5.924   5.812   0.653
 9202TIP3    H178074   5.891   5.735   0.701
 9202TIP3    H278075   6.015   5.817   0.688
 9203TIP3   OH278076   6.129   5.752   0.813
 9203TIP3    H178077   6.217   5.718   0.792
 9203TIP3    H278078   6.090   5.676   0.860
 9204TIP3   OH278079   5.992   7.421  18.547
 9204TIP3    H178080   5.967   7.459  18.632
 9204TIP3    H278081   6.071   7.371  18.567
 9205TIP3   OH278082   7.854   6.567   0.199
 9205TIP3    H178083   7.861   6.499   0.269
 9205TIP3    H278084   7.926   6.626   0.223
 9206TIP3   OH278085   7.952   7.016   0.051
 9206TIP3    H178086   7.914   6.931   0.020
 9206TIP3    H278087   8.043   6.990   0.060
 9207TIP3   OH278088   7.677   6.588  19.278
 9207TIP3    H178089   7.706   6.517  19.335
 9207TIP3    H278090   7.755   6.605  19.224
 9208TIP3   OH278091   8.028   6.124  19.353
 9208TIP3    H178092   8.082   6.186  19.300
 9208TIP3    H278093   8.039   6.050  19.293
 9209TIP3   OH278094   8.045   6.960   0.336
 9209TIP3    H178095   8.059   7.056   0.329
 9209TIP3    H278096   7.974   6.955   0.404
 9210TIP3   OH278097   8.105   6.686  19.207
 9210TIP3    H178098   8.072   6.655  19.119
 9210TIP3    H278099   8.160   6.613  19.235
 9211TIP3   OH278100   7.920   6.617   0.488
 9211TIP3    H178101   7.929   6.690   0.552
 9211TIP3    H278102   7.831   6.635   0.453
 9212TIP3   OH278103   8.052   7.204   0.646
 9212TIP3    H178104   8.055   7.197   0.548
 9212TIP3    H278105   7.956   7.196   0.661
 9213TIP3   OH278106   8.002   6.590  18.968
 9213TIP3    H178107   7.975   6.667  18.912
 9213TIP3    H278108   7.936   6.527  18.938
 9214TIP3   OH278109   7.610   6.834   0.376
 9214TIP3    H178110   7.566   6.826   0.290
 9214TIP3    H278111   7.615   6.739   0.400
 9215TIP3   OH278112   7.587   7.108   0.057
 9215TIP3    H178113   7.683   7.093   0.056
 9215TIP3    H278114   7.581   7.187   0.110
 9216TIP3   OH278115   7.932   7.346  19.144
 9216TIP3    H178116   7.928   7.348  19.241
 9216TIP3    H278117   7.837   7.346  19.124
 9217TIP3   OH278118   7.827   6.971   0.479
 9217TIP3    H178119   7.855   6.925   0.560
 9217TIP3    H278120   7.749   6.920   0.449
 9218TIP3   OH278121   8.104   5.831   0.046
 9218TIP3    H178122   8.011   5.809   0.023
 9218TIP3    H278123   8.094   5.903   0.109
 9219TIP3   OH278124   8.115   6.318   0.254
 9219TIP3    H178125   8.020   6.298   0.269
 9219TIP3    H278126   8.099   6.377   0.179
 9220TIP3   OH278127   8.085   6.314  19.179
 9220TIP3    H178128   8.000   6.292  19.142
 9220TIP3    H278129   8.147   6.283  19.113
 9221TIP3   OH278130   7.877   6.335   0.370
 9221TIP3    H178131   7.880   6.379   0.456
 9221TIP3    H278132   7.829   6.253   0.383
 9222TIP3   OH278133   8.084   6.335  18.664
 9222TIP3    H178134   8.026   6.320  18.588
 9222TIP3    H278135   8.161   6.373  18.619
 9223TIP3   OH278136   7.896   6.806   0.697
 9223TIP3    H178137   7.968   6.839   0.751
 9223TIP3    H278138   7.815   6.828   0.747
 9224TIP3   OH278139   7.935   6.745  19.434
 9224TIP3    H178140   8.002   6.737  19.365
 9224TIP3    H278141   7.936   6.659  19.480
 9225TIP3   OH278142   7.629   6.583   0.487
 9225TIP3    H178143   7.649   6.542   0.572
 9225TIP3    H278144   7.566   6.522   0.445
 9226TIP3   OH278145   7.754   7.239   0.287
 9226TIP3    H178146   7.783   7.147   0.288
 9226TIP3    H278147   7.784   7.269   0.374
 9227TIP3   OH278148   7.885   6.767  18.784
 9227TIP3    H178149   7.812   6.807  18.832
 9227TIP3    H278150   7.930   6.847  18.753
 9228TIP3   OH278151  -0.047   5.988  18.745
 9228TIP3    H178152  -0.043   6.077  18.781
 9228TIP3    H278153   0.049   5.970  18.757
 9229TIP3   OH278154   7.945   7.029  18.669
 9229TIP3    H178155   8.009   7.095  18.698
 9229TIP3    H278156   7.991   6.987  18.597
 9230TIP3   OH278157   7.858   5.773  19.449
 9230TIP3    H178158   7.833   5.784  19.356
 9230TIP3    H278159   7.814   5.691  19.475
 9231TIP3   OH278160   7.750   7.159  19.067
 9231TIP3    H178161   7.667   7.208  19.063
 9231TIP3    H278162   7.803   7.213  19.005
 9232TIP3   OH278163   7.739   7.339   0.729
 9232TIP3    H178164   7.740   7.397   0.805
 9232TIP3    H278165   7.644   7.341   0.704
 9233TIP3   OH278166   7.669   6.810   0.827
 9233TIP3    H178167   7.678   6.719   0.791
 9233TIP3    H278168   7.592   6.840   0.771
 9234TIP3   OH278169   7.754   6.535   0.765
 9234TIP3    H178170   7.795   6.448   0.752
 9234TIP3    H278171   7.722   6.526   0.856
 9235TIP3   OH278172   8.019   6.298   0.803
 9235TIP3    H178173   7.950   6.232   0.782
 9235TIP3    H278174   8.090   6.264   0.744
 9236TIP3   OH278175   7.852   6.084   0.767
 9236TIP3    H178176   7.865   6.007   0.711
 9236TIP3    H278177   7.835   6.039   0.854
 9237TIP3   OH278178   7.400   7.563  19.137
 9237TIP3    H178179   7.415   7.501  19.062
 9237TIP3    H278180   7.483   7.534  19.176
 9238TIP3   OH278181   7.621   7.334  19.307
 9238TIP3    H178182   7.587   7.246  19.328
 9238TIP3    H278183   7.651   7.373  19.392
 9239TIP3   OH278184   7.787   7.096   0.741
 9239TIP3    H178185   7.719   7.147   0.692
 9239TIP3    H278186   7.761   7.124   0.828
 9240TIP3   OH278187   8.087   7.227   0.365
 9240TIP3    H178188   8.047   7.310   0.331
 9240TIP3    H278189   8.178   7.236   0.332
 9241TIP3   OH278190   7.824   7.542   0.365
 9241TIP3    H178191   7.757   7.600   0.321
 9241TIP3    H278192   7.787   7.535   0.454
 9242TIP3   OH278193   8.035   7.461   0.241
 9242TIP3    H178194   7.979   7.508   0.308
 9242TIP3    H278195   8.067   7.544   0.198
 9243TIP3   OH278196   7.760   7.403   0.057
 9243TIP3    H178197   7.773   7.372   0.149
 9243TIP3    H278198   7.846   7.382   0.016
 9244TIP3   OH278199   7.979   7.286  19.397
 9244TIP3    H178200   7.958   7.193  19.415
 9244TIP3    H278201   8.060   7.300  19.447
 9245TIP3   OH278202   7.823   5.767  19.167
 9245TIP3    H178203   7.737   5.741  19.131
 9245TIP3    H278204   7.868   5.682  19.180
 9246TIP3   OH278205   7.702   5.737  18.759
 9246TIP3    H178206   7.745   5.800  18.697
 9246TIP3    H278207   7.640   5.796  18.804
 9247TIP3   OH278208   7.660   7.311  18.871
 9247TIP3    H178209   7.612   7.324  18.787
 9247TIP3    H278210   7.695   7.401  18.884
 9248TIP3   OH278211   7.886   5.913  18.615
 9248TIP3    H178212   7.935   5.879  18.539
 9248TIP3    H278213   7.954   5.970  18.656
 9249TIP3   OH278214   8.017   5.756   0.816
 9249TIP3    H178215   8.102   5.721   0.789
 9249TIP3    H278216   7.971   5.679   0.854
 9250TIP3   OH278217   7.955   7.386  18.464
 9250TIP3    H178218   7.883   7.419  18.523
 9250TIP3    H278219   7.985   7.352  18.551
 9251TIP3   OH278220   1.778   7.888   0.165
 9251TIP3    H178221   1.795   7.949   0.240
 9251TIP3    H278222   1.825   7.937   0.097
 9252TIP3   OH278223   0.548   7.982  19.318
 9252TIP3    H178224   0.553   8.065  19.270
 9252TIP3    H278225   0.501   7.930  19.248
 9253TIP3   OH278226   1.316   7.972  19.161
 9253TIP3    H178227   1.386   7.954  19.226
 9253TIP3    H278228   1.365   8.033  19.103
 9254TIP3   OH278229   1.819   8.039   0.390
 9254TIP3    H178230   1.754   8.108   0.391
 9254TIP3    H278231   1.823   8.022   0.486
 9255TIP3   OH278232   0.434   7.865   0.244
 9255TIP3    H178233   0.405   7.928   0.172
 9255TIP3    H278234   0.370   7.891   0.315
 9256TIP3   OH278235   1.526   7.919  19.334
 9256TIP3    H178236   1.487   7.851  19.390
 9256TIP3    H278237   1.570   7.974  19.401
 9257TIP3   OH278238   0.397   8.043   0.060
 9257TIP3    H178239   0.442   8.127   0.079
 9257TIP3    H278240   0.442   8.018  -0.024
 9258TIP3   OH278241   1.543   7.778   0.254
 9258TIP3    H178242   1.460   7.828   0.248
 9258TIP3    H278243   1.605   7.827   0.198
 9259TIP3   OH278244   0.826   7.606  -0.004
 9259TIP3    H178245   0.816   7.510  -0.014
 9259TIP3    H278246   0.741   7.640   0.025
 9260TIP3   OH278247   1.659   7.592  18.766
 9260TIP3    H178248   1.565   7.609  18.789
 9260TIP3    H278249   1.678   7.678  18.726
 9261TIP3   OH278250   0.563   7.703   0.071
 9261TIP3    H178251   0.474   7.710   0.031
 9261TIP3    H278252   0.558   7.788   0.121
 9262TIP3   OH278253   1.026   7.660   0.406
 9262TIP3    H178254   1.068   7.622   0.486
 9262TIP3    H278255   0.930   7.647   0.420
 9263TIP3   OH278256   1.401   8.012   0.504
 9263TIP3    H178257   1.325   7.996   0.563
 9263TIP3    H278258   1.370   8.099   0.470
 9264TIP3   OH278259   0.989   7.921  18.609
 9264TIP3    H178260   0.963   7.917  18.704
 9264TIP3    H278261   0.964   7.832  18.584
 9265TIP3   OH278262   0.075   7.934  19.169
 9265TIP3    H178263   0.070   7.915  19.267
 9265TIP3    H278264   0.078   7.845  19.132
 9266TIP3   OH278265   0.149   8.011  18.793
 9266TIP3    H178266   0.184   8.063  18.716
 9266TIP3    H278267   0.074   8.069  18.804
 9267TIP3   OH278268   0.825   7.969  19.254
 9267TIP3    H178269   0.733   7.961  19.282
 9267TIP3    H278270   0.876   7.942  19.332
 9268TIP3   OH278271   0.316   8.055  19.140
 9268TIP3    H178272   0.232   8.082  19.102
 9268TIP3    H278273   0.347   7.988  19.076
 9269TIP3   OH278274   0.675  -0.028  18.891
 9269TIP3    H178275   0.765  -0.011  18.927
 9269TIP3    H278276   0.652   0.048  18.838
 9270TIP3   OH278277   1.274   7.802   0.239
 9270TIP3    H178278   1.209   7.878   0.237
 9270TIP3    H278279   1.265   7.825   0.143
 9271TIP3   OH278280   0.457   7.847  19.086
 9271TIP3    H178281   0.424   7.757  19.080
 9271TIP3    H278282   0.536   7.846  19.031
 9272TIP3   OH278283   0.819   8.062   0.209
 9272TIP3    H178284   0.743   8.119   0.220
 9272TIP3    H278285   0.875   8.101   0.281
 9273TIP3   OH278286   1.253   7.974  18.693
 9273TIP3    H178287   1.165   7.984  18.654
 9273TIP3    H278288   1.292   8.062  18.697
 9274TIP3   OH278289   0.341   7.931   0.536
 9274TIP3    H178290   0.262   7.981   0.501
 9274TIP3    H278291   0.290   7.849   0.512
 9275TIP3   OH278292   1.084   7.921   0.358
 9275TIP3    H178293   1.176   7.929   0.391
 9275TIP3    H278294   1.079   7.823   0.361
 9276TIP3   OH278295   1.193   7.886  18.926
 9276TIP3    H178296   1.224   7.923  18.840
 9276TIP3    H278297   1.260   7.921  18.986
 9277TIP3   OH278298   0.921   8.058  19.002
 9277TIP3    H178299   1.002   8.111  19.004
 9277TIP3    H278300   0.897   8.039  19.096
 9278TIP3   OH278301   0.981   0.012   0.453
 9278TIP3    H178302   0.993   0.071   0.527
 9278TIP3    H278303   1.046  -0.060   0.459
 9279TIP3   OH278304   1.005   7.765  19.079
 9279TIP3    H178305   0.979   7.819  19.157
 9279TIP3    H278306   1.078   7.816  19.040
 9280TIP3   OH278307   0.578   7.874  18.760
 9280TIP3    H178308   0.569   7.962  18.802
 9280TIP3    H278309   0.666   7.845  18.791
 9281TIP3   OH278310   1.627   7.926   0.535
 9281TIP3    H178311   1.534   7.960   0.541
 9281TIP3    H278312   1.632   7.939   0.440
 9282TIP3   OH278313   0.314   7.657  19.452
 9282TIP3    H178314   0.287   7.670  19.357
 9282TIP3    H278315   0.252   7.588  19.476
 9283TIP3   OH278316   0.607   8.038   0.600
 9283TIP3    H178317   0.649   7.973   0.541
 9283TIP3    H278318   0.629   8.122   0.558
 9284TIP3   OH278319   0.680   7.889   0.356
 9284TIP3    H178320   0.738   7.935   0.290
 9284TIP3    H278321   0.591   7.883   0.315
 9285TIP3   OH278322   0.761   7.634   0.399
 9285TIP3    H178323   0.746   7.731   0.392
 9285TIP3    H278324   0.685   7.596   0.354
 9286TIP3   OH278325   0.903   8.025   0.769
 9286TIP3    H178326   0.871   8.039   0.862
 9286TIP3    H278327   0.817   8.032   0.726
 9287TIP3   OH278328   1.128   7.907   0.646
 9287TIP3    H178329   1.061   7.971   0.678
 9287TIP3    H278330   1.186   7.909   0.725
 9288TIP3   OH278331   1.311   7.829   0.845
 9288TIP3    H178332   1.309   7.733   0.860
 9288TIP3    H278333   1.299   7.865   0.936
 9289TIP3   OH278334   0.303   7.972   0.783
 9289TIP3    H178335   0.325   7.904   0.713
 9289TIP3    H278336   0.292   7.916   0.862
 9290TIP3   OH278337   0.780   7.566   0.668
 9290TIP3    H178338   0.853   7.501   0.665
 9290TIP3    H278339   0.772   7.589   0.573
 9291TIP3   OH278340   0.814   7.731   0.877
 9291TIP3    H178341   0.803   7.685   0.791
 9291TIP3    H278342   0.761   7.812   0.866
 9292TIP3   OH278343   1.590   7.924  18.467
 9292TIP3    H178344   1.650   7.909  18.542
 9292TIP3    H278345   1.505   7.897  18.503
 9293TIP3   OH278346   1.647   8.104  19.091
 9293TIP3    H178347   1.614   8.030  19.041
 9293TIP3    H278348   1.627   8.165  19.018
 9294TIP3   OH278349   1.652  -0.048   0.079
 9294TIP3    H178350   1.713   0.023   0.052
 9294TIP3    H278351   1.604   0.003   0.143
 9295TIP3   OH278352   0.089   8.077   0.671
 9295TIP3    H178353   0.167   8.048   0.718
 9295TIP3    H278354   0.025   8.007   0.699
 9296TIP3   OH278355   1.857   7.621   0.869
 9296TIP3    H178356   1.881   7.550   0.810
 9296TIP3    H278357   1.855   7.698   0.811
 9297TIP3   OH278358   1.647   7.788  19.011
 9297TIP3    H178359   1.638   7.757  19.102
 9297TIP3    H278360   1.569   7.754  18.962
 9298TIP3   OH278361   0.185   7.900  19.445
 9298TIP3    H178362   0.217   7.818  19.481
 9298TIP3    H278363   0.222   7.973  19.495
 9299TIP3   OH278364   1.808   7.830   0.715
 9299TIP3    H178365   1.713   7.862   0.705
 9299TIP3    H278366   1.808   7.782   0.630
 9300TIP3   OH278367   0.056   7.808  18.957
 9300TIP3    H178368  -0.038   7.831  18.938
 9300TIP3    H278369   0.097   7.877  18.901
 9301TIP3   OH278370   8.202   7.638   0.268
 9301TIP3    H178371   8.137   7.640   0.343
 9301TIP3    H278372   8.157   7.719   0.234
 9302TIP3   OH278373   0.993   7.768  19.331
 9302TIP3    H178374   0.972   7.724  19.414
 9302TIP3    H278375   1.087   7.742  19.332
 9303TIP3   OH278376   1.557   7.595  19.409
 9303TIP3    H178377   1.619   7.650  19.355
 9303TIP3    H278378   1.469   7.626  19.381
 9304TIP3   OH278379   1.724   7.711  19.241
 9304TIP3    H178380   1.791   7.658  19.192
 9304TIP3    H278381   1.771   7.798  19.244
 9305TIP3   OH278382   0.277   7.645  19.183
 9305TIP3    H178383   0.198   7.628  19.128
 9305TIP3    H278384   0.327   7.562  19.170
 9306TIP3   OH278385   0.164   7.625  18.759
 9306TIP3    H178386   0.205   7.688  18.697
 9306TIP3    H278387   0.100   7.679  18.807
 9307TIP3   OH278388   0.728   7.641  19.162
 9307TIP3    H178389   0.820   7.675  19.151
 9307TIP3    H278390   0.730   7.618  19.254
 9308TIP3   OH278391   1.307   7.636  19.317
 9308TIP3    H178392   1.292   7.650  19.224
 9308TIP3    H278393   1.259   7.551  19.334
 9309TIP3   OH278394   1.426   7.648  18.892
 9309TIP3    H178395   1.350   7.705  18.873
 9309TIP3    H278396   1.383   7.561  18.912
 9310TIP3   OH278397   0.341   7.817  18.608
 9310TIP3    H178398   0.391   7.759  18.549
 9310TIP3    H278399   0.411   7.852  18.665
 9311TIP3   OH278400   0.848   7.846  18.845
 9311TIP3    H178401   0.870   7.786  18.919
 9311TIP3    H278402   0.848   7.931  18.894
 9312TIP3   OH278403   0.264   7.699   0.661
 9312TIP3    H178404   0.230   7.619   0.702
 9312TIP3    H278405   0.359   7.697   0.689
 9313TIP3   OH278406   0.471   7.640   0.816
 9313TIP3    H178407   0.560   7.607   0.792
 9313TIP3    H278408   0.431   7.562   0.859
 9314TIP3   OH278409   1.313   7.568   0.831
 9314TIP3    H178410   1.319   7.520   0.916
 9314TIP3    H278411   1.404   7.565   0.795
 9315TIP3   OH278412   3.666   7.884   0.169
 9315TIP3    H178413   3.674   7.951   0.240
 9315TIP3    H278414   3.709   7.932   0.097
 9316TIP3   OH278415   2.426   7.988  19.317
 9316TIP3    H178416   2.436   8.068  19.265
 9316TIP3    H278417   2.390   7.926  19.252
 9317TIP3   OH278418   3.200   7.994  19.149
 9317TIP3    H178419   3.263   7.963  19.219
 9317TIP3    H278420   3.262   8.047  19.099
 9318TIP3   OH278421   3.711   8.030   0.390
 9318TIP3    H178422   3.643   8.095   0.373
 9318TIP3    H278423   3.714   8.026   0.487
 9319TIP3   OH278424   2.314   7.867   0.247
 9319TIP3    H178425   2.291   7.930   0.175
 9319TIP3    H278426   2.250   7.897   0.316
 9320TIP3   OH278427   3.382   7.920  19.346
 9320TIP3    H178428   3.357   7.850  19.407
 9320TIP3    H278429   3.439   7.973  19.405
 9321TIP3   OH278430   2.280   8.045   0.059
 9321TIP3    H178431   2.328   8.127   0.080
 9321TIP3    H278432   2.327   8.016  -0.022
 9322TIP3   OH278433   2.717   7.608  -0.005
 9322TIP3    H178434   2.702   7.513  -0.014
 9322TIP3    H278435   2.629   7.639   0.024
 9323TIP3   OH278436   3.541   7.598  18.761
 9323TIP3    H178437   3.449   7.612  18.790
 9323TIP3    H278438   3.567   7.686  18.728
 9324TIP3   OH278439   2.449   7.698   0.064
 9324TIP3    H178440   2.358   7.685   0.031
 9324TIP3    H278441   2.438   7.777   0.119
 9325TIP3   OH278442   2.911   7.665   0.406
 9325TIP3    H178443   2.950   7.626   0.485
 9325TIP3    H278444   2.814   7.651   0.420
 9326TIP3   OH278445   3.243   8.045   0.496
 9326TIP3    H178446   3.187   8.029   0.575
 9326TIP3    H278447   3.222   8.135   0.474
 9327TIP3   OH278448   2.878   7.918  18.614
 9327TIP3    H178449   2.846   7.914  18.706
 9327TIP3    H278450   2.847   7.831  18.584
 9328TIP3   OH278451   1.889   7.921  19.229
 9328TIP3    H178452   1.954   7.930  19.302
 9328TIP3    H278453   1.940   7.893  19.153
 9329TIP3   OH278454   2.710   7.953  19.250
 9329TIP3    H178455   2.619   7.958  19.283
 9329TIP3    H278456   2.758   7.945  19.335
 9330TIP3   OH278457   2.192   8.115  19.144
 9330TIP3    H178458   2.106   8.129  19.102
 9330TIP3    H278459   2.223   8.037  19.098
 9331TIP3   OH278460   2.554  -0.030  18.897
 9331TIP3    H178461   2.646  -0.014  18.926
 9331TIP3    H278462   2.536   0.045  18.840
 9332TIP3   OH278463   3.154   7.876   0.105
 9332TIP3    H178464   3.085   7.892   0.173
 9332TIP3    H278465   3.102   7.859   0.026
 9333TIP3   OH278466   2.695   8.041   0.271
 9333TIP3    H178467   2.637   8.108   0.231
 9333TIP3    H278468   2.765   8.103   0.294
 9334TIP3   OH278469   3.148   7.962  18.671
 9334TIP3    H178470   3.054   7.983  18.653
 9334TIP3    H278471   3.182   8.048  18.698
 9335TIP3   OH278472   2.135   7.943   0.450
 9335TIP3    H178473   2.047   7.981   0.436
 9335TIP3    H278474   2.122   7.856   0.485
 9336TIP3   OH278475   3.008   7.923   0.334
 9336TIP3    H178476   3.079   7.928   0.399
 9336TIP3    H278477   2.972   7.834   0.355
 9337TIP3   OH278478   3.085   7.881  18.922
 9337TIP3    H178479   3.110   7.926  18.839
 9337TIP3    H278480   3.142   7.923  18.988
 9338TIP3   OH278481   2.807   8.053  18.999
 9338TIP3    H178482   2.884   8.112  19.004
 9338TIP3    H278483   2.778   8.041  19.092
 9339TIP3   OH278484   2.864  -0.013   0.480
 9339TIP3    H178485   2.885   0.065   0.533
 9339TIP3    H278486   2.945  -0.064   0.469
 9340TIP3   OH278487   2.900   7.762  19.096
 9340TIP3    H178488   2.860   7.825  19.158
 9340TIP3    H278489   2.961   7.819  19.045
 9341TIP3   OH278490   2.461   7.870  18.763
 9341TIP3    H178491   2.456   7.959  18.801
 9341TIP3    H278492   2.551   7.844  18.789
 9342TIP3   OH278493   2.195   7.665  19.449
 9342TIP3    H178494   2.178   7.659  19.353
 9342TIP3    H278495   2.160   7.579  19.476
 9343TIP3   OH278496   2.525   8.050   0.606
 9343TIP3    H178497   2.538   7.977   0.542
 9343TIP3    H278498   2.527   8.127   0.549
 9344TIP3   OH278499   2.552   7.869   0.366
 9344TIP3    H178500   2.613   7.921   0.306
 9344TIP3    H278501   2.470   7.877   0.315
 9345TIP3   OH278502   2.645   7.631   0.401
 9345TIP3    H178503   2.630   7.728   0.389
 9345TIP3    H278504   2.570   7.595   0.350
 9346TIP3   OH278505   2.776   8.051   0.758
 9346TIP3    H178506   2.746   8.046   0.849
 9346TIP3    H278507   2.695   8.048   0.705
 9347TIP3   OH278508   3.045   7.972   0.660
 9347TIP3    H178509   2.950   7.986   0.681
 9347TIP3    H278510   3.078   7.920   0.735
 9348TIP3   OH278511   3.209   7.841   0.865
 9348TIP3    H178512   3.192   7.745   0.862
 9348TIP3    H278513   3.177   7.869   0.954
 9349TIP3   OH278514   2.172   7.955   0.777
 9349TIP3    H178515   2.221   7.905   0.709
 9349TIP3    H278516   2.202   7.920   0.861
 9350TIP3   OH278517   2.670   7.568   0.666
 9350TIP3    H178518   2.737   7.498   0.664
 9350TIP3    H278519   2.654   7.587   0.571
 9351TIP3   OH278520   2.708   7.733   0.876
 9351TIP3    H178521   2.690   7.683   0.793
 9351TIP3    H278522   2.645   7.805   0.869
 9352TIP3   OH278523   3.477   7.934  18.491
 9352TIP3    H178524   3.543   7.898  18.552
 9352TIP3    H278525   3.394   7.891  18.513
 9353TIP3   OH278526   3.439   8.089  18.990
 9353TIP3    H178527   3.468   7.995  19.001
 9353TIP3    H278528   3.517   8.127  18.950
 9354TIP3   OH278529   3.543  -0.027   0.118
 9354TIP3    H178530   3.588   0.031   0.056
 9354TIP3    H278531   3.473   0.026   0.157
 9355TIP3   OH278532   1.933   8.071   0.693
 9355TIP3    H178533   2.029   8.057   0.705
 9355TIP3    H278534   1.884   7.991   0.715
 9356TIP3   OH278535   3.501   7.821  18.997
 9356TIP3    H178536   3.525   7.772  19.078
 9356TIP3    H278537   3.444   7.757  18.951
 9357TIP3   OH278538   2.058   7.905  19.448
 9357TIP3    H178539   2.100   7.820  19.475
 9357TIP3    H278540   2.111   7.971  19.495
 9358TIP3   OH278541   3.686   7.825  18.642
 9358TIP3    H178542   3.736   7.757  18.595
 9358TIP3    H278543   3.759   7.888  18.654
 9359TIP3   OH278544   2.928   7.788  19.399
 9359TIP3    H178545   2.863   7.719  19.423
 9359TIP3    H278546   2.985   7.738  19.340
 9360TIP3   OH278547   3.441   7.593  19.407
 9360TIP3    H178548   3.505   7.648  19.356
 9360TIP3    H278549   3.355   7.629  19.383
 9361TIP3   OH278550   3.611   7.714  19.226
 9361TIP3    H178551   3.679   7.655  19.193
 9361TIP3    H278552   3.659   7.799  19.241
 9362TIP3   OH278553   3.181   7.643  19.322
 9362TIP3    H178554   3.182   7.654  19.227
 9362TIP3    H278555   3.151   7.551  19.336
 9363TIP3   OH278556   3.311   7.648  18.887
 9363TIP3    H178557   3.236   7.708  18.874
 9363TIP3    H278558   3.270   7.563  18.908
 9364TIP3   OH278559   2.732   7.847  18.844
 9364TIP3    H178560   2.753   7.786  18.916
 9364TIP3    H278561   2.734   7.930  18.895
 9365TIP3   OH278562   3.197   7.567   0.831
 9365TIP3    H178563   3.209   7.524   0.915
 9365TIP3    H278564   3.285   7.567   0.792
 9366TIP3   OH278565   4.317   7.975  19.359
 9366TIP3    H178566   4.325   8.056  19.299
 9366TIP3    H278567   4.283   7.928  19.280
 9367TIP3   OH278568   5.086   7.999  19.153
 9367TIP3    H178569   5.150   7.962  19.218
 9367TIP3    H278570   5.149   8.049  19.099
 9368TIP3   OH278571   4.201   7.865   0.252
 9368TIP3    H178572   4.177   7.927   0.179
 9368TIP3    H278573   4.135   7.894   0.318
 9369TIP3   OH278574   5.272   7.919  19.348
 9369TIP3    H178575   5.243   7.850  19.409
 9369TIP3    H278576   5.324   7.974  19.407
 9370TIP3   OH278577   4.172   8.044   0.078
 9370TIP3    H178578   4.215   8.130   0.079
 9370TIP3    H278579   4.208   8.019  -0.012
 9371TIP3   OH278580   5.431   7.607  18.768
 9371TIP3    H178581   5.337   7.618  18.793
 9371TIP3    H278582   5.451   7.690  18.723
 9372TIP3   OH278583   4.336   7.693   0.072
 9372TIP3    H178584   4.246   7.682   0.036
 9372TIP3    H278585   4.325   7.778   0.118
 9373TIP3   OH278586   5.128   8.044   0.491
 9373TIP3    H178587   5.078   8.028   0.575
 9373TIP3    H278588   5.108   8.135   0.470
 9374TIP3   OH278589   4.817   7.911  18.617
 9374TIP3    H178590   4.758   7.924  18.693
 9374TIP3    H278591   4.760   7.845  18.574
 9375TIP3   OH278592   3.769   7.928  19.225
 9375TIP3    H178593   3.830   7.924  19.302
 9375TIP3    H278594   3.824   7.894  19.154
 9376TIP3   OH278595   3.906   7.989  18.775
 9376TIP3    H178596   3.946   8.055  18.714
 9376TIP3    H278597   3.837   8.049  18.803
 9377TIP3   OH278598   4.597   7.960  19.253
 9377TIP3    H178599   4.505   7.959  19.284
 9377TIP3    H278600   4.648   7.946  19.334
 9378TIP3   OH278601   4.080   8.123  19.079
 9378TIP3    H178602   3.987   8.124  19.098
 9378TIP3    H278603   4.103   8.031  19.093
 9379TIP3   OH278604   4.518   0.113  18.915
 9379TIP3    H178605   4.539   0.021  18.934
 9379TIP3    H278606   4.437   0.085  18.869
 9380TIP3   OH278607   5.037   7.875   0.104
 9380TIP3    H178608   4.970   7.898   0.172
 9380TIP3    H278609   4.983   7.864   0.025
 9381TIP3   OH278610   4.072   7.873  19.073
 9381TIP3    H178611   4.095   7.779  19.082
 9381TIP3    H278612   4.163   7.876  19.031
 9382TIP3   OH278613   4.589   8.073   0.210
 9382TIP3    H178614   4.507   8.119   0.229
 9382TIP3    H278615   4.644   8.095   0.288
 9383TIP3   OH278616   5.044   7.982  18.682
 9383TIP3    H178617   4.948   7.983  18.654
 9383TIP3    H278618   5.066   8.071  18.701
 9384TIP3   OH278619   4.020   7.944   0.440
 9384TIP3    H178620   3.930   7.980   0.441
 9384TIP3    H278621   4.010   7.862   0.489
 9385TIP3   OH278622   4.895   7.935   0.337
 9385TIP3    H178623   4.967   7.931   0.402
 9385TIP3    H278624   4.859   7.847   0.352
 9386TIP3   OH278625   4.968   7.884  18.923
 9386TIP3    H178626   4.995   7.924  18.838
 9386TIP3    H278627   5.029   7.922  18.987
 9387TIP3   OH278628   4.739   8.053  19.025
 9387TIP3    H178629   4.792   8.132  19.023
 9387TIP3    H278630   4.682   8.054  19.106
 9388TIP3   OH278631   4.721  -0.041   0.476
 9388TIP3    H178632   4.741   0.037   0.530
 9388TIP3    H278633   4.810  -0.074   0.455
 9389TIP3   OH278634   4.783   7.766  19.097
 9389TIP3    H178635   4.747   7.831  19.160
 9389TIP3    H278636   4.848   7.816  19.044
 9390TIP3   OH278637   4.285   7.795  18.791
 9390TIP3    H178638   4.290   7.895  18.774
 9390TIP3    H278639   4.383   7.802  18.798
 9391TIP3   OH278640   5.372   7.943   0.529
 9391TIP3    H178641   5.278   7.973   0.523
 9391TIP3    H278642   5.397   7.947   0.437
 9392TIP3   OH278643   4.087   7.660  19.448
 9392TIP3    H178644   4.058   7.659  19.356
 9392TIP3    H278645   4.042   7.577  19.479
 9393TIP3   OH278646   4.421   8.055   0.608
 9393TIP3    H178647   4.425   7.984   0.541
 9393TIP3    H278648   4.416   8.134   0.551
 9394TIP3   OH278649   4.449   7.889   0.358
 9394TIP3    H178650   4.505   7.931   0.289
 9394TIP3    H278651   4.361   7.880   0.315
 9395TIP3   OH278652   4.519   7.630   0.408
 9395TIP3    H178653   4.516   7.726   0.390
 9395TIP3    H278654   4.451   7.598   0.347
 9396TIP3   OH278655   4.662   8.067   0.756
 9396TIP3    H178656   4.633   8.044   0.848
 9396TIP3    H278657   4.582   8.049   0.704
 9397TIP3   OH278658   4.931   7.974   0.659
 9397TIP3    H178659   4.837   7.986   0.681
 9397TIP3    H278660   4.962   7.921   0.735
 9398TIP3   OH278661   5.087   7.845   0.861
 9398TIP3    H178662   5.082   7.747   0.861
 9398TIP3    H278663   5.061   7.871   0.952
 9399TIP3   OH278664   4.004   7.940   0.733
 9399TIP3    H178665   4.087   7.911   0.689
 9399TIP3    H278666   4.041   7.940   0.821
 9400TIP3   OH278667   4.553   7.567   0.668
 9400TIP3    H178668   4.622   7.501   0.665
 9400TIP3    H278669   4.540   7.588   0.573
 9401TIP3   OH278670   4.581   7.730   0.879
 9401TIP3    H178671   4.578   7.683   0.792
 9401TIP3    H278672   4.534   7.813   0.864
 9402TIP3   OH278673   5.367   7.927  18.488
 9402TIP3    H178674   5.425   7.895  18.560
 9402TIP3    H278675   5.280   7.893  18.512
 9403TIP3   OH278676   5.333   8.080  19.011
 9403TIP3    H178677   5.363   7.988  18.999
 9403TIP3    H278678   5.396   8.127  18.952
 9404TIP3   OH278679   3.805   8.073   0.685
 9404TIP3    H178680   3.901   8.056   0.702
 9404TIP3    H278681   3.770   7.993   0.725
 9405TIP3   OH278682   5.626   7.619   0.874
 9405TIP3    H178683   5.657   7.556   0.809
 9405TIP3    H278684   5.630   7.705   0.826
 9406TIP3   OH278685   5.387   7.821  18.997
 9406TIP3    H178686   5.408   7.771  19.078
 9406TIP3    H278687   5.329   7.758  18.950
 9407TIP3   OH278688   3.925   7.869  19.468
 9407TIP3    H178689   3.991   7.799  19.483
 9407TIP3    H278690   3.979   7.947  19.491
 9408TIP3   OH278691   5.564   7.823   0.713
 9408TIP3    H178692   5.475   7.864   0.707
 9408TIP3    H278693   5.579   7.782   0.628
 9409TIP3   OH278694   5.573   7.826  18.647
 9409TIP3    H178695   5.616   7.752  18.601
 9409TIP3    H278696   5.643   7.892  18.655
 9410TIP3   OH278697   4.812   7.787  19.397
 9410TIP3    H178698   4.751   7.717  19.423
 9410TIP3    H278699   4.870   7.739  19.336
 9411TIP3   OH278700   5.327   7.594  19.405
 9411TIP3    H178701   5.389   7.650  19.354
 9411TIP3    H278702   5.239   7.629  19.383
 9412TIP3   OH278703   5.500   7.712  19.232
 9412TIP3    H178704   5.565   7.656  19.188
 9412TIP3    H278705   5.544   7.798  19.241
 9413TIP3   OH278706   5.061   7.643  19.319
 9413TIP3    H178707   5.068   7.652  19.223
 9413TIP3    H278708   5.038   7.551  19.333
 9414TIP3   OH278709   5.197   7.649  18.889
 9414TIP3    H178710   5.124   7.710  18.871
 9414TIP3    H278711   5.153   7.566  18.909
 9415TIP3   OH278712   4.662   7.789  18.843
 9415TIP3    H178713   4.651   7.759  18.934
 9415TIP3    H278714   4.648   7.884  18.871
 9416TIP3   OH278715   5.086   7.577   0.831
 9416TIP3    H178716   5.088   7.524   0.911
 9416TIP3    H278717   5.175   7.569   0.794
 9417TIP3   OH278718   7.435   7.886   0.170
 9417TIP3    H178719   7.444   7.951   0.242
 9417TIP3    H278720   7.480   7.935   0.100
 9418TIP3   OH278721   6.974   7.988  19.150
 9418TIP3    H178722   7.040   7.963  19.220
 9418TIP3    H278723   7.032   8.046  19.098
 9419TIP3   OH278724   7.466   8.023   0.391
 9419TIP3    H178725   7.418   8.103   0.374
 9419TIP3    H278726   7.481   8.026   0.488
 9420TIP3   OH278727   7.149   7.924  19.352
 9420TIP3    H178728   7.130   7.848  19.406
 9420TIP3    H278729   7.214   7.969  19.408
 9421TIP3   OH278730   7.305   7.598  18.764
 9421TIP3    H178731   7.214   7.612  18.788
 9421TIP3    H278732   7.338   7.682  18.725
 9422TIP3   OH278733   6.686   7.671   0.413
 9422TIP3    H178734   6.720   7.619   0.484
 9422TIP3    H278735   6.589   7.649   0.417
 9423TIP3   OH278736   7.012   8.045   0.494
 9423TIP3    H178737   6.957   8.032   0.574
 9423TIP3    H278738   6.991   8.135   0.469
 9424TIP3   OH278739   6.920   7.877   0.103
 9424TIP3    H178740   6.855   7.895   0.174
 9424TIP3    H278741   6.867   7.863   0.025
 9425TIP3   OH278742   6.477   8.038   0.195
 9425TIP3    H178743   6.407   8.104   0.201
 9425TIP3    H278744   6.530   8.086   0.265
 9426TIP3   OH278745   6.776   7.919   0.332
 9426TIP3    H178746   6.846   7.927   0.399
 9426TIP3    H278747   6.740   7.830   0.351
 9427TIP3   OH278748   6.860   7.882  18.913
 9427TIP3    H178749   6.881   7.936  18.838
 9427TIP3    H278750   6.906   7.924  18.989
 9428TIP3   OH278751   7.252   7.942   0.532
 9428TIP3    H178752   7.158   7.972   0.522
 9428TIP3    H278753   7.283   7.941   0.441
 9429TIP3   OH278754   6.334   7.890   0.358
 9429TIP3    H178755   6.394   7.932   0.292
 9429TIP3    H278756   6.253   7.882   0.311
 9430TIP3   OH278757   6.419   7.632   0.396
 9430TIP3    H178758   6.400   7.728   0.392
 9430TIP3    H278759   6.342   7.594   0.350
 9431TIP3   OH278760   6.818   7.983   0.665
 9431TIP3    H178761   6.724   7.981   0.679
 9431TIP3    H278762   6.852   7.922   0.733
 9432TIP3   OH278763   6.967   7.843   0.859
 9432TIP3    H178764   6.973   7.747   0.864
 9432TIP3    H278765   6.954   7.870   0.953
 9433TIP3   OH278766   7.245   7.938  18.498
 9433TIP3    H178767   7.315   7.893  18.550
 9433TIP3    H278768   7.166   7.889  18.512
 9434TIP3   OH278769   7.220   8.084  19.002
 9434TIP3    H178770   7.249   7.990  19.003
 9434TIP3    H278771   7.288   8.130  18.952
 9435TIP3   OH278772   7.313  -0.027   0.115
 9435TIP3    H178773   7.364   0.034   0.062
 9435TIP3    H278774   7.247   0.025   0.160
 9436TIP3   OH278775   7.379   7.628   0.838
 9436TIP3    H178776   7.451   7.561   0.856
 9436TIP3    H278777   7.453   7.694   0.821
 9437TIP3   OH278778   7.271   7.821  18.997
 9437TIP3    H178779   7.295   7.771  19.079
 9437TIP3    H278780   7.220   7.754  18.950
 9438TIP3   OH278781   7.459   7.835   0.712
 9438TIP3    H178782   7.365   7.864   0.706
 9438TIP3    H278783   7.470   7.786   0.629
 9439TIP3   OH278784   7.441   7.818  18.617
 9439TIP3    H178785   7.500   7.744  18.599
 9439TIP3    H278786   7.511   7.880  18.653
 9440TIP3   OH278787   6.703   7.787  19.400
 9440TIP3    H178788   6.635   7.725  19.424
 9440TIP3    H278789   6.754   7.742  19.333
 9441TIP3   OH278790   7.361   7.759  19.275
 9441TIP3    H178791   7.404   7.683  19.230
 9441TIP3    H278792   7.423   7.824  19.246
 9442TIP3   OH278793   5.924   7.701   0.652
 9442TIP3    H178794   5.891   7.624   0.699
 9442TIP3    H278795   6.016   7.704   0.686
 9443TIP3   OH278796   6.126   7.632   0.810
 9443TIP3    H178797   6.216   7.604   0.790
 9443TIP3    H278798   6.092   7.557   0.858
 9444TIP3   OH278799   8.098   7.950  19.374
 9444TIP3    H178800   8.103   8.034  19.326
 9444TIP3    H278801   8.055   7.904  19.300
 9445TIP3   OH278802   7.920   7.816   0.246
 9445TIP3    H178803   7.937   7.889   0.180
 9445TIP3    H278804   7.894   7.881   0.313
 9446TIP3   OH278805   7.928   7.971   0.062
 9446TIP3    H178806   7.971   8.054   0.092
 9446TIP3    H278807   7.969   7.983  -0.027
 9447TIP3   OH278808   8.106   7.704   0.053
 9447TIP3    H178809   8.012   7.682   0.031
 9447TIP3    H278810   8.087   7.784   0.102
 9448TIP3   OH278811   7.544   7.969  19.130
 9448TIP3    H178812   7.578   7.982  19.219
 9448TIP3    H278813   7.587   7.880  19.122
 9449TIP3   OH278814   7.588   7.920  18.776
 9449TIP3    H178815   7.658   7.980  18.740
 9449TIP3    H278816   7.554   8.004  18.810
 9450TIP3   OH278817   7.708   8.173  19.137
 9450TIP3    H178818   7.716   8.140  19.045
 9450TIP3    H278819   7.784   8.107  19.146
 9451TIP3   OH278820   7.980   7.833  19.067
 9451TIP3    H178821   7.967   7.741  19.090
 9451TIP3    H278822   8.076   7.844  19.059
 9452TIP3   OH278823   7.753   7.916   0.509
 9452TIP3    H178824   7.698   7.970   0.450
 9452TIP3    H278825   7.758   7.825   0.480
 9453TIP3   OH278826  -0.034   7.857  18.739
 9453TIP3    H178827  -0.037   7.945  18.776
 9453TIP3    H278828   0.060   7.842  18.760
 9454TIP3   OH278829   7.859   7.646  19.476
 9454TIP3    H178830   7.842   7.661  19.378
 9454TIP3    H278831   7.807   7.565  19.485
 9455TIP3   OH278832   7.713   7.959   0.770
 9455TIP3    H178833   7.776   7.928   0.699
 9455TIP3    H278834   7.783   7.936   0.832
 9456TIP3   OH278835   7.557   8.093   0.666
 9456TIP3    H178836   7.654   8.072   0.689
 9456TIP3    H278837   7.537   8.006   0.711
 9457TIP3   OH278838   7.711   7.872  19.583
 9457TIP3    H178839   7.750   7.811  19.514
 9457TIP3    H278840   7.756   7.945  19.532
 9458TIP3   OH278841   7.533   7.793  18.961
 9458TIP3    H178842   7.458   7.852  18.948
 9458TIP3    H278843   7.601   7.848  18.910
 9459TIP3   OH278844   7.575   7.696   0.320
 9459TIP3    H178845   7.508   7.671   0.384
 9459TIP3    H278846   7.527   7.759   0.263
 9460TIP3   OH278847   7.817   7.536  19.264
 9460TIP3    H178848   7.739   7.551  19.208
 9460TIP3    H278849   7.881   7.554  19.196
 9461TIP3   OH278850   7.571   7.638  18.758
 9461TIP3    H178851   7.656   7.665  18.718
 9461TIP3    H278852   7.599   7.695  18.833
 9462TIP3   OH278853   7.920   7.830  18.567
 9462TIP3    H178854   7.948   7.742  18.542
 9462TIP3    H278855   7.966   7.845  18.650
 9463TIP3   OH278856   7.840   7.659   0.632
 9463TIP3    H178857   7.777   7.629   0.699
 9463TIP3    H278858   7.914   7.689   0.686
 9464TIP3   OH278859   8.015   7.625   0.813
 9464TIP3    H178860   8.104   7.599   0.787
 9464TIP3    H278861   7.975   7.549   0.858
 9465TIP3   OH278862   1.058   0.796   1.031
 9465TIP3    H178863   1.130   0.799   1.097
 9465TIP3    H278864   1.093   0.728   0.973
 9466TIP3   OH278865   1.286   0.879   1.192
 9466TIP3    H178866   1.343   0.900   1.266
 9466TIP3    H278867   1.325   0.931   1.120
 9467TIP3   OH278868   1.436   0.982   0.965
 9467TIP3    H178869   1.432   0.966   0.867
 9467TIP3    H278870   1.520   1.029   0.975
 9468TIP3   OH278871   0.988   0.374   1.023
 9468TIP3    H178872   0.964   0.375   1.115
 9468TIP3    H278873   0.960   0.286   0.993
 9469TIP3   OH278874   0.672   0.413   0.929
 9469TIP3    H178875   0.630   0.377   1.010
 9469TIP3    H278876   0.601   0.459   0.884
 9470TIP3   OH278877   0.132   0.466   1.185
 9470TIP3    H178878   0.179   0.524   1.124
 9470TIP3    H278879   0.057   0.518   1.216
 9471TIP3   OH278880   0.539   0.690   1.076
 9471TIP3    H178881   0.487   0.657   1.001
 9471TIP3    H278882   0.620   0.717   1.030
 9472TIP3   OH278883   0.808   1.432   0.897
 9472TIP3    H178884   0.822   1.354   0.840
 9472TIP3    H278885   0.766   1.390   0.976
 9473TIP3   OH278886   0.699   1.382   1.141
 9473TIP3    H178887   0.708   1.334   1.223
 9473TIP3    H278888   0.693   1.475   1.171
 9474TIP3   OH278889   0.708   1.657   1.217
 9474TIP3    H178890   0.717   1.738   1.160
 9474TIP3    H278891   0.681   1.694   1.301
 9475TIP3   OH278892   0.574   0.328   1.170
 9475TIP3    H178893   0.564   0.416   1.210
 9475TIP3    H278894   0.662   0.303   1.201
 9476TIP3   OH278895   0.229   0.633   0.991
 9476TIP3    H178896   0.234   0.728   1.008
 9476TIP3    H278897   0.140   0.611   0.960
 9477TIP3   OH278898   1.010   1.619   0.914
 9477TIP3    H178899   0.940   1.554   0.934
 9477TIP3    H278900   1.078   1.559   0.881
 9478TIP3   OH278901   0.551   1.181   0.911
 9478TIP3    H178902   0.570   1.112   0.975
 9478TIP3    H278903   0.627   1.175   0.850
 9479TIP3   OH278904   1.100   1.297   0.894
 9479TIP3    H178905   1.064   1.308   0.982
 9479TIP3    H278906   1.077   1.203   0.875
 9480TIP3   OH278907   0.672   0.986   1.150
 9480TIP3    H178908   0.626   0.935   1.217
 9480TIP3    H278909   0.701   0.920   1.084
 9481TIP3   OH278910   0.780   0.805   0.975
 9481TIP3    H178911   0.767   0.800   0.878
 9481TIP3    H278912   0.877   0.818   0.981
 9482TIP3   OH278913   1.715   1.046   0.922
 9482TIP3    H178914   1.696   1.004   0.836
 9482TIP3    H278915   1.729   1.139   0.899
 9483TIP3   OH278916   0.777   1.873   1.074
 9483TIP3    H178917   0.869   1.896   1.085
 9483TIP3    H278918   0.749   1.940   1.009
 9484TIP3   OH278919   1.830   0.926   1.137
 9484TIP3    H178920   1.780   0.967   1.064
 9484TIP3    H278921   1.829   0.993   1.206
 9485TIP3   OH278922   0.163   0.112   1.168
 9485TIP3    H178923   0.206   0.172   1.108
 9485TIP3    H278924   0.094   0.159   1.213
 9486TIP3   OH278925   0.349   0.283   1.009
 9486TIP3    H178926   0.394   0.212   0.961
 9486TIP3    H278927   0.409   0.304   1.083
 9487TIP3   OH278928   0.338   1.782   0.957
 9487TIP3    H178929   0.300   1.794   1.045
 9487TIP3    H278930   0.406   1.715   0.975
 9488TIP3   OH278931   3.658   1.492   1.008
 9488TIP3    H178932   3.669   1.583   1.032
 9488TIP3    H278933   3.750   1.458   1.012
 9489TIP3   OH278934   3.318   0.984   0.958
 9489TIP3    H178935   3.323   0.967   0.864
 9489TIP3    H278936   3.403   1.027   0.976
 9490TIP3   OH278937   2.086   0.918   1.037
 9490TIP3    H178938   2.145   0.979   1.087
 9490TIP3    H278939   1.998   0.945   1.071
 9491TIP3   OH278940   3.284   1.314   1.048
 9491TIP3    H178941   3.313   1.283   1.133
 9491TIP3    H278942   3.188   1.314   1.057
 9492TIP3   OH278943   2.225   1.111   1.185
 9492TIP3    H178944   2.159   1.141   1.249
 9492TIP3    H278945   2.280   1.187   1.168
 9493TIP3   OH278946   2.119   0.639   0.987
 9493TIP3    H178947   2.119   0.733   1.016
 9493TIP3    H278948   2.027   0.622   0.974
 9494TIP3   OH278949   3.353   1.597   0.934
 9494TIP3    H178950   3.376   1.515   0.978
 9494TIP3    H278951   3.426   1.614   0.875
 9495TIP3   OH278952   2.441   1.185   0.921
 9495TIP3    H178953   2.452   1.104   0.971
 9495TIP3    H278954   2.512   1.175   0.853
 9496TIP3   OH278955   2.988   1.289   0.894
 9496TIP3    H178956   2.957   1.309   0.982
 9496TIP3    H278957   2.960   1.198   0.876
 9497TIP3   OH278958   3.604   1.047   0.921
 9497TIP3    H178959   3.581   1.007   0.835
 9497TIP3    H278960   3.607   1.142   0.898
 9498TIP3   OH278961   2.011   1.330   1.031
 9498TIP3    H178962   2.102   1.353   1.044
 9498TIP3    H278963   2.012   1.272   0.953
 9499TIP3   OH278964   3.717   0.928   1.139
 9499TIP3    H178965   3.667   0.966   1.064
 9499TIP3    H278966   3.711   0.997   1.206
 9500TIP3   OH278967   5.421   0.065   1.183
 9500TIP3    H178968   5.329   0.073   1.203
 9500TIP3    H278969   5.450   0.144   1.136
 9501TIP3   OH278970   5.544   1.495   1.004
 9501TIP3    H178971   5.555   1.587   1.033
 9501TIP3    H278972   5.635   1.463   1.014
 9502TIP3   OH278973   5.088   1.771   1.083
 9502TIP3    H178974   5.126   1.694   1.033
 9502TIP3    H278975   5.090   1.735   1.172
 9503TIP3   OH278976   4.315   0.692   1.076
 9503TIP3    H178977   4.257   0.656   1.006
 9503TIP3    H278978   4.395   0.715   1.029
 9504TIP3   OH278979   3.970   0.934   1.026
 9504TIP3    H178980   4.031   0.979   1.089
 9504TIP3    H278981   3.884   0.944   1.072
 9505TIP3   OH278982   5.611   1.762   1.069
 9505TIP3    H178983   5.686   1.823   1.059
 9505TIP3    H278984   5.541   1.822   1.102
 9506TIP3   OH278985   4.574   1.434   0.898
 9506TIP3    H178986   4.592   1.357   0.841
 9506TIP3    H278987   4.539   1.389   0.978
 9507TIP3   OH278988   4.464   1.385   1.144
 9507TIP3    H178989   4.484   1.332   1.222
 9507TIP3    H278990   4.474   1.474   1.178
 9508TIP3   OH278991   4.107   1.113   1.187
 9508TIP3    H178992   4.043   1.146   1.250
 9508TIP3    H278993   4.164   1.188   1.164
 9509TIP3   OH278994   4.735   1.554   1.219
 9509TIP3    H178995   4.657   1.609   1.222
 9509TIP3    H278996   4.791   1.604   1.157
 9510TIP3   OH278997   4.169   1.372   1.084
 9510TIP3    H178998   4.234   1.439   1.107
 9510TIP3    H278999   4.218   1.327   1.012
 9511TIP3   OH279000   4.781   1.617   0.912
 9511TIP3    H179001   4.711   1.552   0.935
 9511TIP3    H279002   4.852   1.558   0.885
 9512TIP3   OH279003   5.237   1.599   0.925
 9512TIP3    H179004   5.262   1.520   0.979
 9512TIP3    H279005   5.317   1.615   0.875
 9513TIP3   OH279006   4.325   1.188   0.912
 9513TIP3    H179007   4.337   1.112   0.973
 9513TIP3    H279008   4.400   1.176   0.851
 9514TIP3   OH279009   4.864   1.296   0.896
 9514TIP3    H179010   4.835   1.310   0.986
 9514TIP3    H279011   4.846   1.203   0.879
 9515TIP3   OH279012   4.442   0.987   1.146
 9515TIP3    H179013   4.399   0.938   1.218
 9515TIP3    H279014   4.469   0.916   1.084
 9516TIP3   OH279015   4.552   0.804   0.973
 9516TIP3    H179016   4.537   0.800   0.877
 9516TIP3    H279017   4.647   0.816   0.981
 9517TIP3   OH279018   3.893   1.344   1.022
 9517TIP3    H179019   3.987   1.348   1.050
 9517TIP3    H279020   3.898   1.271   0.957
 9518TIP3   OH279021   5.360   0.401   0.915
 9518TIP3    H179022   5.432   0.352   0.962
 9518TIP3    H279023   5.283   0.344   0.922
 9519TIP3   OH279024   5.559   0.300   1.049
 9519TIP3    H179025   5.603   0.216   1.021
 9519TIP3    H279026   5.642   0.345   1.073
 9520TIP3   OH279027   4.806   1.803   1.103
 9520TIP3    H179028   4.896   1.833   1.081
 9520TIP3    H279029   4.784   1.755   1.020
 9521TIP3   OH279030   7.425   1.504   0.994
 9521TIP3    H179031   7.445   1.590   1.036
 9521TIP3    H279032   7.512   1.460   1.015
 9522TIP3   OH279033   6.657   0.370   1.026
 9522TIP3    H179034   6.619   0.376   1.113
 9522TIP3    H279035   6.619   0.288   0.991
 9523TIP3   OH279036   6.336   0.416   0.920
 9523TIP3    H179037   6.289   0.384   1.001
 9523TIP3    H279038   6.262   0.460   0.878
 9524TIP3   OH279039   5.790   0.470   1.190
 9524TIP3    H179040   5.838   0.521   1.122
 9524TIP3    H279041   5.716   0.523   1.214
 9525TIP3   OH279042   6.919   0.432   1.083
 9525TIP3    H179043   6.823   0.447   1.073
 9525TIP3    H279044   6.949   0.515   1.123
 9526TIP3   OH279045   6.991   0.628   1.252
 9526TIP3    H179046   7.081   0.606   1.278
 9526TIP3    H279047   6.999   0.704   1.195
 9527TIP3   OH279048   7.482   0.639   1.227
 9527TIP3    H179049   7.426   0.604   1.155
 9527TIP3    H279050   7.483   0.731   1.198
 9528TIP3   OH279051   5.851   0.922   1.038
 9528TIP3    H179052   5.914   0.980   1.085
 9528TIP3    H279053   5.767   0.953   1.073
 9529TIP3   OH279054   7.494   1.758   1.069
 9529TIP3    H179055   7.571   1.819   1.064
 9529TIP3    H279056   7.429   1.821   1.103
 9530TIP3   OH279057   5.991   1.112   1.184
 9530TIP3    H179058   5.929   1.143   1.250
 9530TIP3    H279059   6.048   1.188   1.169
 9531TIP3   OH279060   6.218   0.379   1.139
 9531TIP3    H179061   6.211   0.434   1.217
 9531TIP3    H279062   6.292   0.327   1.173
 9532TIP3   OH279063   6.052   1.371   1.081
 9532TIP3    H179064   6.118   1.430   1.119
 9532TIP3    H279065   6.099   1.329   1.009
 9533TIP3   OH279066   5.886   0.640   1.002
 9533TIP3    H179067   5.888   0.737   1.014
 9533TIP3    H279068   5.800   0.622   0.964
 9534TIP3   OH279069   7.116   1.591   0.924
 9534TIP3    H179070   7.146   1.527   0.991
 9534TIP3    H279071   7.193   1.641   0.895
 9535TIP3   OH279072   6.440   0.807   0.972
 9535TIP3    H179073   6.423   0.793   0.878
 9535TIP3    H279074   6.535   0.820   0.978
 9536TIP3   OH279075   7.384   1.049   0.919
 9536TIP3    H179076   7.352   1.005   0.840
 9536TIP3    H279077   7.376   1.142   0.896
 9537TIP3   OH279078   6.429   1.875   1.074
 9537TIP3    H179079   6.522   1.893   1.091
 9537TIP3    H279080   6.402   1.944   1.013
 9538TIP3   OH279081   5.787   1.344   1.026
 9538TIP3    H179082   5.880   1.349   1.050
 9538TIP3    H279083   5.785   1.274   0.959
 9539TIP3   OH279084   7.436   0.937   1.176
 9539TIP3    H179085   7.435   0.962   1.080
 9539TIP3    H279086   7.490   1.009   1.211
 9540TIP3   OH279087   7.335   0.650   0.991
 9540TIP3    H179088   7.331   0.717   0.922
 9540TIP3    H279089   7.308   0.568   0.945
 9541TIP3   OH279090   7.249   0.398   0.907
 9541TIP3    H179091   7.312   0.353   0.966
 9541TIP3    H279092   7.166   0.349   0.925
 9542TIP3   OH279093   7.463   0.287   1.058
 9542TIP3    H179094   7.501   0.213   1.010
 9542TIP3    H279095   7.534   0.350   1.065
 9543TIP3   OH279096   5.758   0.195   1.157
 9543TIP3    H179097   5.834   0.150   1.117
 9543TIP3    H279098   5.750   0.142   1.234
 9544TIP3   OH279099   6.000   0.324   1.009
 9544TIP3    H179100   6.035   0.243   0.968
 9544TIP3    H279101   6.060   0.325   1.086
 9545TIP3   OH279102   5.984   1.772   0.965
 9545TIP3    H179103   5.962   1.802   1.054
 9545TIP3    H279104   6.066   1.721   0.979
 9546TIP3   OH279105   8.081   0.702   1.074
 9546TIP3    H179106   8.027   0.653   1.007
 9546TIP3    H279107   8.161   0.714   1.025
 9547TIP3   OH279108   7.764   0.801   1.140
 9547TIP3    H179109   7.809   0.863   1.079
 9547TIP3    H279110   7.699   0.875   1.140
 9548TIP3   OH279111   7.926   1.164   1.312
 9548TIP3    H179112   7.835   1.166   1.280
 9548TIP3    H279113   7.954   1.196   1.225
 9549TIP3   OH279114   8.043   1.475   1.051
 9549TIP3    H179115   8.001   1.453   1.136
 9549TIP3    H279116   8.019   1.383   1.014
 9550TIP3   OH279117   7.766   0.601   0.994
 9550TIP3    H179118   7.781   0.694   1.019
 9550TIP3    H279119   7.676   0.606   0.964
 9551TIP3   OH279120   8.069   1.282   0.917
 9551TIP3    H179121   8.117   1.208   0.961
 9551TIP3    H279122   8.114   1.257   0.833
 9552TIP3   OH279123   7.600   1.306   1.007
 9552TIP3    H179124   7.687   1.339   1.034
 9552TIP3    H279125   7.643   1.257   0.933
 9553TIP3   OH279126   7.876   1.778   0.963
 9553TIP3    H179127   7.846   1.801   1.051
 9553TIP3    H279128   7.949   1.714   0.976
 9554TIP3   OH279129   1.061   2.676   1.032
 9554TIP3    H179130   1.130   2.683   1.099
 9554TIP3    H279131   1.098   2.612   0.971
 9555TIP3   OH279132   1.288   2.765   1.191
 9555TIP3    H179133   1.343   2.789   1.266
 9555TIP3    H279134   1.328   2.817   1.118
 9556TIP3   OH279135   1.769   3.385   1.006
 9556TIP3    H179136   1.779   3.476   1.041
 9556TIP3    H279137   1.853   3.344   1.038
 9557TIP3   OH279138   1.433   2.868   0.966
 9557TIP3    H179139   1.432   2.852   0.869
 9557TIP3    H279140   1.515   2.917   0.975
 9558TIP3   OH279141   1.332   2.511   1.253
 9558TIP3    H179142   1.423   2.490   1.279
 9558TIP3    H279143   1.340   2.588   1.194
 9559TIP3   OH279144   1.083   3.185   1.166
 9559TIP3    H179145   1.059   3.266   1.210
 9559TIP3    H279146   1.016   3.120   1.192
 9560TIP3   OH279147   1.819   2.525   1.226
 9560TIP3    H179148   1.766   2.492   1.152
 9560TIP3    H279149   1.828   2.616   1.199
 9561TIP3   OH279150   1.843   3.645   1.066
 9561TIP3    H179151   1.920   3.708   1.062
 9561TIP3    H279152   1.779   3.708   1.102
 9562TIP3   OH279153   0.802   3.316   0.891
 9562TIP3    H179154   0.820   3.235   0.840
 9562TIP3    H279155   0.772   3.278   0.976
 9563TIP3   OH279156   0.696   3.272   1.141
 9563TIP3    H179157   0.711   3.220   1.220
 9563TIP3    H279158   0.698   3.361   1.175
 9564TIP3   OH279159   0.395   3.261   1.079
 9564TIP3    H179160   0.458   3.326   1.110
 9564TIP3    H279161   0.449   3.213   1.015
 9565TIP3   OH279162   1.088   3.183   0.887
 9565TIP3    H179163   1.077   3.193   0.983
 9565TIP3    H279164   1.077   3.086   0.877
 9566TIP3   OH279165   0.123   3.218   1.028
 9566TIP3    H179166   0.216   3.240   1.049
 9566TIP3    H279167   0.134   3.157   0.953
 9567TIP3   OH279168   1.672   2.535   0.992
 9567TIP3    H179169   1.679   2.601   0.922
 9567TIP3    H279170   1.651   2.453   0.942
 9568TIP3   OH279171   1.585   2.291   0.901
 9568TIP3    H179172   1.649   2.249   0.960
 9568TIP3    H279173   1.508   2.240   0.925
 9569TIP3   OH279174   0.334   3.657   0.959
 9569TIP3    H179175   0.302   3.678   1.050
 9569TIP3    H279176   0.410   3.599   0.976
 9570TIP3   OH279177   2.944   2.675   1.032
 9570TIP3    H179178   3.015   2.682   1.096
 9570TIP3    H279179   2.984   2.615   0.968
 9571TIP3   OH279180   3.320   2.868   0.963
 9571TIP3    H179181   3.318   2.850   0.867
 9571TIP3    H279182   3.404   2.914   0.976
 9572TIP3   OH279183   2.883   2.258   1.024
 9572TIP3    H179184   2.853   2.259   1.116
 9572TIP3    H279185   2.849   2.173   0.994
 9573TIP3   OH279186   3.148   2.323   1.077
 9573TIP3    H179187   3.052   2.329   1.075
 9573TIP3    H279188   3.176   2.402   1.127
 9574TIP3   OH279189   3.217   2.518   1.249
 9574TIP3    H179190   3.306   2.494   1.281
 9574TIP3    H279191   3.234   2.592   1.192
 9575TIP3   OH279192   2.584   3.270   1.141
 9575TIP3    H179193   2.596   3.218   1.222
 9575TIP3    H279194   2.581   3.359   1.176
 9576TIP3   OH279195   2.280   3.261   1.077
 9576TIP3    H179196   2.347   3.321   1.112
 9576TIP3    H279197   2.336   3.211   1.016
 9577TIP3   OH279198   2.683   2.689   0.962
 9577TIP3    H179199   2.662   2.682   0.869
 9577TIP3    H279200   2.778   2.705   0.973
 9578TIP3   OH279201   3.602   2.931   0.922
 9578TIP3    H179202   3.583   2.890   0.836
 9578TIP3    H279203   3.613   3.024   0.899
 9579TIP3   OH279204   2.013   3.236   1.006
 9579TIP3    H179205   2.101   3.236   1.053
 9579TIP3    H279206   2.019   3.148   0.966
 9580TIP3   OH279207   3.720   2.813   1.138
 9580TIP3    H179208   3.666   2.849   1.065
 9580TIP3    H279209   3.716   2.882   1.205
 9581TIP3   OH279210   3.552   2.538   0.994
 9581TIP3    H179211   3.567   2.601   0.923
 9581TIP3    H279212   3.539   2.454   0.946
 9582TIP3   OH279213   3.480   2.282   0.906
 9582TIP3    H179214   3.537   2.240   0.971
 9582TIP3    H279215   3.396   2.237   0.923
 9583TIP3   OH279216   2.046   1.972   1.168
 9583TIP3    H179217   2.093   2.035   1.115
 9583TIP3    H279218   1.984   2.023   1.219
 9584TIP3   OH279219   2.213   3.657   0.959
 9584TIP3    H179220   2.190   3.687   1.049
 9584TIP3    H279221   2.292   3.602   0.974
 9585TIP3   OH279222   4.835   2.677   1.016
 9585TIP3    H179223   4.892   2.688   1.095
 9585TIP3    H279224   4.875   2.605   0.969
 9586TIP3   OH279225   5.068   2.759   1.187
 9586TIP3    H179226   5.110   2.791   1.266
 9586TIP3    H279227   5.098   2.820   1.117
 9587TIP3   OH279228   5.431   1.945   1.181
 9587TIP3    H179229   5.337   1.953   1.202
 9587TIP3    H279230   5.451   2.030   1.137
 9588TIP3   OH279231   5.205   2.872   0.964
 9588TIP3    H179232   5.202   2.853   0.867
 9588TIP3    H279233   5.293   2.912   0.973
 9589TIP3   OH279234   4.763   2.261   1.020
 9589TIP3    H179235   4.732   2.263   1.112
 9589TIP3    H279236   4.734   2.173   0.994
 9590TIP3   OH279237   5.030   2.318   1.081
 9590TIP3    H179238   4.933   2.332   1.075
 9590TIP3    H279239   5.062   2.400   1.125
 9591TIP3   OH279240   5.105   2.508   1.248
 9591TIP3    H179241   5.195   2.493   1.278
 9591TIP3    H279242   5.111   2.591   1.196
 9592TIP3   OH279243   5.585   2.523   1.232
 9592TIP3    H179244   5.538   2.490   1.154
 9592TIP3    H279245   5.605   2.613   1.197
 9593TIP3   OH279246   3.972   2.810   1.036
 9593TIP3    H179247   4.031   2.870   1.087
 9593TIP3    H279248   3.883   2.831   1.072
 9594TIP3   OH279249   4.576   3.318   0.895
 9594TIP3    H179250   4.594   3.239   0.843
 9594TIP3    H279251   4.543   3.276   0.978
 9595TIP3   OH279252   4.455   3.270   1.143
 9595TIP3    H179253   4.488   3.219   1.220
 9595TIP3    H279254   4.472   3.362   1.174
 9596TIP3   OH279255   4.106   2.998   1.185
 9596TIP3    H179256   4.045   3.030   1.252
 9596TIP3    H279257   4.165   3.073   1.166
 9597TIP3   OH279258   4.470   3.543   1.217
 9597TIP3    H179259   4.489   3.623   1.163
 9597TIP3    H279260   4.456   3.580   1.304
 9598TIP3   OH279261   4.170   3.258   1.081
 9598TIP3    H179262   4.234   3.325   1.110
 9598TIP3    H279263   4.223   3.213   1.013
 9599TIP3   OH279264   4.322   3.067   0.911
 9599TIP3    H179265   4.343   2.996   0.975
 9599TIP3    H279266   4.400   3.060   0.853
 9600TIP3   OH279267   4.424   2.870   1.137
 9600TIP3    H179268   4.405   2.823   1.219
 9600TIP3    H279269   4.478   2.805   1.087
 9601TIP3   OH279270   4.553   2.697   0.972
 9601TIP3    H179271   4.540   2.686   0.876
 9601TIP3    H279272   4.649   2.703   0.986
 9602TIP3   OH279273   5.489   2.932   0.920
 9602TIP3    H179274   5.467   2.890   0.834
 9602TIP3    H279275   5.494   3.027   0.898
 9603TIP3   OH279276   4.541   3.763   1.077
 9603TIP3    H179277   4.636   3.777   1.088
 9603TIP3    H279278   4.517   3.828   1.012
 9604TIP3   OH279279   3.896   3.221   1.027
 9604TIP3    H179280   3.991   3.235   1.049
 9604TIP3    H279281   3.901   3.155   0.956
 9605TIP3   OH279282   5.601   2.809   1.139
 9605TIP3    H179283   5.555   2.851   1.064
 9605TIP3    H279284   5.605   2.879   1.206
 9606TIP3   OH279285   5.437   2.537   0.994
 9606TIP3    H179286   5.452   2.601   0.924
 9606TIP3    H279287   5.424   2.453   0.945
 9607TIP3   OH279288   5.364   2.280   0.904
 9607TIP3    H179289   5.425   2.240   0.969
 9607TIP3    H279290   5.280   2.238   0.926
 9608TIP3   OH279291   5.575   2.166   1.062
 9608TIP3    H179292   5.617   2.094   1.013
 9608TIP3    H279293   5.645   2.233   1.065
 9609TIP3   OH279294   4.103   3.662   0.961
 9609TIP3    H179295   4.077   3.683   1.051
 9609TIP3    H279296   4.180   3.603   0.976
 9610TIP3   OH279297   6.945   2.767   1.193
 9610TIP3    H179298   7.001   2.788   1.267
 9610TIP3    H279299   6.983   2.816   1.119
 9611TIP3   OH279300   7.431   3.380   1.007
 9611TIP3    H179301   7.440   3.472   1.032
 9611TIP3    H279302   7.523   3.348   1.012
 9612TIP3   OH279303   7.090   2.872   0.967
 9612TIP3    H179304   7.085   2.851   0.870
 9612TIP3    H279305   7.175   2.915   0.975
 9613TIP3   OH279306   6.915   2.315   1.082
 9613TIP3    H179307   6.822   2.336   1.076
 9613TIP3    H279308   6.947   2.398   1.123
 9614TIP3   OH279309   6.991   2.510   1.254
 9614TIP3    H179310   7.082   2.492   1.278
 9614TIP3    H279311   6.995   2.589   1.197
 9615TIP3   OH279312   6.467   3.309   0.905
 9615TIP3    H179313   6.477   3.237   0.841
 9615TIP3    H279314   6.427   3.270   0.982
 9616TIP3   OH279315   6.055   3.260   1.083
 9616TIP3    H179316   6.120   3.327   1.109
 9616TIP3    H279317   6.105   3.213   1.013
 9617TIP3   OH279318   6.216   3.072   0.922
 9617TIP3    H179319   6.224   2.992   0.971
 9617TIP3    H279320   6.282   3.064   0.850
 9618TIP3   OH279321   5.782   3.224   1.026
 9618TIP3    H179322   5.876   3.235   1.050
 9618TIP3    H279323   5.786   3.156   0.956
 9619TIP3   OH279324   5.993   3.662   0.959
 9619TIP3    H179325   5.960   3.686   1.048
 9619TIP3    H279326   6.063   3.598   0.981
 9620TIP3   OH279327   7.938   3.260   1.073
 9620TIP3    H179328   8.002   3.325   1.111
 9620TIP3    H279329   7.996   3.214   1.012
 9621TIP3   OH279330   7.667   3.226   1.027
 9621TIP3    H179331   7.763   3.238   1.050
 9621TIP3    H279332   7.672   3.160   0.955
 9622TIP3   OH279333   7.703   1.971   1.164
 9622TIP3    H179334   7.749   2.037   1.112
 9622TIP3    H279335   7.642   2.025   1.216
 9623TIP3   OH279336   1.060   4.561   1.043
 9623TIP3    H179337   1.131   4.565   1.112
 9623TIP3    H279338   1.089   4.483   0.994
 9624TIP3   OH279339   1.290   4.653   1.188
 9624TIP3    H179340   1.340   4.675   1.268
 9624TIP3    H279341   1.335   4.701   1.117
 9625TIP3   OH279342   1.432   4.757   0.964
 9625TIP3    H179343   1.433   4.736   0.868
 9625TIP3    H279344   1.521   4.793   0.976
 9626TIP3   OH279345   0.680   4.184   0.931
 9626TIP3    H179346   0.636   4.149   1.010
 9626TIP3    H279347   0.605   4.227   0.886
 9627TIP3   OH279348   0.219   4.239   1.253
 9627TIP3    H179349   0.219   4.267   1.160
 9627TIP3    H279350   0.119   4.241   1.248
 9628TIP3   OH279351   0.550   4.456   1.083
 9628TIP3    H179352   0.487   4.435   1.009
 9628TIP3    H279353   0.623   4.490   1.030
 9629TIP3   OH279354   1.334   4.393   1.251
 9629TIP3    H179355   1.424   4.375   1.282
 9629TIP3    H279356   1.342   4.471   1.195
 9630TIP3   OH279357   1.817   4.413   1.229
 9630TIP3    H179358   1.767   4.376   1.154
 9630TIP3    H279359   1.832   4.503   1.196
 9631TIP3   OH279360   0.574   4.097   1.177
 9631TIP3    H179361   0.563   4.187   1.210
 9631TIP3    H279362   0.667   4.080   1.195
 9632TIP3   OH279363   0.346   4.443   0.937
 9632TIP3    H179364   0.291   4.506   0.987
 9632TIP3    H279365   0.271   4.387   0.915
 9633TIP3   OH279366   0.781   4.582   0.974
 9633TIP3    H179367   0.764   4.568   0.880
 9633TIP3    H279368   0.876   4.588   0.985
 9634TIP3   OH279369   1.718   4.817   0.922
 9634TIP3    H179370   1.700   4.774   0.837
 9634TIP3    H279371   1.725   4.911   0.894
 9635TIP3   OH279372   1.834   4.698   1.140
 9635TIP3    H179373   1.784   4.732   1.063
 9635TIP3    H279374   1.833   4.768   1.205
 9636TIP3   OH279375   1.673   4.422   0.994
 9636TIP3    H179376   1.683   4.488   0.924
 9636TIP3    H279377   1.656   4.341   0.942
 9637TIP3   OH279378   1.597   4.163   0.905
 9637TIP3    H179379   1.657   4.125   0.970
 9637TIP3    H279380   1.512   4.122   0.927
 9638TIP3   OH279381   0.121   3.770   1.179
 9638TIP3    H179382   0.169   3.829   1.121
 9638TIP3    H279383   0.099   3.852   1.231
 9639TIP3   OH279384   0.404   4.135   0.970
 9639TIP3    H179385   0.400   4.041   0.940
 9639TIP3    H279386   0.410   4.111   1.066
 9640TIP3   OH279387   3.661   5.267   1.006
 9640TIP3    H179388   3.672   5.361   1.030
 9640TIP3    H279389   3.753   5.237   1.010
 9641TIP3   OH279390   3.202   5.543   1.082
 9641TIP3    H179391   3.236   5.467   1.033
 9641TIP3    H279392   3.201   5.511   1.173
 9642TIP3   OH279393   2.873   4.136   1.023
 9642TIP3    H179394   2.848   4.143   1.116
 9642TIP3    H279395   2.842   4.049   0.995
 9643TIP3   OH279396   2.010   4.229   1.176
 9643TIP3    H179397   2.064   4.293   1.125
 9643TIP3    H279398   1.943   4.289   1.216
 9644TIP3   OH279399   2.086   4.693   1.037
 9644TIP3    H179400   2.144   4.754   1.083
 9644TIP3    H279401   1.998   4.719   1.070
 9645TIP3   OH279402   3.722   5.529   1.066
 9645TIP3    H179403   3.797   5.589   1.064
 9645TIP3    H279404   3.655   5.591   1.103
 9646TIP3   OH279405   2.695   5.199   0.904
 9646TIP3    H179406   2.705   5.129   0.839
 9646TIP3    H279407   2.653   5.158   0.980
 9647TIP3   OH279408   2.276   5.154   1.066
 9647TIP3    H179409   2.340   5.211   1.109
 9647TIP3    H279410   2.329   5.097   1.009
 9648TIP3   OH279411   2.120   4.413   0.991
 9648TIP3    H179412   2.116   4.508   1.015
 9648TIP3    H279413   2.030   4.391   0.965
 9649TIP3   OH279414   2.891   5.386   0.913
 9649TIP3    H179415   2.825   5.321   0.936
 9649TIP3    H279416   2.967   5.338   0.881
 9650TIP3   OH279417   3.349   5.362   0.924
 9650TIP3    H179418   3.384   5.291   0.978
 9650TIP3    H279419   3.426   5.389   0.872
 9651TIP3   OH279420   2.451   4.962   0.923
 9651TIP3    H179421   2.444   4.877   0.969
 9651TIP3    H279422   2.507   4.944   0.846
 9652TIP3   OH279423   3.605   4.815   0.921
 9652TIP3    H179424   3.576   4.775   0.839
 9652TIP3    H279425   3.610   4.910   0.899
 9653TIP3   OH279426   3.478   4.160   0.902
 9653TIP3    H179427   3.541   4.129   0.969
 9653TIP3    H279428   3.395   4.121   0.927
 9654TIP3   OH279429   3.693   4.050   1.068
 9654TIP3    H179430   3.728   3.979   1.011
 9654TIP3    H279431   3.757   4.121   1.063
 9655TIP3   OH279432   2.042   3.856   1.164
 9655TIP3    H179433   2.092   3.922   1.112
 9655TIP3    H279434   1.987   3.914   1.216
 9656TIP3   OH279435   2.229   4.049   1.014
 9656TIP3    H179436   2.281   3.988   0.959
 9656TIP3    H279437   2.293   4.080   1.080
 9657TIP3   OH279438   2.206   5.518   0.970
 9657TIP3    H179439   2.190   5.566   1.051
 9657TIP3    H279440   2.298   5.486   0.977
 9658TIP3   OH279441   4.829   4.560   1.038
 9658TIP3    H179442   4.902   4.567   1.100
 9658TIP3    H279443   4.867   4.504   0.969
 9659TIP3   OH279444   5.030   4.210   1.077
 9659TIP3    H179445   4.936   4.222   1.073
 9659TIP3    H279446   5.062   4.291   1.121
 9660TIP3   OH279447   5.591   4.413   1.224
 9660TIP3    H179448   5.539   4.374   1.152
 9660TIP3    H279449   5.602   4.504   1.195
 9661TIP3   OH279450   4.580   5.199   0.902
 9661TIP3    H179451   4.594   5.125   0.840
 9661TIP3    H279452   4.534   5.158   0.978
 9662TIP3   OH279453   4.469   5.156   1.141
 9662TIP3    H179454   4.476   5.103   1.222
 9662TIP3    H279455   4.465   5.245   1.174
 9663TIP3   OH279456   4.764   5.389   0.913
 9663TIP3    H179457   4.701   5.319   0.936
 9663TIP3    H279458   4.839   5.335   0.883
 9664TIP3   OH279459   4.328   4.959   0.917
 9664TIP3    H179460   4.339   4.880   0.970
 9664TIP3    H279461   4.400   4.950   0.852
 9665TIP3   OH279462   4.866   5.066   0.893
 9665TIP3    H179463   4.833   5.079   0.982
 9665TIP3    H279464   4.845   4.972   0.873
 9666TIP3   OH279465   7.431   5.264   1.013
 9666TIP3    H179466   7.443   5.357   1.031
 9666TIP3    H279467   7.523   5.231   1.013
 9667TIP3   OH279468   6.968   5.544   1.083
 9667TIP3    H179469   7.008   5.469   1.033
 9667TIP3    H279470   6.973   5.508   1.173
 9668TIP3   OH279471   6.333   4.191   0.935
 9668TIP3    H179472   6.290   4.145   1.010
 9668TIP3    H279473   6.258   4.225   0.885
 9669TIP3   OH279474   5.784   4.232   1.178
 9669TIP3    H179475   5.836   4.295   1.125
 9669TIP3    H279476   5.717   4.291   1.217
 9670TIP3   OH279477   6.199   4.465   1.076
 9670TIP3    H179478   6.142   4.431   1.005
 9670TIP3    H279479   6.279   4.488   1.027
 9671TIP3   OH279480   6.465   5.204   0.897
 9671TIP3    H179481   6.478   5.125   0.842
 9671TIP3    H279482   6.427   5.161   0.977
 9672TIP3   OH279483   6.339   5.156   1.143
 9672TIP3    H179484   6.373   5.104   1.218
 9672TIP3    H279485   6.357   5.246   1.174
 9673TIP3   OH279486   6.004   4.881   1.197
 9673TIP3    H179487   5.927   4.914   1.244
 9673TIP3    H279488   6.049   4.959   1.161
 9674TIP3   OH279489   6.623   5.327   1.224
 9674TIP3    H179490   6.540   5.375   1.220
 9674TIP3    H279491   6.675   5.374   1.157
 9675TIP3   OH279492   6.365   5.431   1.216
 9675TIP3    H179493   6.371   5.512   1.160
 9675TIP3    H279494   6.343   5.465   1.304
 9676TIP3   OH279495   6.231   4.098   1.171
 9676TIP3    H179496   6.221   4.186   1.212
 9676TIP3    H279497   6.320   4.075   1.200
 9677TIP3   OH279498   6.055   5.146   1.081
 9677TIP3    H179499   6.122   5.209   1.110
 9677TIP3    H279500   6.106   5.097   1.014
 9678TIP3   OH279501   5.890   4.412   0.989
 9678TIP3    H179502   5.887   4.506   1.013
 9678TIP3    H279503   5.800   4.389   0.966
 9679TIP3   OH279504   6.665   5.391   0.909
 9679TIP3    H179505   6.598   5.324   0.937
 9679TIP3    H279506   6.740   5.333   0.888
 9680TIP3   OH279507   7.122   5.364   0.932
 9680TIP3    H179508   7.154   5.285   0.978
 9680TIP3    H279509   7.197   5.388   0.875
 9681TIP3   OH279510   6.209   4.958   0.913
 9681TIP3    H179511   6.225   4.882   0.972
 9681TIP3    H279512   6.286   4.948   0.853
 9682TIP3   OH279513   6.332   4.754   1.149
 9682TIP3    H179514   6.281   4.707   1.216
 9682TIP3    H279515   6.356   4.688   1.082
 9683TIP3   OH279516   6.439   4.576   0.974
 9683TIP3    H179517   6.419   4.571   0.878
 9683TIP3    H279518   6.534   4.592   0.975
 9684TIP3   OH279519   6.426   5.651   1.079
 9684TIP3    H179520   6.522   5.664   1.089
 9684TIP3    H279521   6.404   5.713   1.010
 9685TIP3   OH279522   7.461   4.046   1.065
 9685TIP3    H179523   7.501   3.977   1.011
 9685TIP3    H279524   7.526   4.117   1.066
 9686TIP3   OH279525   5.821   3.857   1.168
 9686TIP3    H179526   5.863   3.921   1.111
 9686TIP3    H279527   5.756   3.910   1.213
 9687TIP3   OH279528   6.005   4.054   1.009
 9687TIP3    H179529   6.054   3.984   0.963
 9687TIP3    H279530   6.063   4.076   1.085
 9688TIP3   OH279531   6.691   5.580   1.101
 9688TIP3    H179532   6.783   5.601   1.080
 9688TIP3    H279533   6.670   5.525   1.022
 9689TIP3   OH279534   5.983   5.546   0.962
 9689TIP3    H179535   5.961   5.569   1.053
 9689TIP3    H279536   6.063   5.490   0.974
 9690TIP3   OH279537   7.742   4.692   1.039
 9690TIP3    H179538   7.804   4.753   1.086
 9690TIP3    H279539   7.657   4.724   1.070
 9691TIP3   OH279540   7.878   4.883   1.187
 9691TIP3    H179541   7.815   4.915   1.251
 9691TIP3    H279542   7.933   4.959   1.165
 9692TIP3   OH279543   7.942   5.144   1.081
 9692TIP3    H179544   8.004   5.211   1.109
 9692TIP3    H279545   7.991   5.099   1.009
 9693TIP3   OH279546   8.089   4.948   0.911
 9693TIP3    H179547   8.111   4.880   0.975
 9693TIP3    H279548   8.169   4.948   0.856
 9694TIP3   OH279549   7.672   5.115   1.023
 9694TIP3    H179550   7.766   5.121   1.049
 9694TIP3    H279551   7.673   5.043   0.956
 9695TIP3   OH279552   7.877   5.541   0.959
 9695TIP3    H179553   7.847   5.571   1.047
 9695TIP3    H279554   7.952   5.485   0.979
 9696TIP3   OH279555   1.289   6.538   1.190
 9696TIP3    H179556   1.341   6.559   1.267
 9696TIP3    H279557   1.330   6.588   1.117
 9697TIP3   OH279558   1.315   7.428   1.080
 9697TIP3    H179559   1.357   7.353   1.033
 9697TIP3    H279560   1.318   7.397   1.172
 9698TIP3   OH279561   1.432   6.643   0.965
 9698TIP3    H179562   1.431   6.621   0.869
 9698TIP3    H279563   1.519   6.684   0.974
 9699TIP3   OH279564   0.990   6.030   1.024
 9699TIP3    H179565   0.968   6.033   1.117
 9699TIP3    H279566   0.959   5.944   0.995
 9700TIP3   OH279567   0.680   6.070   0.930
 9700TIP3    H179568   0.635   6.030   1.008
 9700TIP3    H279569   0.607   6.109   0.883
 9701TIP3   OH279570   1.334   6.278   1.251
 9701TIP3    H179571   1.424   6.261   1.278
 9701TIP3    H279572   1.336   6.357   1.194
 9702TIP3   OH279573   1.084   6.953   1.164
 9702TIP3    H179574   1.055   7.036   1.207
 9702TIP3    H279575   1.016   6.891   1.194
 9703TIP3   OH279576   1.823   6.297   1.231
 9703TIP3    H179577   1.769   6.262   1.157
 9703TIP3    H279578   1.833   6.388   1.195
 9704TIP3   OH279579   1.396   6.978   1.050
 9704TIP3    H179580   1.425   6.942   1.134
 9704TIP3    H279581   1.299   6.966   1.058
 9705TIP3   OH279582   0.971   7.213   1.220
 9705TIP3    H179583   0.884   7.259   1.219
 9705TIP3    H279584   1.020   7.265   1.154
 9706TIP3   OH279585   0.716   7.316   1.218
 9706TIP3    H179586   0.712   7.396   1.160
 9706TIP3    H279587   0.681   7.351   1.301
 9707TIP3   OH279588   0.578   5.993   1.164
 9707TIP3    H179589   0.565   6.070   1.220
 9707TIP3    H279590   0.660   5.957   1.202
 9708TIP3   OH279591   1.005   7.274   0.905
 9708TIP3    H179592   0.944   7.209   0.943
 9708TIP3    H279593   1.081   7.216   0.885
 9709TIP3   OH279594   1.462   7.250   0.932
 9709TIP3    H179595   1.492   7.172   0.980
 9709TIP3    H279596   1.537   7.272   0.872
 9710TIP3   OH279597   1.096   6.955   0.891
 9710TIP3    H179598   1.075   6.963   0.987
 9710TIP3    H279599   1.079   6.859   0.876
 9711TIP3   OH279600   1.717   6.702   0.921
 9711TIP3    H179601   1.698   6.661   0.835
 9711TIP3    H279602   1.727   6.797   0.895
 9712TIP3   OH279603   0.772   7.541   1.084
 9712TIP3    H179604   0.869   7.551   1.086
 9712TIP3    H279605   0.749   7.602   1.012
 9713TIP3   OH279606   0.133   7.010   1.021
 9713TIP3    H179607   0.223   7.005   1.055
 9713TIP3    H279608   0.136   6.934   0.960
 9714TIP3   OH279609   1.828   6.576   1.142
 9714TIP3    H179610   1.787   6.618   1.063
 9714TIP3    H279611   1.834   6.652   1.201
 9715TIP3   OH279612   1.674   6.309   0.993
 9715TIP3    H179613   1.677   6.374   0.921
 9715TIP3    H279614   1.650   6.225   0.947
 9716TIP3   OH279615   1.592   6.054   0.904
 9716TIP3    H179616   1.652   6.011   0.969
 9716TIP3    H279617   1.510   6.006   0.927
 9717TIP3   OH279618   1.799   5.943   1.060
 9717TIP3    H179619   1.839   5.864   1.016
 9717TIP3    H279620   1.875   6.001   1.067
 9718TIP3   OH279621   1.034   7.459   1.102
 9718TIP3    H179622   1.125   7.488   1.082
 9718TIP3    H279623   1.015   7.409   1.019
 9719TIP3   OH279624   0.323   7.419   0.964
 9719TIP3    H179625   0.309   7.463   1.050
 9719TIP3    H279626   0.410   7.374   0.978
 9720TIP3   OH279627   2.941   6.441   1.038
 9720TIP3    H179628   3.017   6.458   1.097
 9720TIP3    H279629   2.982   6.385   0.971
 9721TIP3   OH279630   3.171   6.535   1.191
 9721TIP3    H179631   3.226   6.555   1.267
 9721TIP3    H279632   3.212   6.586   1.119
 9722TIP3   OH279633   3.543   5.716   1.182
 9722TIP3    H179634   3.449   5.723   1.203
 9722TIP3    H279635   3.561   5.799   1.138
 9723TIP3   OH279636   3.330   6.628   0.966
 9723TIP3    H179637   3.312   6.629   0.869
 9723TIP3    H279638   3.401   6.691   0.978
 9724TIP3   OH279639   2.966   6.955   1.164
 9724TIP3    H179640   2.940   7.038   1.208
 9724TIP3    H279641   2.901   6.891   1.194
 9725TIP3   OH279642   3.706   6.297   1.228
 9725TIP3    H179643   3.651   6.262   1.156
 9725TIP3    H279644   3.719   6.389   1.197
 9726TIP3   OH279645   2.857   7.214   1.219
 9726TIP3    H179646   2.774   7.264   1.222
 9726TIP3    H279647   2.909   7.265   1.155
 9727TIP3   OH279648   2.119   6.299   0.984
 9727TIP3    H179649   2.115   6.389   1.017
 9727TIP3    H279650   2.026   6.276   0.972
 9728TIP3   OH279651   2.891   7.273   0.903
 9728TIP3    H179652   2.828   7.209   0.940
 9728TIP3    H279653   2.966   7.213   0.889
 9729TIP3   OH279654   2.445   6.845   0.918
 9729TIP3    H179655   2.456   6.765   0.970
 9729TIP3    H279656   2.514   6.833   0.850
 9730TIP3   OH279657   2.978   6.955   0.887
 9730TIP3    H179658   2.962   6.961   0.983
 9730TIP3    H279659   2.962   6.859   0.874
 9731TIP3   OH279660   2.560   6.643   1.147
 9731TIP3    H179661   2.513   6.596   1.216
 9731TIP3    H279662   2.587   6.576   1.084
 9732TIP3   OH279663   3.598   6.700   0.918
 9732TIP3    H179664   3.583   6.669   0.829
 9732TIP3    H279665   3.617   6.794   0.902
 9733TIP3   OH279666   3.714   6.581   1.138
 9733TIP3    H179667   3.666   6.623   1.065
 9733TIP3    H279668   3.716   6.650   1.206
 9734TIP3   OH279669   3.553   6.308   0.996
 9734TIP3    H179670   3.579   6.368   0.930
 9734TIP3    H279671   3.540   6.221   0.950
 9735TIP3   OH279672   3.478   6.054   0.906
 9735TIP3    H179673   3.538   6.012   0.969
 9735TIP3    H279674   3.397   6.006   0.927
 9736TIP3   OH279675   2.926   7.452   1.105
 9736TIP3    H179676   3.009   7.494   1.083
 9736TIP3    H279677   2.898   7.415   1.019
 9737TIP3   OH279678   4.825   6.446   1.035
 9737TIP3    H179679   4.901   6.453   1.094
 9737TIP3    H279680   4.864   6.386   0.969
 9738TIP3   OH279681   5.427   5.716   1.180
 9738TIP3    H179682   5.335   5.724   1.205
 9738TIP3    H279683   5.449   5.801   1.138
 9739TIP3   OH279684   4.761   6.031   1.021
 9739TIP3    H179685   4.733   6.033   1.114
 9739TIP3    H279686   4.734   5.942   0.996
 9740TIP3   OH279687   3.898   6.115   1.179
 9740TIP3    H179688   3.946   6.182   1.130
 9740TIP3    H279689   3.832   6.174   1.219
 9741TIP3   OH279690   5.032   6.085   1.084
 9741TIP3    H179691   4.937   6.102   1.072
 9741TIP3    H279692   5.064   6.170   1.119
 9742TIP3   OH279693   5.103   6.291   1.252
 9742TIP3    H179694   5.193   6.264   1.278
 9742TIP3    H279695   5.118   6.361   1.189
 9743TIP3   OH279696   5.587   6.299   1.231
 9743TIP3    H179697   5.539   6.262   1.154
 9743TIP3    H279698   5.606   6.388   1.195
 9744TIP3   OH279699   3.969   6.579   1.035
 9744TIP3    H179700   4.030   6.636   1.087
 9744TIP3    H279701   3.883   6.605   1.072
 9745TIP3   OH279702   5.613   7.423   1.070
 9745TIP3    H179703   5.687   7.483   1.059
 9745TIP3    H279704   5.544   7.481   1.103
 9746TIP3   OH279705   4.110   6.767   1.191
 9746TIP3    H179706   4.045   6.805   1.250
 9746TIP3    H279707   4.163   6.845   1.164
 9747TIP3   OH279708   4.466   7.320   1.217
 9747TIP3    H179709   4.487   7.396   1.160
 9747TIP3    H279710   4.454   7.354   1.304
 9748TIP3   OH279711   4.176   7.026   1.085
 9748TIP3    H179712   4.235   7.099   1.111
 9748TIP3    H279713   4.224   6.984   1.012
 9749TIP3   OH279714   4.321   6.836   0.913
 9749TIP3    H179715   4.345   6.764   0.973
 9749TIP3    H279716   4.400   6.833   0.854
 9750TIP3   OH279717   4.442   6.642   1.145
 9750TIP3    H179718   4.401   6.596   1.219
 9750TIP3    H279719   4.472   6.573   1.084
 9751TIP3   OH279720   4.552   6.460   0.974
 9751TIP3    H179721   4.539   6.458   0.877
 9751TIP3    H279722   4.649   6.475   0.980
 9752TIP3   OH279723   4.543   7.544   1.082
 9752TIP3    H179724   4.639   7.547   1.083
 9752TIP3    H279725   4.521   7.603   1.008
 9753TIP3   OH279726   5.601   6.584   1.140
 9753TIP3    H179727   5.555   6.623   1.065
 9753TIP3    H279728   5.606   6.655   1.205
 9754TIP3   OH279729   5.439   6.308   0.994
 9754TIP3    H179730   5.450   6.372   0.923
 9754TIP3    H279731   5.424   6.225   0.945
 9755TIP3   OH279732   5.366   6.052   0.904
 9755TIP3    H179733   5.426   6.012   0.970
 9755TIP3    H279734   5.282   6.009   0.926
 9756TIP3   OH279735   5.574   5.939   1.060
 9756TIP3    H179736   5.616   5.864   1.014
 9756TIP3    H279737   5.645   6.004   1.066
 9757TIP3   OH279738   7.489   7.333   1.044
 9757TIP3    H179739   7.559   7.400   1.032
 9757TIP3    H279740   7.432   7.403   1.092
 9758TIP3   OH279741   6.459   7.090   0.892
 9758TIP3    H179742   6.478   7.011   0.841
 9758TIP3    H279743   6.428   7.054   0.978
 9759TIP3   OH279744   6.357   7.044   1.140
 9759TIP3    H179745   6.365   6.997   1.224
 9759TIP3    H279746   6.355   7.137   1.172
 9760TIP3   OH279747   6.355   7.316   1.214
 9760TIP3    H179748   6.378   7.396   1.165
 9760TIP3    H279749   6.343   7.348   1.305
 9761TIP3   OH279750   6.051   7.041   1.075
 9761TIP3    H179751   6.120   7.097   1.109
 9761TIP3    H279752   6.103   6.984   1.015
 9762TIP3   OH279753   6.212   6.840   0.908
 9762TIP3    H179754   6.221   6.768   0.970
 9762TIP3    H279755   6.286   6.832   0.847
 9763TIP3   OH279756   8.083   6.358   1.072
 9763TIP3    H179757   8.028   6.314   1.005
 9763TIP3    H279758   8.166   6.368   1.027
 9764TIP3   OH279759   7.882   6.765   1.198
 9764TIP3    H179760   7.813   6.793   1.259
 9764TIP3    H279761   7.936   6.844   1.193
 9765TIP3   OH279762  -0.023   5.987   1.173
 9765TIP3    H179763  -0.036   6.074   1.212
 9765TIP3    H279764   0.065   5.961   1.201
 9766TIP3   OH279765   7.947   7.041   1.078
 9766TIP3    H179766   8.002   7.109   1.120
 9766TIP3    H279767   8.001   7.006   1.007
 9767TIP3   OH279768   8.081   6.846   0.925
 9767TIP3    H179769   8.109   6.766   0.973
 9767TIP3    H279770   8.158   6.838   0.863
 9768TIP3   OH279771   7.671   6.995   1.026
 9768TIP3    H179772   7.762   7.016   1.050
 9768TIP3    H279773   7.670   6.933   0.951
 9769TIP3   OH279774   7.889   5.939   1.009
 9769TIP3    H179775   7.939   5.871   0.962
 9769TIP3    H279776   7.951   5.962   1.081
 9770TIP3   OH279777   7.886   7.428   0.968
 9770TIP3    H179778   7.851   7.444   1.057
 9770TIP3    H279779   7.957   7.369   0.986
 9771TIP3   OH279780   0.977   7.908   1.011
 9771TIP3    H179781   0.966   7.917   1.107
 9771TIP3    H279782   0.955   7.818   0.989
 9772TIP3   OH279783   0.677   7.961   0.933
 9772TIP3    H179784   0.632   7.919   1.009
 9772TIP3    H279785   0.602   7.997   0.884
 9773TIP3   OH279786   0.188   8.016   1.202
 9773TIP3    H179787   0.195   8.069   1.121
 9773TIP3    H279788   0.102   8.059   1.219
 9774TIP3   OH279789   1.318   7.947   1.065
 9774TIP3    H179790   1.221   7.946   1.044
 9774TIP3    H279791   1.322   8.033   1.110
 9775TIP3   OH279792   0.574   7.872   1.172
 9775TIP3    H179793   0.565   7.959   1.214
 9775TIP3    H279794   0.662   7.845   1.201
 9776TIP3   OH279795   1.585   7.913   0.862
 9776TIP3    H179796   1.640   7.901   0.939
 9776TIP3    H279797   1.500   7.901   0.908
 9777TIP3   OH279798   1.898   7.782   1.059
 9777TIP3    H179799   1.836   7.733   1.000
 9777TIP3    H279800   1.858   7.869   1.078
 9778TIP3   OH279801   0.241   7.662   1.140
 9778TIP3    H179802   0.215   7.723   1.069
 9778TIP3    H279803   0.168   7.686   1.200
 9779TIP3   OH279804   0.362   7.840   0.998
 9779TIP3    H179805   0.393   7.755   0.963
 9779TIP3    H279806   0.407   7.844   1.084
 9780TIP3   OH279807   2.879   7.916   1.030
 9780TIP3    H179808   2.844   7.913   1.119
 9780TIP3    H279809   2.845   7.832   0.994
 9781TIP3   OH279810   2.006   8.008   1.170
 9781TIP3    H179811   2.064   8.074   1.133
 9781TIP3    H279812   1.945   8.064   1.221
 9782TIP3   OH279813   3.150   7.976   1.085
 9782TIP3    H179814   3.053   7.985   1.073
 9782TIP3    H279815   3.177   8.061   1.120
 9783TIP3   OH279816   3.479   7.942   0.912
 9783TIP3    H179817   3.539   7.895   0.969
 9783TIP3    H279818   3.394   7.894   0.921
 9784TIP3   OH279819   4.771   7.915   1.028
 9784TIP3    H179820   4.735   7.915   1.116
 9784TIP3    H279821   4.732   7.834   0.991
 9785TIP3   OH279822   4.502   7.989   0.948
 9785TIP3    H179823   4.447   7.927   1.005
 9785TIP3    H279824   4.427   8.007   0.886
 9786TIP3   OH279825   3.883   7.937   1.201
 9786TIP3    H179826   3.942   7.997   1.151
 9786TIP3    H279827   3.829   8.012   1.231
 9787TIP3   OH279828   5.036   7.978   1.086
 9787TIP3    H179829   4.939   7.987   1.070
 9787TIP3    H279830   5.064   8.062   1.120
 9788TIP3   OH279831   4.415   7.859   1.142
 9788TIP3    H179832   4.354   7.920   1.192
 9788TIP3    H279833   4.461   7.831   1.221
 9789TIP3   OH279834   5.364   7.928   0.899
 9789TIP3    H179835   5.423   7.903   0.970
 9789TIP3    H279836   5.278   7.894   0.926
 9790TIP3   OH279837   4.007   7.705   1.064
 9790TIP3    H179838   4.074   7.715   0.989
 9790TIP3    H279839   4.075   7.766   1.109
 9791TIP3   OH279840   7.297   7.597   1.191
 9791TIP3    H179841   7.206   7.618   1.207
 9791TIP3    H279842   7.328   7.680   1.148
 9792TIP3   OH279843   6.915   7.976   1.082
 9792TIP3    H179844   6.821   7.992   1.072
 9792TIP3    H279845   6.948   8.059   1.119
 9793TIP3   OH279846   7.237   7.942   0.888
 9793TIP3    H179847   7.298   7.907   0.956
 9793TIP3    H279848   7.161   7.894   0.921
 9794TIP3   OH279849   7.363   7.830   1.064
 9794TIP3    H179850   7.439   7.777   1.039
 9794TIP3    H279851   7.440   7.882   1.094
 9795TIP3   OH279852   7.749   8.064   1.197
 9795TIP3    H179853   7.722   8.070   1.105
 9795TIP3    H279854   7.661   8.068   1.242
 9796TIP3   OH279855   0.071   7.858   1.056
 9796TIP3    H179856   0.016   7.925   1.106
 9796TIP3    H279857   0.098   7.841   1.149
 9797TIP3   OH279858   7.741   7.598   1.247
 9797TIP3    H179859   7.778   7.661   1.181
 9797TIP3    H279860   7.657   7.648   1.250
 9798TIP3   OH279861   7.972   7.758   1.080
 9798TIP3    H179862   7.962   7.757   0.984
 9798TIP3    H279863   7.961   7.857   1.084
 9799TIP3   OH279864   1.190   1.019   1.948
 9799TIP3    H179865   1.192   1.117   1.939
 9799TIP3    H279866   1.121   0.994   1.884
 9800TIP3   OH279867   1.077   0.946   2.295
 9800TIP3    H179868   1.077   0.880   2.366
 9800TIP3    H279869   1.042   0.896   2.219
 9801TIP3   OH279870   1.447   1.235   2.125
 9801TIP3    H179871   1.400   1.165   2.172
 9801TIP3    H279872   1.446   1.310   2.185
 9802TIP3   OH279873   0.404   1.354   2.302
 9802TIP3    H179874   0.374   1.271   2.265
 9802TIP3    H279875   0.501   1.341   2.303
 9803TIP3   OH279876   0.913   1.186   2.338
 9803TIP3    H179877   0.947   1.120   2.276
 9803TIP3    H279878   0.990   1.202   2.393
 9804TIP3   OH279879   0.543   0.442   2.093
 9804TIP3    H179880   0.551   0.527   2.046
 9804TIP3    H279881   0.502   0.383   2.025
 9805TIP3   OH279882   1.314   0.450   1.931
 9805TIP3    H179883   1.378   0.418   1.996
 9805TIP3    H279884   1.372   0.501   1.873
 9806TIP3   OH279885   0.720   0.839   2.096
 9806TIP3    H179886   0.786   0.780   2.139
 9806TIP3    H279887   0.667   0.771   2.049
 9807TIP3   OH279888   0.434   0.331   2.497
 9807TIP3    H179889   0.403   0.386   2.421
 9807TIP3    H279890   0.367   0.352   2.567
 9808TIP3   OH279891   1.152   1.277   1.856
 9808TIP3    H179892   1.137   1.253   1.764
 9808TIP3    H279893   1.134   1.372   1.855
 9809TIP3   OH279894   0.683   1.095   2.525
 9809TIP3    H179895   0.612   1.160   2.544
 9809TIP3    H279896   0.754   1.154   2.496
 9810TIP3   OH279897   0.390   0.512   2.308
 9810TIP3    H179898   0.445   0.589   2.328
 9810TIP3    H279899   0.436   0.477   2.228
 9811TIP3   OH279900   0.526   1.294   2.602
 9811TIP3    H179901   0.526   1.387   2.571
 9811TIP3    H279902   0.438   1.288   2.648
 9812TIP3   OH279903   0.817   0.064   2.221
 9812TIP3    H179904   0.821  -0.029   2.243
 9812TIP3    H279905   0.745   0.097   2.276
 9813TIP3   OH279906   1.444   1.391   1.871
 9813TIP3    H179907   1.413   1.324   1.808
 9813TIP3    H279908   1.447   1.343   1.954
 9814TIP3   OH279909   1.604   1.255   2.717
 9814TIP3    H179910   1.621   1.187   2.648
 9814TIP3    H279911   1.631   1.337   2.675
 9815TIP3   OH279912   1.053   0.948   1.696
 9815TIP3    H179913   0.986   1.003   1.652
 9815TIP3    H279914   1.126   0.951   1.630
 9816TIP3   OH279915   1.060   0.796   1.403
 9816TIP3    H179916   1.134   0.797   1.465
 9816TIP3    H279917   1.094   0.731   1.339
 9817TIP3   OH279918   1.799   0.885   2.525
 9817TIP3    H179919   1.727   0.951   2.530
 9817TIP3    H279920   1.844   0.908   2.442
 9818TIP3   OH279921   1.400   0.964   1.788
 9818TIP3    H179922   1.327   0.988   1.849
 9818TIP3    H279923   1.447   0.897   1.839
 9819TIP3   OH279924   0.562   1.033   1.974
 9819TIP3    H179925   0.524   0.989   1.896
 9819TIP3    H279926   0.617   0.962   2.015
 9820TIP3   OH279927   0.694   1.372   2.248
 9820TIP3    H179928   0.691   1.318   2.169
 9820TIP3    H279929   0.772   1.335   2.293
 9821TIP3   OH279930   0.596   0.905   2.344
 9821TIP3    H179931   0.650   0.915   2.264
 9821TIP3    H279932   0.633   0.971   2.406
 9822TIP3   OH279933   0.689   1.345   2.815
 9822TIP3    H179934   0.654   1.424   2.860
 9822TIP3    H279935   0.626   1.331   2.742
 9823TIP3   OH279936   1.284   0.884   1.558
 9823TIP3    H179937   1.343   0.900   1.635
 9823TIP3    H279938   1.325   0.934   1.486
 9824TIP3   OH279939   0.513   1.552   2.892
 9824TIP3    H179940   0.509   1.544   2.796
 9824TIP3    H279941   0.419   1.543   2.917
 9825TIP3   OH279942   0.464   0.933   1.733
 9825TIP3    H179943   0.430   1.011   1.688
 9825TIP3    H279944   0.393   0.868   1.721
 9826TIP3   OH279945   1.870   1.518   2.879
 9826TIP3    H179946   1.856   1.423   2.873
 9826TIP3    H279947   1.783   1.544   2.917
 9827TIP3   OH279948   0.373   1.732   1.922
 9827TIP3    H179949   0.384   1.698   2.013
 9827TIP3    H279950   0.286   1.696   1.902
 9828TIP3   OH279951   1.584   0.667   2.925
 9828TIP3    H179952   1.535   0.712   2.855
 9828TIP3    H279953   1.575   0.575   2.897
 9829TIP3   OH279954   0.290   1.308   2.721
 9829TIP3    H179955   0.314   1.271   2.809
 9829TIP3    H279956   0.204   1.267   2.711
 9830TIP3   OH279957   0.564   0.150   2.321
 9830TIP3    H179958   0.474   0.150   2.281
 9830TIP3    H279959   0.557   0.235   2.368
 9831TIP3   OH279960   1.032   0.170   2.674
 9831TIP3    H179961   1.081   0.101   2.716
 9831TIP3    H279962   0.947   0.129   2.648
 9832TIP3   OH279963   0.992   0.373   1.393
 9832TIP3    H179964   0.963   0.371   1.485
 9832TIP3    H279965   0.964   0.286   1.361
 9833TIP3   OH279966   0.572   0.665   1.932
 9833TIP3    H179967   0.478   0.641   1.918
 9833TIP3    H279968   0.609   0.635   1.847
 9834TIP3   OH279969   1.125   0.713   1.810
 9834TIP3    H179970   1.080   0.794   1.776
 9834TIP3    H279971   1.189   0.699   1.739
 9835TIP3   OH279972   1.028   0.734   2.952
 9835TIP3    H179973   0.976   0.655   2.981
 9835TIP3    H279974   1.113   0.721   2.998
 9836TIP3   OH279975   1.230   0.661   2.090
 9836TIP3    H179976   1.197   0.718   2.019
 9836TIP3    H279977   1.233   0.575   2.044
 9837TIP3   OH279978   0.054   0.391   1.957
 9837TIP3    H179979   0.072   0.373   2.052
 9837TIP3    H279980   0.083   0.313   1.909
 9838TIP3   OH279981   0.152   0.473   1.571
 9838TIP3    H179982   0.181   0.519   1.488
 9838TIP3    H279983   0.068   0.524   1.573
 9839TIP3   OH279984   1.143   0.819   2.544
 9839TIP3    H179985   1.188   0.752   2.492
 9839TIP3    H279986   1.102   0.767   2.616
 9840TIP3   OH279987   0.824   0.426   2.032
 9840TIP3    H179988   0.733   0.419   2.066
 9840TIP3    H279989   0.876   0.399   2.111
 9841TIP3   OH279990   0.310   0.576   1.910
 9841TIP3    H179991   0.217   0.585   1.887
 9841TIP3    H279992   0.334   0.488   1.877
 9842TIP3   OH279993   0.669   0.577   1.680
 9842TIP3    H179994   0.764   0.590   1.700
 9842TIP3    H279995   0.649   0.644   1.613
 9843TIP3   OH279996   0.542   0.693   1.440
 9843TIP3    H179997   0.489   0.660   1.367
 9843TIP3    H279998   0.623   0.718   1.394
 9844TIP3   OH279999   1.588   1.908   2.993
 9844TIP3    H180000   1.614   1.944   2.905
 9844TIP3    H280001   1.661   1.939   3.050
 9845TIP3   OH280002   0.355   1.156   2.945
 9845TIP3    H180003   0.427   1.176   3.008
 9845TIP3    H280004   0.277   1.159   3.001
 9846TIP3   OH280005   0.954   0.694   2.221
 9846TIP3    H180006   1.014   0.640   2.169
 9846TIP3    H280007   0.940   0.637   2.298
 9847TIP3   OH280008   0.455   0.311   1.864
 9847TIP3    H180009   0.425   0.219   1.863
 9847TIP3    H280010   0.535   0.305   1.810
 9848TIP3   OH280011   0.814   0.529   2.463
 9848TIP3    H180012   0.735   0.580   2.476
 9848TIP3    H280013   0.875   0.558   2.534
 9849TIP3   OH280014   0.873   1.155   1.632
 9849TIP3    H180015   0.807   1.092   1.596
 9849TIP3    H280016   0.867   1.151   1.730
 9850TIP3   OH280017   1.592   1.076   2.513
 9850TIP3    H180018   1.653   1.114   2.447
 9850TIP3    H280019   1.506   1.073   2.467
 9851TIP3   OH280020   1.024   1.175   2.758
 9851TIP3    H180021   0.989   1.133   2.837
 9851TIP3    H280022   1.002   1.267   2.770
 9852TIP3   OH280023   0.787   0.882   2.957
 9852TIP3    H180024   0.756   0.857   2.869
 9852TIP3    H280025   0.881   0.854   2.955
 9853TIP3   OH280026   1.823   1.223   2.872
 9853TIP3    H180027   1.734   1.244   2.835
 9853TIP3    H280028   1.877   1.218   2.790
 9854TIP3   OH280029   1.372   1.006   2.332
 9854TIP3    H180030   1.278   0.980   2.333
 9854TIP3    H280031   1.413   0.923   2.306
 9855TIP3   OH280032   0.623   1.429   1.940
 9855TIP3    H180033   0.673   1.513   1.930
 9855TIP3    H280034   0.533   1.462   1.923
 9856TIP3   OH280035   0.759   1.203   1.892
 9856TIP3    H180036   0.739   1.295   1.919
 9856TIP3    H280037   0.696   1.153   1.949
 9857TIP3   OH280038   0.811   1.618   2.544
 9857TIP3    H180039   0.852   1.701   2.516
 9857TIP3    H280040   0.868   1.587   2.615
 9858TIP3   OH280041   0.635   1.698   1.863
 9858TIP3    H180042   0.538   1.713   1.871
 9858TIP3    H280043   0.668   1.785   1.893
 9859TIP3   OH280044   0.259   0.393   2.704
 9859TIP3    H180045   0.176   0.435   2.728
 9859TIP3    H280046   0.248   0.305   2.744
 9860TIP3   OH280047   1.475   1.185   1.637
 9860TIP3    H180048   1.450   1.109   1.692
 9860TIP3    H280049   1.568   1.197   1.658
 9861TIP3   OH280050   0.209   1.575   2.538
 9861TIP3    H180051   0.247   1.487   2.538
 9861TIP3    H280052   0.242   1.611   2.622
 9862TIP3   OH280053   0.688   1.399   1.498
 9862TIP3    H180054   0.734   1.353   1.566
 9862TIP3    H280055   0.691   1.492   1.529
 9863TIP3   OH280056   1.125   0.400   2.620
 9863TIP3    H180057   1.205   0.377   2.664
 9863TIP3    H280058   1.090   0.309   2.595
 9864TIP3   OH280059   1.203   0.337   1.696
 9864TIP3    H180060   1.220   0.388   1.616
 9864TIP3    H280061   1.257   0.381   1.763
 9865TIP3   OH280062   0.962   1.549   1.578
 9865TIP3    H180063   0.883   1.605   1.583
 9865TIP3    H280064   1.021   1.596   1.518
 9866TIP3   OH280065   0.919   0.514   1.780
 9866TIP3    H180066   1.002   0.566   1.784
 9866TIP3    H280067   0.898   0.496   1.874
 9867TIP3   OH280068   0.975   0.614   2.700
 9867TIP3    H180069   0.989   0.669   2.779
 9867TIP3    H280070   1.038   0.539   2.705
 9868TIP3   OH280071   0.995   0.226   1.847
 9868TIP3    H180072   0.979   0.270   1.935
 9868TIP3    H280073   1.077   0.272   1.821
 9869TIP3   OH280074   0.703   1.657   1.584
 9869TIP3    H180075   0.716   1.739   1.530
 9869TIP3    H280076   0.680   1.693   1.672
 9870TIP3   OH280077   0.574   0.329   1.540
 9870TIP3    H180078   0.568   0.419   1.576
 9870TIP3    H280079   0.665   0.305   1.567
 9871TIP3   OH280080   0.425   1.358   1.464
 9871TIP3    H180081   0.468   1.444   1.472
 9871TIP3    H280082   0.449   1.331   1.374
 9872TIP3   OH280083   0.309   0.130   2.228
 9872TIP3    H180084   0.287   0.129   2.132
 9872TIP3    H280085   0.271   0.044   2.255
 9873TIP3   OH280086   0.117   1.773   2.984
 9873TIP3    H180087   0.193   1.757   3.045
 9873TIP3    H280088   0.097   1.685   2.952
 9874TIP3   OH280089   0.596   1.668   3.135
 9874TIP3    H180090   0.673   1.619   3.167
 9874TIP3    H280091   0.591   1.638   3.042
 9875TIP3   OH280092   1.247   1.503   3.009
 9875TIP3    H180093   1.215   1.416   3.037
 9875TIP3    H280094   1.324   1.517   3.067
 9876TIP3   OH280095   0.791   1.153   3.012
 9876TIP3    H180096   0.756   1.184   2.927
 9876TIP3    H280097   0.801   1.055   3.002
 9877TIP3   OH280098   1.362   1.141   2.754
 9877TIP3    H180099   1.441   1.199   2.746
 9877TIP3    H280100   1.287   1.199   2.757
 9878TIP3   OH280101   0.208   0.874   3.013
 9878TIP3    H180102   0.257   0.792   3.004
 9878TIP3    H280103   0.189   0.878   3.107
 9879TIP3   OH280104   0.678   0.992   1.525
 9879TIP3    H180105   0.623   0.933   1.580
 9879TIP3    H280106   0.705   0.927   1.454
 9880TIP3   OH280107   0.600   0.770   2.747
 9880TIP3    H180108   0.542   0.841   2.776
 9880TIP3    H280109   0.642   0.807   2.667
 9881TIP3   OH280110   0.780   0.815   1.339
 9881TIP3    H180111   0.769   0.796   1.245
 9881TIP3    H280112   0.878   0.818   1.347
 9882TIP3   OH280113   1.108   1.029   3.088
 9882TIP3    H180114   1.203   1.024   3.068
 9882TIP3    H280115   1.092   0.949   3.141
 9883TIP3   OH280116   0.640   0.506   2.853
 9883TIP3    H180117   0.658   0.437   2.788
 9883TIP3    H280118   0.638   0.588   2.800
 9884TIP3   OH280119   0.680   0.347   2.609
 9884TIP3    H180120   0.736   0.389   2.539
 9884TIP3    H280121   0.593   0.336   2.564
 9885TIP3   OH280122   0.836   0.891   2.632
 9885TIP3    H180123   0.912   0.879   2.575
 9885TIP3    H280124   0.802   0.977   2.602
 9886TIP3   OH280125   1.275   0.670   3.131
 9886TIP3    H180126   1.299   0.576   3.122
 9886TIP3    H280127   1.362   0.713   3.131
 9887TIP3   OH280128   1.410   0.953   2.949
 9887TIP3    H180129   1.383   1.019   2.881
 9887TIP3    H280130   1.504   0.946   2.924
 9888TIP3   OH280131   0.487   0.628   3.052
 9888TIP3    H180132   0.408   0.579   3.025
 9888TIP3    H280133   0.550   0.598   2.983
 9889TIP3   OH280134   0.749   0.092   2.650
 9889TIP3    H180135   0.747   0.190   2.636
 9889TIP3    H280136   0.676   0.061   2.596
 9890TIP3   OH280137   0.888   0.522   3.010
 9890TIP3    H180138   0.858   0.500   3.100
 9890TIP3    H280139   0.807   0.504   2.959
 9891TIP3   OH280140   1.159   0.440   2.918
 9891TIP3    H180141   1.062   0.438   2.928
 9891TIP3    H280142   1.191   0.374   2.982
 9892TIP3   OH280143   1.316   0.301   3.113
 9892TIP3    H180144   1.313   0.203   3.113
 9892TIP3    H280145   1.289   0.327   3.204
 9893TIP3   OH280146   0.295   0.423   3.018
 9893TIP3    H180147   0.330   0.352   2.959
 9893TIP3    H280148   0.308   0.393   3.109
 9894TIP3   OH280149   0.788   0.069   2.902
 9894TIP3    H180150   0.851  -0.006   2.908
 9894TIP3    H280151   0.769   0.060   2.807
 9895TIP3   OH280152   0.818   0.188   3.132
 9895TIP3    H180153   0.806   0.143   3.045
 9895TIP3    H280154   0.763   0.268   3.119
 9896TIP3   OH280155   0.762   1.877   1.438
 9896TIP3    H180156   0.854   1.901   1.461
 9896TIP3    H280157   0.744   1.952   1.381
 9897TIP3   OH280158   1.635   1.304   3.129
 9897TIP3    H180159   1.548   1.299   3.173
 9897TIP3    H280160   1.675   1.380   3.177
 9898TIP3   OH280161   1.771   1.131   1.676
 9898TIP3    H180162   1.854   1.176   1.700
 9898TIP3    H280163   1.768   1.062   1.745
 9899TIP3   OH280164   1.803   0.944   1.865
 9899TIP3    H180165   1.731   0.890   1.903
 9899TIP3    H280166   1.866   0.954   1.939
 9900TIP3   OH280167   1.779   1.216   2.362
 9900TIP3    H180168   1.861   1.174   2.326
 9900TIP3    H280169   1.802   1.310   2.347
 9901TIP3   OH280170   1.632   1.503   2.587
 9901TIP3    H180171   1.569   1.536   2.652
 9901TIP3    H280172   1.577   1.460   2.521
 9902TIP3   OH280173   1.832   0.928   1.499
 9902TIP3    H180174   1.775   0.963   1.431
 9902TIP3    H280175   1.826   0.995   1.570
 9903TIP3   OH280176   1.582   0.790   1.919
 9903TIP3    H180177   1.573   0.694   1.920
 9903TIP3    H280178   1.557   0.813   2.009
 9904TIP3   OH280179   1.673   0.987   2.890
 9904TIP3    H180180   1.734   0.912   2.904
 9904TIP3    H280181   1.732   1.065   2.890
 9905TIP3   OH280182   1.823   0.774   2.953
 9905TIP3    H180183   1.733   0.735   2.938
 9905TIP3    H280184   1.882   0.699   2.946
 9906TIP3   OH280185   0.060   0.505   2.917
 9906TIP3    H180186   0.148   0.508   2.959
 9906TIP3    H280187   0.006   0.450   2.975
 9907TIP3   OH280188   1.856   0.087   3.127
 9907TIP3    H180189   1.878   0.015   3.064
 9907TIP3    H280190   1.861   0.163   3.071
 9908TIP3   OH280191   0.165   0.362   2.233
 9908TIP3    H180192   0.211   0.277   2.250
 9908TIP3    H280193   0.227   0.429   2.261
 9909TIP3   OH280194   0.042   0.264   1.742
 9909TIP3    H180195  -0.049   0.296   1.727
 9909TIP3    H280196   0.087   0.331   1.686
 9910TIP3   OH280197   8.178   0.169   2.589
 9910TIP3    H180198   8.107   0.128   2.639
 9910TIP3    H280199   8.127   0.205   2.513
 9911TIP3   OH280200   0.248   1.477   2.986
 9911TIP3    H180201   0.164   1.483   2.939
 9911TIP3    H280202   0.222   1.463   3.078
 9912TIP3   OH280203   0.543   1.568   2.615
 9912TIP3    H180204   0.507   1.653   2.585
 9912TIP3    H280205   0.635   1.578   2.580
 9913TIP3   OH280206   0.972   1.715   2.906
 9913TIP3    H180207   0.986   1.673   2.993
 9913TIP3    H280208   1.063   1.734   2.881
 9914TIP3   OH280209   0.283   1.892   2.615
 9914TIP3    H180210   0.211   1.940   2.571
 9914TIP3    H280211   0.245   1.870   2.701
 9915TIP3   OH280212   0.530   1.852   2.521
 9915TIP3    H180213   0.440   1.864   2.561
 9915TIP3    H280214   0.516   1.907   2.443
 9916TIP3   OH280215   0.223   1.751   2.305
 9916TIP3    H180216   0.226   1.711   2.393
 9916TIP3    H280217   0.307   1.724   2.265
 9917TIP3   OH280218   0.437   1.626   2.168
 9917TIP3    H180219   0.418   1.534   2.193
 9917TIP3    H280220   0.519   1.642   2.218
 9918TIP3   OH280221   1.022   0.213   2.099
 9918TIP3    H180222   0.985   0.193   2.188
 9918TIP3    H280223   1.112   0.187   2.119
 9919TIP3   OH280224   0.270   0.151   1.968
 9919TIP3    H180225   0.202   0.111   1.914
 9919TIP3    H280226   0.326   0.070   1.974
 9920TIP3   OH280227   0.153   0.105   1.526
 9920TIP3    H180228   0.207   0.162   1.469
 9920TIP3    H280229   0.095   0.157   1.580
 9921TIP3   OH280230   0.730   0.101   1.937
 9921TIP3    H180231   0.821   0.136   1.934
 9921TIP3    H280232   0.730   0.076   2.030
 9922TIP3   OH280233   0.159   1.680   1.624
 9922TIP3    H180234   0.085   1.674   1.562
 9922TIP3    H280235   0.152   1.771   1.651
 9923TIP3   OH280236   0.340   0.271   1.384
 9923TIP3    H180237   0.392   0.214   1.328
 9923TIP3    H280238   0.409   0.309   1.440
 9924TIP3   OH280239   0.843   0.299   1.623
 9924TIP3    H180240   0.872   0.243   1.698
 9924TIP3    H280241   0.848   0.386   1.671
 9925TIP3   OH280242   0.262   0.165   2.924
 9925TIP3    H180243   0.234   0.072   2.933
 9925TIP3    H280244   0.360   0.154   2.933
 9926TIP3   OH280245   0.472   0.099   3.073
 9926TIP3    H180246   0.557   0.067   3.038
 9926TIP3    H280247   0.435   0.013   3.101
 9927TIP3   OH280248   1.318   0.034   3.083
 9927TIP3    H180249   1.323  -0.024   3.159
 9927TIP3    H280250   1.405   0.021   3.043
 9928TIP3   OH280251   1.629   1.632   2.949
 9928TIP3    H180252   1.548   1.616   2.897
 9928TIP3    H280253   1.620   1.728   2.966
 9929TIP3   OH280254   3.072   1.020   1.947
 9929TIP3    H180255   3.077   1.117   1.937
 9929TIP3    H280256   3.007   0.995   1.882
 9930TIP3   OH280257   2.203   0.909   2.444
 9930TIP3    H180258   2.202   0.846   2.519
 9930TIP3    H280259   2.270   0.972   2.474
 9931TIP3   OH280260   3.327   1.242   2.121
 9931TIP3    H180261   3.290   1.168   2.171
 9931TIP3    H280262   3.335   1.310   2.190
 9932TIP3   OH280263   2.288   1.356   2.306
 9932TIP3    H180264   2.257   1.272   2.267
 9932TIP3    H280265   2.382   1.337   2.309
 9933TIP3   OH280266   1.954   0.714   1.847
 9933TIP3    H180267   1.910   0.800   1.840
 9933TIP3    H280268   1.899   0.658   1.793
 9934TIP3   OH280269   2.026   0.936   2.063
 9934TIP3    H180270   2.048   0.852   2.108
 9934TIP3    H280271   2.096   0.945   1.996
 9935TIP3   OH280272   3.130   0.629   2.366
 9935TIP3    H180273   3.126   0.533   2.368
 9935TIP3    H280274   3.099   0.647   2.277
 9936TIP3   OH280275   2.427   0.441   2.095
 9936TIP3    H180276   2.438   0.525   2.046
 9936TIP3    H280277   2.385   0.383   2.028
 9937TIP3   OH280278   2.094   0.688   2.169
 9937TIP3    H180279   2.155   0.626   2.213
 9937TIP3    H280280   2.096   0.650   2.080
 9938TIP3   OH280281   3.704   0.488   2.643
 9938TIP3    H180282   3.642   0.563   2.629
 9938TIP3    H280283   3.706   0.480   2.738
 9939TIP3   OH280284   2.318   0.334   2.500
 9939TIP3    H180285   2.286   0.385   2.422
 9939TIP3    H280286   2.247   0.353   2.566
 9940TIP3   OH280287   3.051   1.281   1.856
 9940TIP3    H180288   3.018   1.251   1.771
 9940TIP3    H280289   3.016   1.371   1.860
 9941TIP3   OH280290   2.271   0.510   2.297
 9941TIP3    H180291   2.331   0.580   2.331
 9941TIP3    H280292   2.327   0.473   2.225
 9942TIP3   OH280293   2.411   1.294   2.598
 9942TIP3    H180294   2.409   1.384   2.567
 9942TIP3    H280295   2.326   1.288   2.648
 9943TIP3   OH280296   2.019   1.261   1.683
 9943TIP3    H180297   1.994   1.291   1.594
 9943TIP3    H280298   2.031   1.343   1.735
 9944TIP3   OH280299   3.384   1.424   2.362
 9944TIP3    H180300   3.290   1.436   2.370
 9944TIP3    H280301   3.412   1.514   2.338
 9945TIP3   OH280302   3.418   0.253   2.503
 9945TIP3    H180303   3.344   0.314   2.492
 9945TIP3    H280304   3.484   0.293   2.446
 9946TIP3   OH280305   2.704   0.064   2.226
 9946TIP3    H180306   2.705  -0.031   2.242
 9946TIP3    H280307   2.625   0.094   2.271
 9947TIP3   OH280308   3.207   1.602   2.023
 9947TIP3    H180309   3.253   1.533   1.970
 9947TIP3    H280310   3.245   1.681   1.979
 9948TIP3   OH280311   3.329   1.395   1.870
 9948TIP3    H180312   3.299   1.327   1.807
 9948TIP3    H280313   3.332   1.344   1.953
 9949TIP3   OH280314   3.489   1.256   2.721
 9949TIP3    H180315   3.504   1.190   2.650
 9949TIP3    H280316   3.512   1.338   2.675
 9950TIP3   OH280317   3.681   0.885   2.522
 9950TIP3    H180318   3.614   0.956   2.527
 9950TIP3    H280319   3.730   0.909   2.442
 9951TIP3   OH280320   2.448   1.029   1.982
 9951TIP3    H180321   2.415   0.993   1.896
 9951TIP3    H280322   2.509   0.960   2.010
 9952TIP3   OH280323   2.265   0.960   2.733
 9952TIP3    H180324   2.273   1.028   2.802
 9952TIP3    H280325   2.173   0.975   2.709
 9953TIP3   OH280326   3.533   0.058   1.524
 9953TIP3    H180327   3.451   0.070   1.572
 9953TIP3    H280328   3.565   0.147   1.502
 9954TIP3   OH280329   2.341   0.937   1.745
 9954TIP3    H180330   2.317   1.010   1.686
 9954TIP3    H280331   2.280   0.868   1.718
 9955TIP3   OH280332   3.658   1.491   1.378
 9955TIP3    H180333   3.670   1.586   1.396
 9955TIP3    H280334   3.750   1.461   1.375
 9956TIP3   OH280335   1.946   1.176   2.630
 9956TIP3    H180336   1.908   1.168   2.541
 9956TIP3    H280337   1.961   1.081   2.651
 9957TIP3   OH280338   1.931   1.446   2.311
 9957TIP3    H180339   2.027   1.440   2.303
 9957TIP3    H280340   1.924   1.529   2.359
 9958TIP3   OH280341   3.751   1.518   2.874
 9958TIP3    H180342   3.742   1.422   2.873
 9958TIP3    H280343   3.667   1.545   2.916
 9959TIP3   OH280344   2.250   1.738   1.925
 9959TIP3    H180345   2.271   1.696   2.009
 9959TIP3    H280346   2.172   1.689   1.899
 9960TIP3   OH280347   3.466   0.667   2.926
 9960TIP3    H180348   3.422   0.713   2.854
 9960TIP3    H280349   3.467   0.575   2.894
 9961TIP3   OH280350   2.181   1.307   2.724
 9961TIP3    H180351   2.202   1.272   2.813
 9961TIP3    H280352   2.095   1.266   2.703
 9962TIP3   OH280353   2.447   0.153   2.323
 9962TIP3    H180354   2.358   0.149   2.282
 9962TIP3    H280355   2.438   0.236   2.371
 9963TIP3   OH280356   2.441   0.644   2.427
 9963TIP3    H180357   2.384   0.645   2.507
 9963TIP3    H280358   2.450   0.739   2.409
 9964TIP3   OH280359   2.454   0.665   1.929
 9964TIP3    H180360   2.360   0.640   1.916
 9964TIP3    H280361   2.494   0.634   1.846
 9965TIP3   OH280362   2.230   0.675   2.615
 9965TIP3    H180363   2.225   0.719   2.702
 9965TIP3    H280364   2.179   0.595   2.633
 9966TIP3   OH280365   1.887   0.393   2.005
 9966TIP3    H180366   1.948   0.388   2.081
 9966TIP3    H280367   1.937   0.349   1.937
 9967TIP3   OH280368   2.194   0.573   1.915
 9967TIP3    H180369   2.103   0.589   1.882
 9967TIP3    H280370   2.218   0.487   1.876
 9968TIP3   OH280371   2.556   0.575   1.677
 9968TIP3    H180372   2.650   0.590   1.698
 9968TIP3    H280373   2.535   0.648   1.617
 9969TIP3   OH280374   3.477   1.904   2.991
 9969TIP3    H180375   3.498   1.946   2.905
 9969TIP3    H280376   3.547   1.941   3.048
 9970TIP3   OH280377   2.243   1.152   2.945
 9970TIP3    H180378   2.310   1.177   3.010
 9970TIP3    H280379   2.163   1.163   3.000
 9971TIP3   OH280380   2.345   0.310   1.864
 9971TIP3    H180381   2.308   0.220   1.864
 9971TIP3    H280382   2.421   0.305   1.805
 9972TIP3   OH280383   3.479   1.073   2.513
 9972TIP3    H180384   3.538   1.115   2.448
 9972TIP3    H280385   3.394   1.073   2.464
 9973TIP3   OH280386   2.272   1.088   2.211
 9973TIP3    H180387   2.342   1.082   2.143
 9973TIP3    H280388   2.275   1.003   2.256
 9974TIP3   OH280389   1.972   0.929   2.739
 9974TIP3    H180390   1.990   0.885   2.824
 9974TIP3    H280391   1.909   0.869   2.693
 9975TIP3   OH280392   3.714   0.638   1.589
 9975TIP3    H180393   3.653   0.608   1.519
 9975TIP3    H280394   3.717   0.732   1.562
 9976TIP3   OH280395   3.709   1.228   2.872
 9976TIP3    H180396   3.620   1.245   2.833
 9976TIP3    H280397   3.764   1.218   2.791
 9977TIP3   OH280398   3.539   1.519   1.629
 9977TIP3    H180399   3.501   1.438   1.665
 9977TIP3    H280400   3.565   1.496   1.539
 9978TIP3   OH280401   3.259   1.005   2.337
 9978TIP3    H180402   3.165   0.980   2.332
 9978TIP3    H280403   3.300   0.924   2.300
 9979TIP3   OH280404   2.086   0.921   1.401
 9979TIP3    H180405   2.146   0.981   1.447
 9979TIP3    H280406   1.998   0.943   1.435
 9980TIP3   OH280407   3.329   1.676   2.754
 9980TIP3    H180408   3.258   1.632   2.704
 9980TIP3    H280409   3.350   1.748   2.690
 9981TIP3   OH280410   2.134   0.399   2.694
 9981TIP3    H180411   2.044   0.434   2.693
 9981TIP3    H280412   2.123   0.313   2.740
 9982TIP3   OH280413   3.363   1.187   1.639
 9982TIP3    H180414   3.339   1.110   1.691
 9982TIP3    H280415   3.458   1.194   1.657
 9983TIP3   OH280416   2.098   1.581   2.534
 9983TIP3    H180417   2.121   1.487   2.538
 9983TIP3    H280418   2.121   1.611   2.623
 9984TIP3   OH280419   2.223   1.116   1.549
 9984TIP3    H180420   2.159   1.149   1.615
 9984TIP3    H280421   2.282   1.191   1.534
 9985TIP3   OH280422   2.448   0.323   1.560
 9985TIP3    H180423   2.449   0.419   1.577
 9985TIP3    H280424   2.542   0.304   1.562
 9986TIP3   OH280425   3.477   0.403   2.782
 9986TIP3    H180426   3.386   0.431   2.769
 9986TIP3    H280427   3.513   0.399   2.691
 9987TIP3   OH280428   3.343   0.780   2.187
 9987TIP3    H180429   3.261   0.738   2.158
 9987TIP3    H280430   3.390   0.712   2.239
 9988TIP3   OH280431   3.445   1.706   2.353
 9988TIP3    H180432   3.437   1.772   2.281
 9988TIP3    H280433   3.542   1.710   2.369
 9989TIP3   OH280434   2.193   0.128   2.228
 9989TIP3    H180435   2.171   0.130   2.133
 9989TIP3    H280436   2.158   0.041   2.255
 9990TIP3   OH280437   2.091   1.510   1.840
 9990TIP3    H180438   2.010   1.561   1.843
 9990TIP3    H280439   2.149   1.557   1.778
 9991TIP3   OH280440   2.015   1.776   2.978
 9991TIP3    H180441   2.075   1.754   3.051
 9991TIP3    H280442   1.974   1.690   2.955
 9992TIP3   OH280443   2.480   1.666   3.135
 9992TIP3    H180444   2.558   1.620   3.169
 9992TIP3    H280445   2.482   1.640   3.043
 9993TIP3   OH280446   3.143   1.496   2.999
 9993TIP3    H180447   3.096   1.418   3.034
 9993TIP3    H280448   3.205   1.520   3.069
 9994TIP3   OH280449   3.350   1.595   1.300
 9994TIP3    H180450   3.382   1.516   1.345
 9994TIP3    H280451   3.423   1.619   1.242
 9995TIP3   OH280452   2.006   1.153   3.073
 9995TIP3    H180453   2.024   1.063   3.041
 9995TIP3    H280454   1.933   1.180   3.016
 9996TIP3   OH280455   2.672   1.149   3.016
 9996TIP3    H180456   2.646   1.179   2.927
 9996TIP3    H280457   2.693   1.056   3.002
 9997TIP3   OH280458   3.244   1.138   2.747
 9997TIP3    H180459   3.326   1.192   2.743
 9997TIP3    H280460   3.176   1.204   2.760
 9998TIP3   OH280461   2.099   0.875   3.013
 9998TIP3    H180462   2.137   0.788   3.004
 9998TIP3    H280463   2.073   0.877   3.108
 9999TIP3   OH280464   2.992   1.026   3.084
 9999TIP3    H180465   3.088   1.024   3.070
 9999TIP3    H280466   2.977   0.949   3.140
10000TIP3   OH280467   2.522   0.507   2.851
10000TIP3    H180468   2.543   0.434   2.792
10000TIP3    H280469   2.527   0.585   2.796
10001TIP3   OH280470   2.570   0.348   2.603
10001TIP3    H180471   2.619   0.394   2.534
10001TIP3    H280472   2.479   0.336   2.566
10002TIP3   OH280473   3.164   0.671   3.137
10002TIP3    H180474   3.182   0.577   3.123
10002TIP3    H280475   3.250   0.713   3.130
10003TIP3   OH280476   3.299   0.951   2.949
10003TIP3    H180477   3.268   1.016   2.882
10003TIP3    H280478   3.394   0.947   2.927
10004TIP3   OH280479   2.375   0.632   3.048
10004TIP3    H180480   2.297   0.576   3.029
10004TIP3    H280481   2.439   0.592   2.987
10005TIP3   OH280482   2.623   0.092   2.654
10005TIP3    H180483   2.631   0.188   2.637
10005TIP3    H280484   2.559   0.061   2.592
10006TIP3   OH280485   3.207   0.301   3.111
10006TIP3    H180486   3.196   0.204   3.111
10006TIP3    H280487   3.174   0.329   3.199
10007TIP3   OH280488   2.187   0.425   3.020
10007TIP3    H180489   2.207   0.350   2.961
10007TIP3    H280490   2.177   0.380   3.107
10008TIP3   OH280491   2.674   0.066   2.903
10008TIP3    H180492   2.738  -0.008   2.908
10008TIP3    H280493   2.657   0.062   2.807
10009TIP3   OH280494   2.700   0.186   3.134
10009TIP3    H180495   2.693   0.146   3.045
10009TIP3    H280496   2.649   0.268   3.120
10010TIP3   OH280497   2.014   1.329   1.402
10010TIP3    H180498   2.108   1.351   1.410
10010TIP3    H280499   2.012   1.281   1.318
10011TIP3   OH280500   3.718   1.771   2.374
10011TIP3    H180501   3.723   1.786   2.469
10011TIP3    H280502   3.787   1.830   2.343
10012TIP3   OH280503   3.676   1.730   2.668
10012TIP3    H180504   3.632   1.653   2.627
10012TIP3    H280505   3.733   1.685   2.733
10013TIP3   OH280506   3.524   1.286   3.127
10013TIP3    H180507   3.436   1.283   3.171
10013TIP3    H280508   3.579   1.348   3.177
10014TIP3   OH280509   3.655   1.133   1.677
10014TIP3    H180510   3.741   1.173   1.699
10014TIP3    H280511   3.651   1.060   1.743
10015TIP3   OH280512   3.692   0.942   1.865
10015TIP3    H180513   3.616   0.888   1.900
10015TIP3    H280514   3.751   0.954   1.941
10016TIP3   OH280515   3.669   1.213   2.363
10016TIP3    H180516   3.750   1.176   2.324
10016TIP3    H280517   3.683   1.309   2.346
10017TIP3   OH280518   3.520   1.503   2.590
10017TIP3    H180519   3.451   1.539   2.649
10017TIP3    H280520   3.466   1.463   2.518
10018TIP3   OH280521   3.719   0.927   1.502
10018TIP3    H180522   3.661   0.958   1.432
10018TIP3    H280523   3.709   0.995   1.572
10019TIP3   OH280524   3.558   0.646   1.361
10019TIP3    H180525   3.567   0.714   1.294
10019TIP3    H280526   3.537   0.568   1.309
10020TIP3   OH280527   3.472   0.794   1.926
10020TIP3    H180528   3.453   0.699   1.914
10020TIP3    H280529   3.432   0.815   2.011
10021TIP3   OH280530   1.970   1.002   2.326
10021TIP3    H180531   1.990   0.989   2.231
10021TIP3    H280532   2.058   0.979   2.363
10022TIP3   OH280533   3.558   0.988   2.892
10022TIP3    H180534   3.619   0.912   2.905
10022TIP3    H280535   3.619   1.064   2.890
10023TIP3   OH280536   3.707   0.776   2.954
10023TIP3    H180537   3.619   0.736   2.940
10023TIP3    H280538   3.766   0.698   2.948
10024TIP3   OH280539   3.442   0.548   1.773
10024TIP3    H180540   3.470   0.457   1.774
10024TIP3    H280541   3.513   0.592   1.725
10025TIP3   OH280542   3.502   0.602   2.314
10025TIP3    H180543   3.598   0.627   2.310
10025TIP3    H280544   3.483   0.616   2.408
10026TIP3   OH280545   3.503   0.679   2.592
10026TIP3    H180546   3.418   0.712   2.620
10026TIP3    H280547   3.552   0.761   2.566
10027TIP3   OH280548   3.755   0.087   3.130
10027TIP3    H180549   3.761   0.016   3.062
10027TIP3    H280550   3.740   0.164   3.072
10028TIP3   OH280551   2.052   0.356   2.226
10028TIP3    H180552   2.101   0.277   2.255
10028TIP3    H280553   2.105   0.427   2.267
10029TIP3   OH280554   3.692   0.289   2.956
10029TIP3    H180555   3.597   0.314   2.958
10029TIP3    H280556   3.691   0.229   2.879
10030TIP3   OH280557   3.685   0.273   1.427
10030TIP3    H180558   3.733   0.206   1.377
10030TIP3    H280559   3.752   0.343   1.435
10031TIP3   OH280560   3.392   1.785   1.927
10031TIP3    H180561   3.465   1.748   1.872
10031TIP3    H280562   3.445   1.826   1.997
10032TIP3   OH280563   1.916   0.163   2.574
10032TIP3    H180564   1.850   0.128   2.633
10032TIP3    H280565   1.867   0.214   2.508
10033TIP3   OH280566   2.137   1.467   2.988
10033TIP3    H180567   2.054   1.492   2.942
10033TIP3    H280568   2.109   1.464   3.080
10034TIP3   OH280569   3.092   1.844   2.828
10034TIP3    H180570   3.159   1.777   2.811
10034TIP3    H280571   3.124   1.881   2.913
10035TIP3   OH280572   3.586   0.108   2.747
10035TIP3    H180573   3.503   0.134   2.706
10035TIP3    H280574   3.610   0.029   2.702
10036TIP3   OH280575   2.171   1.891   2.613
10036TIP3    H180576   2.101   1.943   2.571
10036TIP3    H280577   2.138   1.875   2.701
10037TIP3   OH280578   3.120   1.727   2.533
10037TIP3    H180579   3.031   1.752   2.508
10037TIP3    H280580   3.167   1.812   2.531
10038TIP3   OH280581   3.375   1.880   2.561
10038TIP3    H180582   3.368   1.977   2.540
10038TIP3    H280583   3.398   1.844   2.473
10039TIP3   OH280584   2.106   1.751   2.305
10039TIP3    H180585   2.106   1.714   2.396
10039TIP3    H280586   2.192   1.724   2.272
10040TIP3   OH280587   3.428   0.056   2.117
10040TIP3    H180588   3.499   0.118   2.132
10040TIP3    H280589   3.350   0.094   2.160
10041TIP3   OH280590   2.155   0.151   1.965
10041TIP3    H180591   2.087   0.107   1.913
10041TIP3    H280592   2.211   0.071   1.974
10042TIP3   OH280593   2.046   0.099   1.533
10042TIP3    H180594   2.090   0.157   1.469
10042TIP3    H280595   1.980   0.154   1.577
10043TIP3   OH280596   2.227   0.269   1.382
10043TIP3    H180597   2.281   0.215   1.325
10043TIP3    H280598   2.292   0.308   1.442
10044TIP3   OH280599   3.587   1.758   1.740
10044TIP3    H180600   3.576   1.680   1.681
10044TIP3    H280601   3.590   1.829   1.673
10045TIP3   OH280602   2.155   0.162   2.906
10045TIP3    H180603   2.121   0.081   2.944
10045TIP3    H280604   2.246   0.157   2.938
10046TIP3   OH280605   2.361   0.097   3.070
10046TIP3    H180606   2.447   0.065   3.038
10046TIP3    H280607   2.320   0.016   3.101
10047TIP3   OH280608   3.203   0.032   3.086
10047TIP3    H180609   3.207  -0.026   3.161
10047TIP3    H280610   3.290   0.021   3.046
10048TIP3   OH280611   3.507   1.627   2.961
10048TIP3    H180612   3.437   1.618   2.891
10048TIP3    H280613   3.508   1.726   2.964
10049TIP3   OH280614   4.079   0.914   2.451
10049TIP3    H180615   4.089   0.844   2.519
10049TIP3    H280616   4.157   0.968   2.471
10050TIP3   OH280617   3.908   0.935   2.061
10050TIP3    H180618   3.936   0.854   2.109
10050TIP3    H280619   3.980   0.947   1.997
10051TIP3   OH280620   4.928   1.756   2.145
10051TIP3    H180621   4.990   1.684   2.116
10051TIP3    H280622   4.905   1.726   2.233
10052TIP3   OH280623   5.005   0.631   2.367
10052TIP3    H180624   5.019   0.535   2.368
10052TIP3    H280625   4.992   0.652   2.274
10053TIP3   OH280626   4.316   0.443   2.095
10053TIP3    H180627   4.325   0.527   2.045
10053TIP3    H280628   4.281   0.382   2.028
10054TIP3   OH280629   3.979   0.686   2.166
10054TIP3    H180630   4.040   0.626   2.216
10054TIP3    H280631   3.979   0.647   2.079
10055TIP3   OH280632   4.487   0.836   2.094
10055TIP3    H180633   4.554   0.781   2.137
10055TIP3    H280634   4.434   0.770   2.046
10056TIP3   OH280635   4.454   1.096   2.520
10056TIP3    H180636   4.383   1.160   2.541
10056TIP3    H280637   4.526   1.155   2.496
10057TIP3   OH280638   4.157   0.530   2.285
10057TIP3    H180639   4.222   0.583   2.336
10057TIP3    H280640   4.214   0.475   2.229
10058TIP3   OH280641   4.299   1.298   2.608
10058TIP3    H180642   4.294   1.384   2.564
10058TIP3    H280643   4.208   1.288   2.647
10059TIP3   OH280644   3.906   1.256   1.681
10059TIP3    H180645   3.881   1.291   1.594
10059TIP3    H280646   3.914   1.338   1.735
10060TIP3   OH280647   5.272   1.426   2.365
10060TIP3    H180648   5.174   1.434   2.369
10060TIP3    H280649   5.295   1.516   2.338
10061TIP3   OH280650   5.305   0.254   2.505
10061TIP3    H180651   5.226   0.309   2.489
10061TIP3    H280652   5.366   0.295   2.443
10062TIP3   OH280653   5.093   1.605   2.017
10062TIP3    H180654   5.139   1.531   1.976
10062TIP3    H280655   5.136   1.683   1.978
10063TIP3   OH280656   5.381   1.252   2.719
10063TIP3    H180657   5.394   1.193   2.644
10063TIP3    H280658   5.396   1.339   2.678
10064TIP3   OH280659   4.333   1.031   1.978
10064TIP3    H180660   4.303   0.992   1.893
10064TIP3    H280661   4.393   0.961   2.013
10065TIP3   OH280662   4.464   1.367   2.250
10065TIP3    H180663   4.458   1.316   2.169
10065TIP3    H280664   4.542   1.334   2.295
10066TIP3   OH280665   4.367   0.906   2.345
10066TIP3    H180666   4.422   0.916   2.266
10066TIP3    H280667   4.404   0.972   2.407
10067TIP3   OH280668   5.003   1.458   2.413
10067TIP3    H180669   4.976   1.523   2.480
10067TIP3    H280670   4.981   1.374   2.457
10068TIP3   OH280671   4.461   1.349   2.812
10068TIP3    H180672   4.420   1.423   2.863
10068TIP3    H280673   4.393   1.326   2.745
10069TIP3   OH280674   4.154   0.964   2.731
10069TIP3    H180675   4.159   1.030   2.803
10069TIP3    H280676   4.060   0.974   2.709
10070TIP3   OH280677   4.286   1.549   2.888
10070TIP3    H180678   4.274   1.541   2.794
10070TIP3    H280679   4.193   1.541   2.920
10071TIP3   OH280680   5.431   0.055   1.546
10071TIP3    H180681   5.338   0.070   1.571
10071TIP3    H280682   5.455   0.140   1.503
10072TIP3   OH280683   4.229   0.935   1.743
10072TIP3    H180684   4.204   1.011   1.687
10072TIP3    H280685   4.164   0.870   1.717
10073TIP3   OH280686   5.542   1.492   1.389
10073TIP3    H180687   5.554   1.589   1.391
10073TIP3    H280688   5.633   1.463   1.373
10074TIP3   OH280689   3.839   1.175   2.629
10074TIP3    H180690   3.793   1.167   2.543
10074TIP3    H280691   3.845   1.080   2.652
10075TIP3   OH280692   3.816   1.449   2.313
10075TIP3    H180693   3.912   1.441   2.304
10075TIP3    H280694   3.807   1.533   2.360
10076TIP3   OH280695   5.636   1.519   2.874
10076TIP3    H180696   5.627   1.423   2.875
10076TIP3    H280697   5.551   1.544   2.918
10077TIP3   OH280698   4.737   1.469   2.767
10077TIP3    H180699   4.741   1.557   2.809
10077TIP3    H280700   4.647   1.438   2.787
10078TIP3   OH280701   4.780   1.849   1.741
10078TIP3    H180702   4.769   1.841   1.645
10078TIP3    H280703   4.778   1.945   1.758
10079TIP3   OH280704   5.084   1.769   1.440
10079TIP3    H180705   5.124   1.691   1.399
10079TIP3    H280706   5.085   1.743   1.535
10080TIP3   OH280707   5.052   1.761   1.716
10080TIP3    H180708   4.957   1.771   1.738
10080TIP3    H280709   5.076   1.691   1.777
10081TIP3   OH280710   4.067   1.306   2.725
10081TIP3    H180711   4.088   1.269   2.813
10081TIP3    H280712   3.980   1.267   2.703
10082TIP3   OH280713   4.335   0.647   2.438
10082TIP3    H180714   4.270   0.648   2.510
10082TIP3    H280715   4.341   0.741   2.411
10083TIP3   OH280716   4.340   0.659   1.930
10083TIP3    H180717   4.248   0.640   1.912
10083TIP3    H280718   4.383   0.634   1.844
10084TIP3   OH280719   4.799   0.736   2.954
10084TIP3    H180720   4.747   0.657   2.983
10084TIP3    H280721   4.884   0.722   2.998
10085TIP3   OH280722   4.108   0.678   2.614
10085TIP3    H180723   4.113   0.719   2.702
10085TIP3    H280724   4.063   0.594   2.631
10086TIP3   OH280725   4.596   0.418   2.031
10086TIP3    H180726   4.503   0.420   2.059
10086TIP3    H280727   4.643   0.409   2.114
10087TIP3   OH280728   4.437   0.586   1.689
10087TIP3    H180729   4.535   0.586   1.696
10087TIP3    H280730   4.418   0.641   1.611
10088TIP3   OH280731   5.036   0.338   2.361
10088TIP3    H180732   4.964   0.344   2.424
10088TIP3    H280733   4.992   0.316   2.278
10089TIP3   OH280734   4.311   0.697   1.441
10089TIP3    H180735   4.257   0.661   1.369
10089TIP3    H280736   4.395   0.714   1.395
10090TIP3   OH280737   5.357   1.907   2.992
10090TIP3    H180738   5.385   1.943   2.906
10090TIP3    H280739   5.430   1.938   3.048
10091TIP3   OH280740   4.126   1.155   2.945
10091TIP3    H180741   4.196   1.176   3.009
10091TIP3    H280742   4.047   1.164   3.003
10092TIP3   OH280743   4.792   1.173   2.757
10092TIP3    H180744   4.763   1.134   2.839
10092TIP3    H280745   4.775   1.267   2.766
10093TIP3   OH280746   4.159   1.086   2.212
10093TIP3    H180747   4.229   1.083   2.144
10093TIP3    H280748   4.167   1.002   2.259
10094TIP3   OH280749   3.857   0.929   2.738
10094TIP3    H180750   3.875   0.885   2.823
10094TIP3    H280751   3.796   0.866   2.694
10095TIP3   OH280752   4.559   0.884   2.956
10095TIP3    H180753   4.529   0.857   2.868
10095TIP3    H280754   4.652   0.854   2.955
10096TIP3   OH280755   5.026   1.418   2.746
10096TIP3    H180756   4.933   1.435   2.726
10096TIP3    H280757   5.024   1.445   2.840
10097TIP3   OH280758   5.598   0.640   1.587
10097TIP3    H180759   5.540   0.603   1.521
10097TIP3    H280760   5.603   0.734   1.561
10098TIP3   OH280761   5.597   1.229   2.873
10098TIP3    H180762   5.505   1.242   2.839
10098TIP3    H280763   5.647   1.220   2.790
10099TIP3   OH280764   5.421   1.520   1.632
10099TIP3    H180765   5.390   1.434   1.661
10099TIP3    H280766   5.455   1.502   1.541
10100TIP3   OH280767   4.396   1.435   1.948
10100TIP3    H180768   4.447   1.514   1.932
10100TIP3    H280769   4.306   1.457   1.920
10101TIP3   OH280770   3.971   0.923   1.404
10101TIP3    H180771   4.032   0.984   1.448
10101TIP3    H280772   3.883   0.947   1.436
10102TIP3   OH280773   4.536   1.205   1.914
10102TIP3    H180774   4.503   1.295   1.912
10102TIP3    H280775   4.460   1.153   1.946
10103TIP3   OH280776   5.217   1.677   2.754
10103TIP3    H180777   5.147   1.627   2.706
10103TIP3    H280778   5.235   1.747   2.688
10104TIP3   OH280779   5.616   1.761   1.440
10104TIP3    H180780   5.685   1.825   1.416
10104TIP3    H280781   5.543   1.821   1.468
10105TIP3   OH280782   4.021   0.399   2.692
10105TIP3    H180783   3.932   0.437   2.689
10105TIP3    H280784   4.008   0.317   2.739
10106TIP3   OH280785   3.983   1.579   2.541
10106TIP3    H180786   4.010   1.487   2.538
10106TIP3    H280787   4.009   1.609   2.628
10107TIP3   OH280788   4.456   1.391   1.505
10107TIP3    H180789   4.482   1.332   1.578
10107TIP3    H280790   4.472   1.479   1.541
10108TIP3   OH280791   4.108   1.113   1.554
10108TIP3    H180792   4.044   1.153   1.615
10108TIP3    H280793   4.166   1.187   1.531
10109TIP3   OH280794   4.737   1.557   1.582
10109TIP3    H180795   4.659   1.611   1.586
10109TIP3    H280796   4.792   1.604   1.517
10110TIP3   OH280797   4.694   0.512   1.781
10110TIP3    H180798   4.772   0.568   1.781
10110TIP3    H280799   4.666   0.501   1.873
10111TIP3   OH280800   4.743   0.605   2.703
10111TIP3    H180801   4.758   0.670   2.774
10111TIP3    H280802   4.818   0.546   2.710
10112TIP3   OH280803   4.788   0.218   1.876
10112TIP3    H180804   4.743   0.282   1.933
10112TIP3    H280805   4.844   0.275   1.823
10113TIP3   OH280806   5.367   0.396   2.779
10113TIP3    H180807   5.277   0.431   2.774
10113TIP3    H280808   5.398   0.404   2.688
10114TIP3   OH280809   4.171   1.369   1.446
10114TIP3    H180810   4.232   1.438   1.474
10114TIP3    H280811   4.221   1.327   1.375
10115TIP3   OH280812   5.334   1.707   2.352
10115TIP3    H180813   5.324   1.775   2.283
10115TIP3    H280814   5.431   1.712   2.369
10116TIP3   OH280815   3.976   1.505   1.835
10116TIP3    H180816   3.896   1.558   1.847
10116TIP3    H280817   4.030   1.566   1.785
10117TIP3   OH280818   4.367   1.665   3.138
10117TIP3    H180819   4.446   1.619   3.168
10117TIP3    H280820   4.364   1.641   3.044
10118TIP3   OH280821   5.019   1.504   3.007
10118TIP3    H180822   4.986   1.418   3.038
10118TIP3    H280823   5.095   1.518   3.067
10119TIP3   OH280824   3.888   1.151   3.075
10119TIP3    H180825   3.908   1.062   3.042
10119TIP3    H280826   3.818   1.180   3.015
10120TIP3   OH280827   4.561   1.150   3.016
10120TIP3    H180828   4.529   1.181   2.930
10120TIP3    H280829   4.573   1.054   3.001
10121TIP3   OH280830   4.859   1.285   1.255
10121TIP3    H180831   4.835   1.311   1.345
10121TIP3    H280832   4.842   1.191   1.252
10122TIP3   OH280833   5.133   1.138   2.747
10122TIP3    H180834   5.210   1.198   2.746
10122TIP3    H280835   5.061   1.201   2.756
10123TIP3   OH280836   3.981   0.875   3.013
10123TIP3    H180837   4.023   0.789   3.004
10123TIP3    H280838   3.959   0.878   3.108
10124TIP3   OH280839   4.445   0.989   1.514
10124TIP3    H180840   4.398   0.939   1.581
10124TIP3    H280841   4.474   0.920   1.452
10125TIP3   OH280842   4.372   0.769   2.749
10125TIP3    H180843   4.314   0.843   2.775
10125TIP3    H280844   4.412   0.806   2.668
10126TIP3   OH280845   4.553   0.809   1.337
10126TIP3    H180846   4.539   0.792   1.243
10126TIP3    H280847   4.649   0.814   1.345
10127TIP3   OH280848   4.880   1.026   3.087
10127TIP3    H180849   4.975   1.026   3.070
10127TIP3    H280850   4.864   0.947   3.140
10128TIP3   OH280851   4.418   0.511   2.855
10128TIP3    H180852   4.413   0.436   2.796
10128TIP3    H280853   4.410   0.591   2.797
10129TIP3   OH280854   4.605   0.891   2.632
10129TIP3    H180855   4.683   0.878   2.577
10129TIP3    H280856   4.572   0.976   2.600
10130TIP3   OH280857   5.049   0.671   3.135
10130TIP3    H180858   5.069   0.577   3.122
10130TIP3    H280859   5.136   0.713   3.130
10131TIP3   OH280860   4.260   0.630   3.052
10131TIP3    H180861   4.182   0.576   3.030
10131TIP3    H280862   4.324   0.599   2.985
10132TIP3   OH280863   4.660   0.521   3.010
10132TIP3    H180864   4.630   0.497   3.099
10132TIP3    H280865   4.581   0.503   2.956
10133TIP3   OH280866   4.929   0.441   2.918
10133TIP3    H180867   4.833   0.442   2.933
10133TIP3    H280868   4.958   0.375   2.983
10134TIP3   OH280869   5.088   0.302   3.109
10134TIP3    H180870   5.085   0.203   3.112
10134TIP3    H280871   5.061   0.328   3.200
10135TIP3   OH280872   4.065   0.421   3.016
10135TIP3    H180873   4.097   0.351   2.958
10135TIP3    H280874   4.061   0.381   3.105
10136TIP3   OH280875   4.584   0.187   3.127
10136TIP3    H180876   4.580   0.143   3.041
10136TIP3    H280877   4.531   0.268   3.117
10137TIP3   OH280878   3.896   1.341   1.390
10137TIP3    H180879   3.990   1.348   1.415
10137TIP3    H280880   3.897   1.275   1.320
10138TIP3   OH280881   3.853   1.693   2.078
10138TIP3    H180882   3.820   1.604   2.094
10138TIP3    H280883   3.875   1.723   2.166
10139TIP3   OH280884   5.605   1.769   2.372
10139TIP3    H180885   5.609   1.787   2.468
10139TIP3    H280886   5.675   1.828   2.341
10140TIP3   OH280887   5.564   1.730   2.666
10140TIP3    H180888   5.517   1.653   2.628
10140TIP3    H280889   5.613   1.685   2.737
10141TIP3   OH280890   5.408   1.303   3.130
10141TIP3    H180891   5.321   1.297   3.173
10141TIP3    H280892   5.446   1.380   3.178
10142TIP3   OH280893   5.538   1.138   1.679
10142TIP3    H180894   5.627   1.172   1.695
10142TIP3    H280895   5.539   1.061   1.740
10143TIP3   OH280896   5.573   0.942   1.864
10143TIP3    H180897   5.502   0.890   1.905
10143TIP3    H280898   5.635   0.957   1.937
10144TIP3   OH280899   5.556   1.212   2.366
10144TIP3    H180900   5.636   1.174   2.325
10144TIP3    H280901   5.565   1.308   2.345
10145TIP3   OH280902   5.407   1.503   2.591
10145TIP3    H180903   5.337   1.535   2.649
10145TIP3    H280904   5.353   1.463   2.519
10146TIP3   OH280905   3.859   1.000   2.327
10146TIP3    H180906   3.876   0.990   2.231
10146TIP3    H280907   3.947   0.980   2.363
10147TIP3   OH280908   3.820   0.530   2.944
10147TIP3    H180909   3.913   0.506   2.960
10147TIP3    H280910   3.774   0.447   2.969
10148TIP3   OH280911   5.630   0.086   3.130
10148TIP3    H180912   5.650   0.016   3.064
10148TIP3    H280913   5.629   0.164   3.073
10149TIP3   OH280914   5.395   0.271   1.767
10149TIP3    H180915   5.410   0.231   1.855
10149TIP3    H280916   5.327   0.213   1.728
10150TIP3   OH280917   3.767   0.659   2.329
10150TIP3    H180918   3.825   0.633   2.256
10150TIP3    H280919   3.814   0.738   2.359
10151TIP3   OH280920   5.575   0.290   2.956
10151TIP3    H180921   5.480   0.316   2.956
10151TIP3    H280922   5.577   0.228   2.883
10152TIP3   OH280923   5.581   0.277   1.433
10152TIP3    H180924   5.613   0.210   1.371
10152TIP3    H280925   5.647   0.347   1.424
10153TIP3   OH280926   5.279   1.778   1.933
10153TIP3    H180927   5.348   1.749   1.870
10153TIP3    H280928   5.330   1.827   1.998
10154TIP3   OH280929   4.022   1.468   2.984
10154TIP3    H180930   3.939   1.495   2.941
10154TIP3    H280931   3.997   1.468   3.077
10155TIP3   OH280932   4.743   1.713   2.905
10155TIP3    H180933   4.759   1.677   2.995
10155TIP3    H280934   4.833   1.741   2.878
10156TIP3   OH280935   4.973   1.838   2.834
10156TIP3    H180936   5.047   1.780   2.810
10156TIP3    H280937   5.012   1.882   2.913
10157TIP3   OH280938   5.475   0.109   2.737
10157TIP3    H180939   5.386   0.132   2.706
10157TIP3    H280940   5.488   0.021   2.705
10158TIP3   OH280941   4.774   1.844   2.438
10158TIP3    H180942   4.729   1.898   2.371
10158TIP3    H280943   4.790   1.907   2.511
10159TIP3   OH280944   5.001   1.728   2.543
10159TIP3    H180945   4.915   1.751   2.502
10159TIP3    H280946   5.051   1.810   2.529
10160TIP3   OH280947   5.261   1.881   2.561
10160TIP3    H180948   5.254   1.977   2.538
10160TIP3    H280949   5.283   1.844   2.474
10161TIP3   OH280950   5.314   0.049   2.140
10161TIP3    H180951   5.383   0.115   2.121
10161TIP3    H280952   5.232   0.100   2.154
10162TIP3   OH280953   5.502   0.176   2.011
10162TIP3    H180954   5.563   0.116   1.966
10162TIP3    H280955   5.549   0.263   2.014
10163TIP3   OH280956   5.056   0.103   2.098
10163TIP3    H180957   5.069   0.105   2.003
10163TIP3    H280958   5.035   0.009   2.112
10164TIP3   OH280959   5.189   0.112   1.648
10164TIP3    H180960   5.115   0.172   1.647
10164TIP3    H280961   5.157   0.028   1.685
10165TIP3   OH280962   4.621   0.298   1.626
10165TIP3    H180963   4.640   0.242   1.701
10165TIP3    H280964   4.617   0.386   1.667
10166TIP3   OH280965   4.805   1.805   1.466
10166TIP3    H180966   4.896   1.832   1.446
10166TIP3    H280967   4.782   1.759   1.384
10167TIP3   OH280968   5.478   1.760   1.737
10167TIP3    H180969   5.460   1.681   1.680
10167TIP3    H280970   5.471   1.832   1.671
10168TIP3   OH280971   5.088   0.033   3.086
10168TIP3    H180972   5.094  -0.027   3.161
10168TIP3    H280973   5.175   0.021   3.046
10169TIP3   OH280974   5.401   1.632   2.949
10169TIP3    H180975   5.323   1.617   2.892
10169TIP3    H280976   5.391   1.728   2.967
10170TIP3   OH280977   6.061   1.357   2.296
10170TIP3    H180978   6.026   1.272   2.270
10170TIP3    H280979   6.155   1.337   2.307
10171TIP3   OH280980   5.725   0.713   1.846
10171TIP3    H180981   5.683   0.800   1.839
10171TIP3    H280982   5.666   0.659   1.792
10172TIP3   OH280983   5.799   0.940   2.062
10172TIP3    H180984   5.817   0.854   2.106
10172TIP3    H280985   5.869   0.944   1.995
10173TIP3   OH280986   7.431   0.345   2.412
10173TIP3    H180987   7.446   0.404   2.490
10173TIP3    H280988   7.484   0.393   2.348
10174TIP3   OH280989   6.889   0.634   2.370
10174TIP3    H180990   6.900   0.538   2.372
10174TIP3    H280991   6.877   0.647   2.274
10175TIP3   OH280992   6.200   0.444   2.095
10175TIP3    H180993   6.207   0.528   2.045
10175TIP3    H280994   6.160   0.383   2.028
10176TIP3   OH280995   6.971   0.450   1.931
10176TIP3    H180996   7.037   0.417   1.996
10176TIP3    H280997   7.028   0.505   1.875
10177TIP3   OH280998   5.864   0.688   2.167
10177TIP3    H180999   5.926   0.628   2.213
10177TIP3    H281000   5.867   0.650   2.078
10178TIP3   OH281001   7.476   0.492   2.640
10178TIP3    H181002   7.412   0.566   2.630
10178TIP3    H281003   7.477   0.478   2.735
10179TIP3   OH281004   6.018   0.335   2.473
10179TIP3    H181005   6.046   0.410   2.418
10179TIP3    H281006   6.002   0.374   2.563
10180TIP3   OH281007   7.153   0.382   2.129
10180TIP3    H181008   7.129   0.305   2.182
10180TIP3    H281009   7.217   0.429   2.186
10181TIP3   OH281010   6.048   0.519   2.299
10181TIP3    H181011   6.107   0.589   2.330
10181TIP3    H281012   6.098   0.477   2.225
10182TIP3   OH281013   5.794   1.259   1.682
10182TIP3    H181014   5.764   1.288   1.593
10182TIP3    H281015   5.797   1.342   1.732
10183TIP3   OH281016   7.155   1.430   2.371
10183TIP3    H181017   7.059   1.427   2.366
10183TIP3    H281018   7.182   1.515   2.331
10184TIP3   OH281019   7.186   0.251   2.499
10184TIP3    H181020   7.114   0.315   2.489
10184TIP3    H281021   7.259   0.293   2.449
10185TIP3   OH281022   6.442  -0.026   2.189
10185TIP3    H181023   6.495  -0.065   2.260
10185TIP3    H281024   6.418   0.054   2.242
10186TIP3   OH281025   6.986   1.609   2.031
10186TIP3    H181026   7.019   1.537   1.975
10186TIP3    H281027   7.017   1.684   1.978
10187TIP3   OH281028   7.259   1.255   2.719
10187TIP3    H181029   7.277   1.187   2.650
10187TIP3    H281030   7.287   1.336   2.676
10188TIP3   OH281031   7.448   0.885   2.525
10188TIP3    H181032   7.382   0.957   2.528
10188TIP3    H281033   7.497   0.908   2.443
10189TIP3   OH281034   7.047   0.783   2.697
10189TIP3    H181035   7.051   0.863   2.752
10189TIP3    H281036   6.983   0.813   2.629
10190TIP3   OH281037   6.949   0.880   1.561
10190TIP3    H181038   7.004   0.900   1.637
10190TIP3    H281039   6.985   0.931   1.488
10191TIP3   OH281040   6.040   0.966   2.732
10191TIP3    H181041   6.047   1.031   2.804
10191TIP3    H281042   5.948   0.975   2.708
10192TIP3   OH281043   6.167   1.560   2.892
10192TIP3    H181044   6.168   1.538   2.796
10192TIP3    H281045   6.074   1.537   2.914
10193TIP3   OH281046   7.305   0.054   1.532
10193TIP3    H181047   7.217   0.072   1.570
10193TIP3    H281048   7.338   0.140   1.503
10194TIP3   OH281049   6.108   0.928   1.743
10194TIP3    H181050   6.086   1.008   1.692
10194TIP3    H281051   6.045   0.862   1.718
10195TIP3   OH281052   7.425   1.495   1.383
10195TIP3    H181053   7.441   1.590   1.394
10195TIP3    H281054   7.517   1.462   1.378
10196TIP3   OH281055   5.720   1.172   2.631
10196TIP3    H181056   5.680   1.171   2.541
10196TIP3    H281057   5.729   1.078   2.648
10197TIP3   OH281058   5.700   1.452   2.305
10197TIP3    H181059   5.795   1.437   2.307
10197TIP3    H281060   5.690   1.532   2.358
10198TIP3   OH281061   7.523   1.519   2.874
10198TIP3    H181062   7.514   1.423   2.873
10198TIP3    H281063   7.439   1.544   2.919
10199TIP3   OH281064   6.622   1.477   2.759
10199TIP3    H181065   6.625   1.559   2.812
10199TIP3    H281066   6.539   1.436   2.787
10200TIP3   OH281067   6.663   1.850   1.742
10200TIP3    H181068   6.655   1.840   1.646
10200TIP3    H281069   6.663   1.946   1.759
10201TIP3   OH281070   6.028   1.736   1.925
10201TIP3    H181071   6.041   1.693   2.012
10201TIP3    H281072   5.942   1.698   1.901
10202TIP3   OH281073   6.963   1.767   1.444
10202TIP3    H181074   7.011   1.697   1.395
10202TIP3    H281075   6.972   1.737   1.535
10203TIP3   OH281076   7.239   0.666   2.924
10203TIP3    H181077   7.192   0.711   2.853
10203TIP3    H281078   7.238   0.574   2.892
10204TIP3   OH281079   5.954   1.309   2.724
10204TIP3    H181080   5.977   1.270   2.811
10204TIP3    H281081   5.868   1.268   2.703
10205TIP3   OH281082   6.135   0.205   2.224
10205TIP3    H181083   6.084   0.135   2.267
10205TIP3    H281084   6.183   0.224   2.307
10206TIP3   OH281085   6.699   0.173   2.657
10206TIP3    H181086   6.741   0.102   2.706
10206TIP3    H281087   6.613   0.124   2.644
10207TIP3   OH281088   7.012   0.502   2.744
10207TIP3    H181089   6.958   0.485   2.825
10207TIP3    H281090   6.996   0.595   2.721
10208TIP3   OH281091   6.649   0.373   1.392
10208TIP3    H181092   6.618   0.375   1.485
10208TIP3    H281093   6.617   0.287   1.365
10209TIP3   OH281094   6.224   0.668   1.927
10209TIP3    H181095   6.131   0.640   1.916
10209TIP3    H281096   6.263   0.633   1.846
10210TIP3   OH281097   6.780   0.715   1.808
10210TIP3    H181098   6.735   0.792   1.772
10210TIP3    H281099   6.847   0.695   1.740
10211TIP3   OH281100   6.687   0.732   2.949
10211TIP3    H181101   6.633   0.658   2.984
10211TIP3    H281102   6.769   0.723   3.000
10212TIP3   OH281103   6.882   0.659   2.092
10212TIP3    H181104   6.853   0.716   2.018
10212TIP3    H281105   6.893   0.575   2.045
10213TIP3   OH281106   5.996   0.677   2.613
10213TIP3    H181107   5.994   0.723   2.698
10213TIP3    H281108   5.951   0.594   2.632
10214TIP3   OH281109   5.658   0.390   2.005
10214TIP3    H181110   5.724   0.387   2.077
10214TIP3    H281111   5.705   0.349   1.931
10215TIP3   OH281112   5.785   0.462   1.551
10215TIP3    H181113   5.834   0.520   1.491
10215TIP3    H281114   5.715   0.524   1.581
10216TIP3   OH281115   6.803   0.821   2.553
10216TIP3    H181116   6.832   0.756   2.486
10216TIP3    H281117   6.755   0.766   2.616
10217TIP3   OH281118   6.486   0.429   2.027
10217TIP3    H181119   6.392   0.419   2.054
10217TIP3    H281120   6.533   0.408   2.108
10218TIP3   OH281121   5.963   0.573   1.920
10218TIP3    H181122   5.875   0.585   1.880
10218TIP3    H281123   5.994   0.489   1.881
10219TIP3   OH281124   6.327   0.580   1.680
10219TIP3    H181125   6.422   0.589   1.699
10219TIP3    H281126   6.305   0.649   1.614
10220TIP3   OH281127   6.923   0.337   2.354
10220TIP3    H181128   6.856   0.348   2.425
10220TIP3    H281129   6.871   0.316   2.275
10221TIP3   OH281130   6.196   0.693   1.439
10221TIP3    H181131   6.143   0.657   1.367
10221TIP3    H281132   6.278   0.719   1.394
10222TIP3   OH281133   7.243   1.905   2.991
10222TIP3    H181134   7.272   1.945   2.907
10222TIP3    H281135   7.314   1.937   3.048
10223TIP3   OH281136   6.010   1.152   2.945
10223TIP3    H181137   6.082   1.176   3.005
10223TIP3    H281138   5.932   1.164   3.003
10224TIP3   OH281139   6.616   0.692   2.220
10224TIP3    H181140   6.671   0.635   2.166
10224TIP3    H281141   6.595   0.640   2.299
10225TIP3   OH281142   6.120   0.316   1.863
10225TIP3    H181143   6.082   0.226   1.862
10225TIP3    H281144   6.193   0.305   1.801
10226TIP3   OH281145   6.491   0.579   2.452
10226TIP3    H181146   6.396   0.589   2.475
10226TIP3    H281147   6.535   0.569   2.538
10227TIP3   OH281148   7.251   1.070   2.509
10227TIP3    H181149   7.309   1.118   2.448
10227TIP3    H281150   7.165   1.076   2.462
10228TIP3   OH281151   6.918   0.430   1.450
10228TIP3    H181152   6.824   0.446   1.432
10228TIP3    H281153   6.949   0.517   1.481
10229TIP3   OH281154   6.990   0.624   1.620
10229TIP3    H181155   7.081   0.606   1.652
10229TIP3    H281156   6.997   0.703   1.563
10230TIP3   OH281157   6.912   1.428   2.748
10230TIP3    H181158   6.816   1.433   2.728
10230TIP3    H281159   6.908   1.444   2.845
10231TIP3   OH281160   7.471   0.640   1.593
10231TIP3    H181161   7.427   0.603   1.516
10231TIP3    H281162   7.489   0.731   1.561
10232TIP3   OH281163   7.479   1.222   2.870
10232TIP3    H181164   7.390   1.244   2.834
10232TIP3    H281165   7.534   1.218   2.789
10233TIP3   OH281166   7.308   1.519   1.630
10233TIP3    H181167   7.272   1.435   1.662
10233TIP3    H281168   7.339   1.499   1.540
10234TIP3   OH281169   7.028   1.000   2.342
10234TIP3    H181170   6.936   0.976   2.333
10234TIP3    H281171   7.072   0.926   2.297
10235TIP3   OH281172   6.282   1.436   1.952
10235TIP3    H181173   6.332   1.515   1.926
10235TIP3    H281174   6.194   1.454   1.918
10236TIP3   OH281175   5.855   0.918   1.406
10236TIP3    H181176   5.916   0.981   1.448
10236TIP3    H281177   5.769   0.950   1.433
10237TIP3   OH281178   6.468   1.620   2.542
10237TIP3    H181179   6.514   1.699   2.511
10237TIP3    H281180   6.528   1.586   2.610
10238TIP3   OH281181   6.289   1.699   1.862
10238TIP3    H181182   6.193   1.715   1.868
10238TIP3    H281183   6.327   1.783   1.889
10239TIP3   OH281184   7.105   1.684   2.783
10239TIP3    H181185   7.037   1.622   2.751
10239TIP3    H281186   7.129   1.754   2.719
10240TIP3   OH281187   7.499   1.764   1.435
10240TIP3    H181188   7.571   1.827   1.416
10240TIP3    H281189   7.428   1.823   1.468
10241TIP3   OH281190   5.907   0.400   2.697
10241TIP3    H181191   5.816   0.433   2.694
10241TIP3    H281192   5.893   0.314   2.741
10242TIP3   OH281193   5.869   1.582   2.536
10242TIP3    H181194   5.898   1.489   2.539
10242TIP3    H281195   5.897   1.610   2.624
10243TIP3   OH281196   5.984   1.112   1.549
10243TIP3    H181197   5.925   1.151   1.617
10243TIP3    H281198   6.047   1.185   1.538
10244TIP3   OH281199   6.783   0.394   2.586
10244TIP3    H181200   6.853   0.387   2.652
10244TIP3    H281201   6.746   0.302   2.600
10245TIP3   OH281202   6.859   0.335   1.700
10245TIP3    H181203   6.879   0.386   1.618
10245TIP3    H281204   6.915   0.382   1.764
10246TIP3   OH281205   6.581   0.510   1.779
10246TIP3    H181206   6.657   0.571   1.784
10246TIP3    H281207   6.550   0.503   1.872
10247TIP3   OH281208   6.630   0.614   2.701
10247TIP3    H181209   6.647   0.670   2.780
10247TIP3    H281210   6.699   0.545   2.707
10248TIP3   OH281211   6.665   0.217   1.869
10248TIP3    H181212   6.630   0.283   1.933
10248TIP3    H281213   6.734   0.272   1.825
10249TIP3   OH281214   6.358   1.655   1.579
10249TIP3    H181215   6.377   1.737   1.530
10249TIP3    H281216   6.339   1.689   1.668
10250TIP3   OH281217   6.219   0.334   1.588
10250TIP3    H181218   6.226   0.430   1.584
10250TIP3    H281219   6.312   0.310   1.569
10251TIP3   OH281220   7.251   0.402   2.782
10251TIP3    H181221   7.158   0.433   2.770
10251TIP3    H281222   7.283   0.399   2.690
10252TIP3   OH281223   7.114   0.779   2.186
10252TIP3    H181224   7.031   0.736   2.159
10252TIP3    H281225   7.161   0.710   2.237
10253TIP3   OH281226   7.215   1.712   2.357
10253TIP3    H181227   7.210   1.774   2.281
10253TIP3    H281228   7.314   1.710   2.368
10254TIP3   OH281229   5.903   0.125   2.223
10254TIP3    H181230   5.939   0.130   2.130
10254TIP3    H281231   5.918   0.035   2.248
10255TIP3   OH281232   5.862   1.512   1.849
10255TIP3    H181233   5.778   1.558   1.842
10255TIP3    H281234   5.913   1.556   1.779
10256TIP3   OH281235   5.788   1.775   2.975
10256TIP3    H181236   5.845   1.754   3.051
10256TIP3    H281237   5.744   1.690   2.958
10257TIP3   OH281238   6.258   1.669   3.133
10257TIP3    H181239   6.325   1.609   3.169
10257TIP3    H281240   6.243   1.632   3.042
10258TIP3   OH281241   6.907   1.504   3.005
10258TIP3    H181242   6.872   1.418   3.038
10258TIP3    H281243   6.980   1.518   3.069
10259TIP3   OH281244   7.124   1.594   1.295
10259TIP3    H181245   7.155   1.516   1.344
10259TIP3    H281246   7.200   1.620   1.242
10260TIP3   OH281247   5.777   1.152   3.075
10260TIP3    H181248   5.795   1.061   3.041
10260TIP3    H281249   5.703   1.179   3.017
10261TIP3   OH281250   7.016   1.137   2.753
10261TIP3    H181251   7.094   1.195   2.743
10261TIP3    H281252   6.945   1.202   2.757
10262TIP3   OH281253   5.864   0.875   3.013
10262TIP3    H181254   5.908   0.790   3.003
10262TIP3    H281255   5.845   0.877   3.109
10263TIP3   OH281256   6.766   1.030   3.096
10263TIP3    H181257   6.859   1.023   3.070
10263TIP3    H281258   6.748   0.947   3.142
10264TIP3   OH281259   6.302   0.513   2.864
10264TIP3    H181260   6.311   0.444   2.798
10264TIP3    H281261   6.295   0.587   2.802
10265TIP3   OH281262   6.295   0.447   2.616
10265TIP3    H181263   6.373   0.437   2.557
10265TIP3    H281264   6.250   0.366   2.586
10266TIP3   OH281265   6.931   0.670   3.128
10266TIP3    H181266   6.954   0.576   3.123
10266TIP3    H281267   7.018   0.713   3.131
10267TIP3   OH281268   7.067   0.950   2.945
10267TIP3    H181269   7.038   1.021   2.883
10267TIP3    H281270   7.163   0.948   2.925
10268TIP3   OH281271   6.143   0.631   3.052
10268TIP3    H181272   6.065   0.577   3.029
10268TIP3    H281273   6.207   0.597   2.987
10269TIP3   OH281274   6.465   0.107   2.698
10269TIP3    H181275   6.424   0.189   2.667
10269TIP3    H281276   6.399   0.057   2.641
10270TIP3   OH281277   6.544   0.526   3.010
10270TIP3    H181278   6.515   0.498   3.099
10270TIP3    H281279   6.466   0.502   2.957
10271TIP3   OH281280   6.816   0.439   2.919
10271TIP3    H181281   6.720   0.442   2.933
10271TIP3    H281282   6.844   0.374   2.987
10272TIP3   OH281283   6.972   0.301   3.111
10272TIP3    H181284   6.970   0.203   3.113
10272TIP3    H281285   6.948   0.327   3.203
10273TIP3   OH281286   5.954   0.426   3.021
10273TIP3    H181287   5.977   0.352   2.962
10273TIP3    H281288   5.946   0.379   3.107
10274TIP3   OH281289   6.445   0.051   2.938
10274TIP3    H181290   6.508  -0.022   2.926
10274TIP3    H281291   6.427   0.059   2.841
10275TIP3   OH281292   6.479   0.197   3.137
10275TIP3    H181293   6.464   0.143   3.055
10275TIP3    H281294   6.416   0.269   3.122
10276TIP3   OH281295   6.425   1.885   1.443
10276TIP3    H181296   6.521   1.890   1.453
10276TIP3    H281297   6.404   1.949   1.375
10277TIP3   OH281298   5.790   1.345   1.393
10277TIP3    H181299   5.884   1.351   1.414
10277TIP3    H281300   5.781   1.279   1.323
10278TIP3   OH281301   5.656   1.881   1.890
10278TIP3    H181302   5.587   1.831   1.842
10278TIP3    H281303   5.686   1.814   1.955
10279TIP3   OH281304   5.734   1.689   2.078
10279TIP3    H181305   5.702   1.601   2.100
10279TIP3    H281306   5.759   1.723   2.165
10280TIP3   OH281307   7.485   1.776   2.374
10280TIP3    H181308   7.496   1.788   2.470
10280TIP3    H281309   7.563   1.824   2.342
10281TIP3   OH281310   7.441   1.730   2.667
10281TIP3    H181311   7.406   1.649   2.626
10281TIP3    H281312   7.499   1.688   2.734
10282TIP3   OH281313   7.294   1.302   3.132
10282TIP3    H181314   7.205   1.299   3.171
10282TIP3    H281315   7.332   1.380   3.179
10283TIP3   OH281316   7.424   1.132   1.675
10283TIP3    H181317   7.511   1.174   1.693
10283TIP3    H281318   7.423   1.062   1.744
10284TIP3   OH281319   7.461   0.943   1.863
10284TIP3    H181320   7.388   0.890   1.903
10284TIP3    H281321   7.521   0.958   1.938
10285TIP3   OH281322   7.441   1.213   2.362
10285TIP3    H181323   7.521   1.175   2.324
10285TIP3    H281324   7.456   1.308   2.345
10286TIP3   OH281325   7.290   1.507   2.587
10286TIP3    H181326   7.225   1.526   2.656
10286TIP3    H281327   7.240   1.458   2.518
10287TIP3   OH281328   7.468   0.920   1.511
10287TIP3    H181329   7.436   0.960   1.430
10287TIP3    H281330   7.483   0.997   1.569
10288TIP3   OH281331   7.245   0.790   1.920
10288TIP3    H181332   7.226   0.696   1.918
10288TIP3    H281333   7.208   0.815   2.007
10289TIP3   OH281334   5.747   1.005   2.325
10289TIP3    H181335   5.763   0.988   2.230
10289TIP3    H281336   5.833   0.981   2.361
10290TIP3   OH281337   7.328   0.988   2.889
10290TIP3    H181338   7.388   0.912   2.903
10290TIP3    H281339   7.389   1.065   2.890
10291TIP3   OH281340   7.479   0.775   2.955
10291TIP3    H181341   7.391   0.735   2.940
10291TIP3    H281342   7.537   0.697   2.947
10292TIP3   OH281343   7.246   0.392   1.268
10292TIP3    H181344   7.310   0.353   1.332
10292TIP3    H281345   7.164   0.347   1.288
10293TIP3   OH281346   7.211   0.547   1.769
10293TIP3    H181347   7.241   0.454   1.779
10293TIP3    H281348   7.290   0.587   1.729
10294TIP3   OH281349   7.274   0.598   2.313
10294TIP3    H181350   7.369   0.627   2.309
10294TIP3    H281351   7.254   0.617   2.406
10295TIP3   OH281352   7.279   0.677   2.588
10295TIP3    H181353   7.191   0.706   2.621
10295TIP3    H281354   7.323   0.762   2.567
10296TIP3   OH281355   5.707   0.529   2.943
10296TIP3    H181356   5.800   0.505   2.959
10296TIP3    H281357   5.660   0.447   2.969
10297TIP3   OH281358   7.514   0.088   3.129
10297TIP3    H181359   7.535   0.016   3.065
10297TIP3    H281360   7.514   0.165   3.071
10298TIP3   OH281361   7.265   0.280   1.774
10298TIP3    H181362   7.294   0.232   1.855
10298TIP3    H281363   7.215   0.211   1.727
10299TIP3   OH281364   5.820   0.364   2.225
10299TIP3    H181365   5.868   0.281   2.250
10299TIP3    H281366   5.877   0.431   2.266
10300TIP3   OH281367   7.461   0.291   2.957
10300TIP3    H181368   7.366   0.314   2.956
10300TIP3    H281369   7.462   0.230   2.881
10301TIP3   OH281370   7.460   0.281   1.426
10301TIP3    H181371   7.503   0.210   1.378
10301TIP3    H281372   7.531   0.348   1.431
10302TIP3   OH281373   5.687   0.285   1.743
10302TIP3    H181374   5.593   0.303   1.726
10302TIP3    H281375   5.732   0.332   1.670
10303TIP3   OH281376   7.164   1.781   1.933
10303TIP3    H181377   7.231   1.748   1.871
10303TIP3    H281378   7.220   1.824   1.999
10304TIP3   OH281379   5.688   0.155   2.570
10304TIP3    H181380   5.622   0.133   2.639
10304TIP3    H281381   5.643   0.218   2.513
10305TIP3   OH281382   5.909   1.473   2.986
10305TIP3    H181383   5.824   1.490   2.942
10305TIP3    H281384   5.881   1.463   3.078
10306TIP3   OH281385   6.199   1.570   2.612
10306TIP3    H181386   6.165   1.656   2.585
10306TIP3    H281387   6.291   1.578   2.581
10307TIP3   OH281388   6.630   1.715   2.907
10307TIP3    H181389   6.648   1.675   2.996
10307TIP3    H281390   6.720   1.743   2.878
10308TIP3   OH281391   6.860   1.838   2.832
10308TIP3    H181392   6.933   1.779   2.815
10308TIP3    H281393   6.896   1.884   2.912
10309TIP3   OH281394   7.355   0.104   2.748
10309TIP3    H181395   7.274   0.134   2.706
10309TIP3    H281396   7.380   0.027   2.702
10310TIP3   OH281397   5.942   1.894   2.611
10310TIP3    H181398   5.867   1.943   2.573
10310TIP3    H281399   5.910   1.874   2.701
10311TIP3   OH281400   6.189   1.853   2.516
10311TIP3    H181401   6.101   1.863   2.560
10311TIP3    H281402   6.175   1.910   2.441
10312TIP3   OH281403   6.656   1.843   2.440
10312TIP3    H181404   6.613   1.899   2.374
10312TIP3    H281405   6.676   1.906   2.511
10313TIP3   OH281406   7.143   1.876   2.561
10313TIP3    H181407   7.137   1.974   2.545
10313TIP3    H281408   7.171   1.848   2.472
10314TIP3   OH281409   5.884   1.756   2.306
10314TIP3    H181410   5.879   1.713   2.394
10314TIP3    H281411   5.966   1.721   2.267
10315TIP3   OH281412   6.097   1.630   2.175
10315TIP3    H181413   6.077   1.536   2.195
10315TIP3    H281414   6.181   1.640   2.220
10316TIP3   OH281415   6.729   0.262   2.140
10316TIP3    H181416   6.658   0.203   2.175
10316TIP3    H281417   6.780   0.188   2.105
10317TIP3   OH281418   7.195   0.050   2.113
10317TIP3    H181419   7.269   0.114   2.120
10317TIP3    H281420   7.119   0.093   2.155
10318TIP3   OH281421   7.394   0.174   2.011
10318TIP3    H181422   7.450   0.113   1.963
10318TIP3    H281423   7.436   0.261   2.015
10319TIP3   OH281424   5.953   0.163   1.974
10319TIP3    H181425   5.883   0.120   1.921
10319TIP3    H281426   6.014   0.085   1.974
10320TIP3   OH281427   5.809   0.109   1.584
10320TIP3    H181428   5.850   0.147   1.504
10320TIP3    H281429   5.728   0.161   1.593
10321TIP3   OH281430   6.418   0.149   1.983
10321TIP3    H181431   6.497   0.127   1.936
10321TIP3    H281432   6.398   0.070   2.039
10322TIP3   OH281433   6.944   0.101   2.099
10322TIP3    H181434   6.956   0.107   2.003
10322TIP3    H281435   6.921   0.007   2.111
10323TIP3   OH281436   7.072   0.110   1.648
10323TIP3    H181437   6.998   0.170   1.652
10323TIP3    H281438   7.044   0.026   1.687
10324TIP3   OH281439   5.803   1.677   1.631
10324TIP3    H181440   5.736   1.677   1.560
10324TIP3    H281441   5.807   1.772   1.650
10325TIP3   OH281442   5.997   0.301   1.403
10325TIP3    H181443   6.045   0.238   1.349
10325TIP3    H281444   6.070   0.319   1.463
10326TIP3   OH281445   6.503   0.301   1.621
10326TIP3    H181446   6.524   0.243   1.696
10326TIP3    H281447   6.504   0.386   1.671
10327TIP3   OH281448   6.691   1.815   1.461
10327TIP3    H181449   6.786   1.832   1.446
10327TIP3    H281450   6.670   1.754   1.388
10328TIP3   OH281451   7.364   1.757   1.736
10328TIP3    H181452   7.344   1.678   1.680
10328TIP3    H281453   7.354   1.830   1.672
10329TIP3   OH281454   5.926   0.162   2.909
10329TIP3    H181455   5.889   0.080   2.943
10329TIP3    H281456   6.019   0.154   2.940
10330TIP3   OH281457   6.131   0.099   3.075
10330TIP3    H181458   6.214   0.067   3.036
10330TIP3    H281459   6.091   0.015   3.100
10331TIP3   OH281460   5.987   1.769   1.326
10331TIP3    H181461   5.964   1.799   1.415
10331TIP3    H281462   6.067   1.719   1.345
10332TIP3   OH281463   6.973   0.033   3.084
10332TIP3    H181464   6.979  -0.026   3.160
10332TIP3    H281465   7.061   0.021   3.045
10333TIP3   OH281466   7.291   1.631   2.950
10333TIP3    H181467   7.210   1.618   2.898
10333TIP3    H281468   7.280   1.726   2.970
10334TIP3   OH281469   7.865   0.893   2.440
10334TIP3    H181470   7.857   0.841   2.519
10334TIP3    H281471   7.915   0.970   2.472
10335TIP3   OH281472   8.000   1.443   2.159
10335TIP3    H181473   7.969   1.351   2.192
10335TIP3    H281474   8.033   1.385   2.237
10336TIP3   OH281475   7.610   0.709   1.843
10336TIP3    H181476   7.569   0.799   1.842
10336TIP3    H281477   7.552   0.660   1.785
10337TIP3   OH281478   7.681   0.932   2.060
10337TIP3    H181479   7.710   0.853   2.109
10337TIP3    H281480   7.754   0.944   1.997
10338TIP3   OH281481   8.038   0.466   2.119
10338TIP3    H181482   8.091   0.528   2.065
10338TIP3    H281483   8.045   0.392   2.057
10339TIP3   OH281484   7.742   0.678   2.169
10339TIP3    H181485   7.813   0.628   2.213
10339TIP3    H281486   7.757   0.652   2.076
10340TIP3   OH281487   7.976   0.336   2.506
10340TIP3    H181488   7.944   0.386   2.427
10340TIP3    H281489   7.902   0.354   2.568
10341TIP3   OH281490   7.917   0.523   2.325
10341TIP3    H181491   7.989   0.588   2.338
10341TIP3    H281492   7.961   0.481   2.245
10342TIP3   OH281493   8.071   1.280   2.643
10342TIP3    H181494   8.057   1.364   2.604
10342TIP3    H281495   7.976   1.272   2.664
10343TIP3   OH281496   7.657   1.251   1.688
10343TIP3    H181497   7.652   1.282   1.595
10343TIP3    H281498   7.680   1.333   1.735
10344TIP3   OH281499   8.105   0.997   2.025
10344TIP3    H181500   8.063   0.999   1.935
10344TIP3    H281501   8.182   0.942   2.020
10345TIP3   OH281502   7.863   1.041   2.655
10345TIP3    H181503   7.922   1.046   2.735
10345TIP3    H281504   7.805   0.973   2.695
10346TIP3   OH281505   8.048   1.560   2.900
10346TIP3    H181506   8.058   1.542   2.804
10346TIP3    H281507   7.957   1.527   2.914
10347TIP3   OH281508   7.938   0.975   1.824
10347TIP3    H181509   7.961   1.010   1.735
10347TIP3    H281510   7.960   0.882   1.796
10348TIP3   OH281511   7.604   1.176   2.631
10348TIP3    H181512   7.564   1.167   2.543
10348TIP3    H281513   7.621   1.082   2.651
10349TIP3   OH281514   7.554   1.460   2.300
10349TIP3    H181515   7.648   1.429   2.302
10349TIP3    H281516   7.565   1.534   2.359
10350TIP3   OH281517   7.894   1.751   1.936
10350TIP3    H181518   7.926   1.700   2.015
10350TIP3    H281519   7.824   1.696   1.902
10351TIP3   OH281520   7.834   1.316   2.730
10351TIP3    H181521   7.862   1.267   2.811
10351TIP3    H281522   7.753   1.266   2.703
10352TIP3   OH281523   8.117   0.207   2.329
10352TIP3    H181524   8.043   0.152   2.287
10352TIP3    H281525   8.078   0.276   2.377
10353TIP3   OH281526   8.110   0.643   2.468
10353TIP3    H181527   8.024   0.652   2.515
10353TIP3    H281528   8.108   0.725   2.412
10354TIP3   OH281529   8.109   0.670   1.923
10354TIP3    H181530   8.016   0.639   1.918
10354TIP3    H281531   8.149   0.632   1.845
10355TIP3   OH281532   7.884   0.677   2.617
10355TIP3    H181533   7.880   0.719   2.704
10355TIP3    H281534   7.832   0.595   2.629
10356TIP3   OH281535   7.544   0.395   2.009
10356TIP3    H181536   7.612   0.388   2.080
10356TIP3    H281537   7.584   0.352   1.935
10357TIP3   OH281538   7.678   0.464   1.563
10357TIP3    H181539   7.717   0.517   1.489
10357TIP3    H281540   7.600   0.519   1.580
10358TIP3   OH281541   7.844   0.572   1.926
10358TIP3    H181542   7.760   0.592   1.878
10358TIP3    H281543   7.878   0.494   1.881
10359TIP3   OH281544   8.147   0.622   1.442
10359TIP3    H181545   8.056   0.629   1.404
10359TIP3    H281546   8.175   0.708   1.408
10360TIP3   OH281547   7.896   1.156   2.947
10360TIP3    H181548   7.971   1.178   3.004
10360TIP3    H281549   7.819   1.168   3.005
10361TIP3   OH281550   7.911   1.005   2.223
10361TIP3    H181551   7.978   1.055   2.171
10361TIP3    H281552   7.960   0.957   2.286
10362TIP3   OH281553   7.627   0.927   2.740
10362TIP3    H181554   7.644   0.884   2.826
10362TIP3    H281555   7.564   0.868   2.695
10363TIP3   OH281556   7.703   0.952   1.414
10363TIP3    H181557   7.781   0.989   1.464
10363TIP3    H281558   7.622   0.976   1.459
10364TIP3   OH281559   7.793   0.399   2.693
10364TIP3    H181560   7.703   0.436   2.692
10364TIP3    H281561   7.778   0.316   2.742
10365TIP3   OH281562   7.747   1.601   2.559
10365TIP3    H181563   7.777   1.510   2.535
10365TIP3    H281564   7.789   1.612   2.644
10366TIP3   OH281565   7.835   1.122   1.560
10366TIP3    H181566   7.795   1.168   1.635
10366TIP3    H281567   7.910   1.181   1.537
10367TIP3   OH281568  -0.051   0.320   1.523
10367TIP3    H181569  -0.047   0.411   1.556
10367TIP3    H281570   0.043   0.302   1.539
10368TIP3   OH281571   7.935   1.391   1.468
10368TIP3    H181572   8.012   1.447   1.483
10368TIP3    H281573   7.970   1.339   1.393
10369TIP3   OH281574   7.748   0.599   1.354
10369TIP3    H181575   7.772   0.693   1.372
10369TIP3    H281576   7.661   0.612   1.317
10370TIP3   OH281577   7.648   1.511   1.884
10370TIP3    H181578   7.609   1.589   1.846
10370TIP3    H281579   7.727   1.528   1.830
10371TIP3   OH281580   7.679   1.775   2.971
10371TIP3    H181581   7.726   1.754   3.053
10371TIP3    H281582   7.627   1.694   2.957
10372TIP3   OH281583   7.661   1.151   3.075
10372TIP3    H181584   7.680   1.061   3.041
10372TIP3    H281585   7.588   1.179   3.016
10373TIP3   OH281586   7.751   0.877   3.013
10373TIP3    H181587   7.791   0.790   3.003
10373TIP3    H281588   7.730   0.877   3.108
10374TIP3   OH281589   8.026   0.636   3.055
10374TIP3    H181590   7.950   0.578   3.031
10374TIP3    H281591   8.092   0.607   2.989
10375TIP3   OH281592   7.847   0.425   3.019
10375TIP3    H181593   7.860   0.347   2.961
10375TIP3    H281594   7.830   0.382   3.105
10376TIP3   OH281595   7.662   1.337   1.400
10376TIP3    H181596   7.757   1.354   1.416
10376TIP3    H281597   7.665   1.280   1.322
10377TIP3   OH281598   7.541   1.885   1.891
10377TIP3    H181599   7.472   1.834   1.844
10377TIP3    H281600   7.569   1.817   1.956
10378TIP3   OH281601   7.622   1.694   2.080
10378TIP3    H181602   7.593   1.603   2.095
10378TIP3    H281603   7.648   1.725   2.168
10379TIP3   OH281604   7.625   0.987   2.333
10379TIP3    H181605   7.645   0.988   2.236
10379TIP3    H281606   7.718   0.980   2.362
10380TIP3   OH281607   7.596   0.529   2.941
10380TIP3    H181608   7.687   0.503   2.962
10380TIP3    H281609   7.546   0.448   2.968
10381TIP3   OH281610   7.709   0.354   2.225
10381TIP3    H181611   7.760   0.279   2.255
10381TIP3    H281612   7.763   0.426   2.263
10382TIP3   OH281613   7.536   0.658   2.332
10382TIP3    H181614   7.594   0.633   2.256
10382TIP3    H281615   7.584   0.737   2.358
10383TIP3   OH281616   7.792   1.477   2.988
10383TIP3    H181617   7.708   1.483   2.939
10383TIP3    H281618   7.762   1.461   3.078
10384TIP3   OH281619   8.124   1.629   2.663
10384TIP3    H181620   8.056   1.654   2.597
10384TIP3    H281621   8.182   1.587   2.595
10385TIP3   OH281622   7.828   1.893   2.614
10385TIP3    H181623   7.755   1.940   2.570
10385TIP3    H281624   7.788   1.873   2.699
10386TIP3   OH281625   8.058   1.832   2.504
10386TIP3    H181626   7.981   1.862   2.556
10386TIP3    H281627   8.071   1.906   2.440
10387TIP3   OH281628   7.766   1.754   2.308
10387TIP3    H181629   7.766   1.715   2.397
10387TIP3    H281630   7.853   1.728   2.267
10388TIP3   OH281631   7.975   1.671   2.173
10388TIP3    H181632   7.959   1.572   2.175
10388TIP3    H281633   8.064   1.657   2.208
10389TIP3   OH281634   7.669   1.686   1.638
10389TIP3    H181635   7.616   1.684   1.557
10389TIP3    H281636   7.690   1.780   1.646
10390TIP3   OH281637   7.815   0.163   2.907
10390TIP3    H181638   7.776   0.082   2.943
10390TIP3    H281639   7.905   0.152   2.940
10391TIP3   OH281640   8.020   0.099   3.069
10391TIP3    H181641   8.100   0.057   3.033
10391TIP3    H281642   7.972   0.018   3.098
10392TIP3   OH281643   7.869   1.763   1.328
10392TIP3    H181644   7.846   1.801   1.414
10392TIP3    H281645   7.953   1.720   1.345
10393TIP3   OH281646   1.185   2.906   1.953
10393TIP3    H181647   1.190   3.002   1.936
10393TIP3    H281648   1.123   2.879   1.881
10394TIP3   OH281649   1.089   2.811   2.281
10394TIP3    H181650   1.075   2.749   2.354
10394TIP3    H281651   1.040   2.770   2.206
10395TIP3   OH281652   1.439   3.125   2.121
10395TIP3    H181653   1.403   3.051   2.171
10395TIP3    H281654   1.450   3.194   2.188
10396TIP3   OH281655   0.401   3.244   2.299
10396TIP3    H181656   0.373   3.155   2.269
10396TIP3    H281657   0.497   3.226   2.306
10397TIP3   OH281658   0.897   3.088   2.325
10397TIP3    H181659   0.930   3.022   2.261
10397TIP3    H281660   0.970   3.120   2.378
10398TIP3   OH281661   1.228   2.517   2.371
10398TIP3    H181662   1.246   2.420   2.372
10398TIP3    H281663   1.220   2.531   2.275
10399TIP3   OH281664   1.317   2.341   1.936
10399TIP3    H181665   1.383   2.303   1.995
10399TIP3    H281666   1.371   2.391   1.873
10400TIP3   OH281667   0.721   2.721   2.110
10400TIP3    H181668   0.792   2.662   2.136
10400TIP3    H281669   0.672   2.665   2.048
10401TIP3   OH281670   1.821   2.378   2.640
10401TIP3    H181671   1.756   2.451   2.629
10401TIP3    H281672   1.822   2.368   2.735
10402TIP3   OH281673   1.162   3.164   1.856
10402TIP3    H181674   1.135   3.135   1.767
10402TIP3    H281675   1.132   3.255   1.859
10403TIP3   OH281676   0.691   2.984   2.524
10403TIP3    H181677   0.613   3.041   2.544
10403TIP3    H281678   0.752   3.048   2.494
10404TIP3   OH281679   0.528   3.180   2.605
10404TIP3    H181680   0.522   3.270   2.569
10404TIP3    H281681   0.439   3.170   2.647
10405TIP3   OH281682   0.129   3.148   1.685
10405TIP3    H181683   0.113   3.172   1.592
10405TIP3    H281684   0.139   3.231   1.731
10406TIP3   OH281685   1.498   3.306   2.363
10406TIP3    H181686   1.402   3.319   2.374
10406TIP3    H281687   1.525   3.396   2.339
10407TIP3   OH281688   1.450   3.278   1.869
10407TIP3    H181689   1.415   3.211   1.808
10407TIP3    H281690   1.444   3.231   1.954
10408TIP3   OH281691   1.629   3.140   2.694
10408TIP3    H181692   1.623   3.075   2.623
10408TIP3    H281693   1.631   3.229   2.656
10409TIP3   OH281694   1.105   2.857   1.700
10409TIP3    H181695   1.014   2.879   1.672
10409TIP3    H281696   1.143   2.832   1.616
10410TIP3   OH281697   1.062   2.679   1.403
10410TIP3    H181698   1.133   2.680   1.467
10410TIP3    H281699   1.092   2.615   1.337
10411TIP3   OH281700   1.792   2.772   2.523
10411TIP3    H181701   1.725   2.844   2.530
10411TIP3    H281702   1.841   2.793   2.442
10412TIP3   OH281703   1.396   2.847   1.785
10412TIP3    H181704   1.324   2.875   1.846
10412TIP3    H281705   1.447   2.785   1.841
10413TIP3   OH281706   1.391   2.666   2.700
10413TIP3    H181707   1.396   2.747   2.754
10413TIP3    H281708   1.330   2.697   2.631
10414TIP3   OH281709   0.693   3.261   2.248
10414TIP3    H181710   0.690   3.205   2.169
10414TIP3    H281711   0.770   3.220   2.292
10415TIP3   OH281712   1.237   3.345   2.423
10415TIP3    H181713   1.202   3.411   2.483
10415TIP3    H281714   1.211   3.261   2.464
10416TIP3   OH281715   0.690   3.236   2.813
10416TIP3    H181716   0.650   3.309   2.864
10416TIP3    H281717   0.619   3.214   2.748
10417TIP3   OH281718   1.300   2.758   1.546
10417TIP3    H181719   1.336   2.788   1.634
10417TIP3    H281720   1.327   2.827   1.485
10418TIP3   OH281721   0.384   2.849   2.738
10418TIP3    H181722   0.385   2.920   2.804
10418TIP3    H281723   0.294   2.859   2.704
10419TIP3   OH281724   0.511   3.436   2.889
10419TIP3    H181725   0.505   3.425   2.793
10419TIP3    H281726   0.418   3.425   2.917
10420TIP3   OH281727   0.108   3.039   2.608
10420TIP3    H181728   0.030   3.060   2.554
10420TIP3    H281729   0.074   2.960   2.654
10421TIP3   OH281730   0.048   3.335   2.303
10421TIP3    H181731   0.143   3.318   2.303
10421TIP3    H281732   0.043   3.405   2.363
10422TIP3   OH281733   1.864   3.406   2.875
10422TIP3    H181734   1.858   3.308   2.874
10422TIP3    H281735   1.780   3.424   2.919
10423TIP3   OH281736   0.966   3.354   2.766
10423TIP3    H181737   0.970   3.442   2.810
10423TIP3    H281738   0.875   3.326   2.788
10424TIP3   OH281739   0.370   3.621   1.923
10424TIP3    H181740   0.386   3.582   2.013
10424TIP3    H281741   0.288   3.576   1.902
10425TIP3   OH281742   1.581   2.549   2.924
10425TIP3    H181743   1.538   2.599   2.853
10425TIP3    H281744   1.580   2.458   2.892
10426TIP3   OH281745   0.288   3.203   2.726
10426TIP3    H181746   0.314   3.155   2.808
10426TIP3    H281747   0.209   3.149   2.700
10427TIP3   OH281748   1.356   2.389   2.743
10427TIP3    H181749   1.302   2.371   2.823
10427TIP3    H281750   1.342   2.483   2.722
10428TIP3   OH281751   1.123   2.598   1.809
10428TIP3    H181752   1.078   2.680   1.778
10428TIP3    H281753   1.188   2.584   1.739
10429TIP3   OH281754   1.026   2.620   2.954
10429TIP3    H181755   0.974   2.541   2.983
10429TIP3    H281756   1.111   2.608   2.999
10430TIP3   OH281757   1.220   2.548   2.092
10430TIP3    H181758   1.195   2.603   2.016
10430TIP3    H281759   1.235   2.463   2.045
10431TIP3   OH281760   1.142   2.710   2.544
10431TIP3    H181761   1.183   2.639   2.489
10431TIP3    H281762   1.103   2.655   2.616
10432TIP3   OH281763   0.826   2.301   2.033
10432TIP3    H181764   0.733   2.304   2.057
10432TIP3    H281765   0.876   2.289   2.114
10433TIP3   OH281766   1.263   2.231   2.357
10433TIP3    H181767   1.197   2.235   2.428
10433TIP3    H281768   1.211   2.203   2.281
10434TIP3   OH281769   0.366   3.036   2.940
10434TIP3    H181770   0.431   3.063   3.007
10434TIP3    H281771   0.284   3.048   2.993
10435TIP3   OH281772   0.953   2.579   2.225
10435TIP3    H181773   1.011   2.528   2.166
10435TIP3    H281774   0.943   2.523   2.301
10436TIP3   OH281775   0.862   3.073   1.628
10436TIP3    H181776   0.811   2.994   1.599
10436TIP3    H281777   0.861   3.044   1.722
10437TIP3   OH281778   1.594   2.947   2.506
10437TIP3    H181779   1.649   3.004   2.450
10437TIP3    H281780   1.507   2.962   2.466
10438TIP3   OH281781   1.260   2.315   1.451
10438TIP3    H181782   1.167   2.331   1.435
10438TIP3    H281783   1.291   2.402   1.482
10439TIP3   OH281784   1.020   3.061   2.750
10439TIP3    H181785   0.995   3.020   2.834
10439TIP3    H281786   1.004   3.155   2.769
10440TIP3   OH281787   1.336   2.505   1.618
10440TIP3    H181788   1.428   2.494   1.650
10440TIP3    H281789   1.340   2.588   1.566
10441TIP3   OH281790   0.391   2.977   2.209
10441TIP3    H181791   0.458   2.966   2.141
10441TIP3    H281792   0.398   2.894   2.258
10442TIP3   OH281793   1.088   3.186   1.536
10442TIP3    H181794   1.054   3.267   1.572
10442TIP3    H281795   1.015   3.123   1.554
10443TIP3   OH281796   0.078   2.813   2.743
10443TIP3    H181797   0.111   2.768   2.822
10443TIP3    H281798   0.029   2.746   2.695
10444TIP3   OH281799   0.789   2.774   2.961
10444TIP3    H181800   0.753   2.743   2.875
10444TIP3    H281801   0.880   2.739   2.956
10445TIP3   OH281802   1.254   3.307   2.747
10445TIP3    H181803   1.161   3.324   2.729
10445TIP3    H281804   1.255   3.328   2.843
10446TIP3   OH281805   1.827   3.111   2.870
10446TIP3    H181806   1.733   3.127   2.839
10446TIP3    H281807   1.875   3.104   2.786
10447TIP3   OH281808   1.367   2.887   2.343
10447TIP3    H181809   1.278   2.858   2.325
10447TIP3    H281810   1.416   2.814   2.298
10448TIP3   OH281811   0.627   3.318   1.945
10448TIP3    H181812   0.674   3.401   1.930
10448TIP3    H281813   0.537   3.343   1.919
10449TIP3   OH281814   0.767   3.086   1.908
10449TIP3    H181815   0.734   3.178   1.909
10449TIP3    H281816   0.695   3.036   1.948
10450TIP3   OH281817   0.634   3.588   1.857
10450TIP3    H181818   0.537   3.600   1.868
10450TIP3    H281819   0.669   3.669   1.897
10451TIP3   OH281820   1.167   3.107   2.509
10451TIP3    H181821   1.139   3.094   2.603
10451TIP3    H281822   1.243   3.045   2.500
10452TIP3   OH281823   1.474   3.067   1.637
10452TIP3    H181824   1.452   2.993   1.695
10452TIP3    H281825   1.569   3.083   1.656
10453TIP3   OH281826   0.202   3.464   2.540
10453TIP3    H181827   0.245   3.376   2.534
10453TIP3    H281828   0.243   3.495   2.622
10454TIP3   OH281829   0.687   3.273   1.505
10454TIP3    H181830   0.712   3.218   1.581
10454TIP3    H281831   0.691   3.366   1.537
10455TIP3   OH281832   1.124   2.261   2.586
10455TIP3    H181833   1.197   2.272   2.649
10455TIP3    H281834   1.088   2.175   2.608
10456TIP3   OH281835   1.205   2.223   1.700
10456TIP3    H181836   1.222   2.269   1.615
10456TIP3    H281837   1.257   2.271   1.763
10457TIP3   OH281838   0.918   2.398   1.777
10457TIP3    H181839   0.996   2.454   1.780
10457TIP3    H281840   0.895   2.384   1.869
10458TIP3   OH281841   0.980   2.500   2.695
10458TIP3    H181842   0.985   2.554   2.776
10458TIP3    H281843   1.045   2.430   2.708
10459TIP3   OH281844   0.681   3.540   1.571
10459TIP3    H181845   0.717   3.620   1.526
10459TIP3    H281846   0.678   3.571   1.664
10460TIP3   OH281847   1.597   2.285   2.780
10460TIP3    H181848   1.505   2.319   2.769
10460TIP3    H281849   1.628   2.289   2.689
10461TIP3   OH281850   1.452   2.668   2.188
10461TIP3    H181851   1.374   2.619   2.157
10461TIP3    H281852   1.503   2.598   2.236
10462TIP3   OH281853   0.398   3.262   1.443
10462TIP3    H181854   0.462   3.326   1.476
10462TIP3    H281855   0.448   3.212   1.377
10463TIP3   OH281856   0.209   3.398   1.845
10463TIP3    H181857   0.121   3.434   1.842
10463TIP3    H281858   0.259   3.442   1.775
10464TIP3   OH281859   0.134   3.659   2.972
10464TIP3    H181860   0.191   3.639   3.049
10464TIP3    H281861   0.085   3.576   2.959
10465TIP3   OH281862   0.595   3.552   3.137
10465TIP3    H181863   0.673   3.504   3.168
10465TIP3    H281864   0.593   3.526   3.043
10466TIP3   OH281865   1.243   3.392   3.013
10466TIP3    H181866   1.218   3.301   3.037
10466TIP3    H281867   1.325   3.401   3.067
10467TIP3   OH281868   0.141   3.037   3.057
10467TIP3    H181869   0.146   2.941   3.036
10467TIP3    H281870   0.065   3.065   3.002
10468TIP3   OH281871   0.789   3.038   3.014
10468TIP3    H181872   0.756   3.068   2.928
10468TIP3    H281873   0.800   2.941   3.002
10469TIP3   OH281874   1.349   3.024   2.718
10469TIP3    H181875   1.432   3.070   2.751
10469TIP3    H281876   1.291   3.090   2.761
10470TIP3   OH281877   0.205   2.757   3.010
10470TIP3    H181878   0.256   2.675   3.000
10470TIP3    H281879   0.192   2.761   3.106
10471TIP3   OH281880   0.602   2.660   2.750
10471TIP3    H181881   0.538   2.730   2.774
10471TIP3    H281882   0.639   2.695   2.669
10472TIP3   OH281883   1.110   2.913   3.087
10472TIP3    H181884   1.205   2.912   3.071
10472TIP3    H281885   1.093   2.834   3.141
10473TIP3   OH281886   0.840   2.783   2.634
10473TIP3    H181887   0.911   2.761   2.575
10473TIP3    H281888   0.797   2.864   2.601
10474TIP3   OH281889   1.276   2.557   3.122
10474TIP3    H181890   1.300   2.463   3.127
10474TIP3    H281891   1.363   2.600   3.133
10475TIP3   OH281892   1.407   2.827   2.941
10475TIP3    H181893   1.388   2.910   2.892
10475TIP3    H281894   1.504   2.836   2.930
10476TIP3   OH281895   0.886   2.404   3.007
10476TIP3    H181896   0.859   2.384   3.099
10476TIP3    H281897   0.805   2.387   2.958
10477TIP3   OH281898   1.157   2.317   2.912
10477TIP3    H181899   1.063   2.329   2.932
10477TIP3    H281900   1.188   2.259   2.985
10478TIP3   OH281901   1.313   2.186   3.109
10478TIP3    H181902   1.314   2.088   3.113
10478TIP3    H281903   1.291   2.214   3.201
10479TIP3   OH281904   0.784   1.913   2.918
10479TIP3    H181905   0.852   1.842   2.914
10479TIP3    H281906   0.770   1.931   2.825
10480TIP3   OH281907   0.818   2.074   3.126
10480TIP3    H181908   0.801   2.024   3.043
10480TIP3    H281909   0.759   2.151   3.118
10481TIP3   OH281910   0.770   3.766   1.443
10481TIP3    H181911   0.865   3.781   1.455
10481TIP3    H281912   0.747   3.830   1.375
10482TIP3   OH281913   0.133   3.231   1.396
10482TIP3    H181914   0.228   3.237   1.417
10482TIP3    H281915   0.128   3.164   1.327
10483TIP3   OH281916   8.126   3.675   2.035
10483TIP3    H181917   8.080   3.700   1.951
10483TIP3    H281918   8.208   3.675   1.983
10484TIP3   OH281919   0.133   3.509   2.112
10484TIP3    H181920   0.042   3.476   2.094
10484TIP3    H281921   0.108   3.597   2.151
10485TIP3   OH281922   1.803   3.614   2.658
10485TIP3    H181923   1.748   3.539   2.627
10485TIP3    H281924   1.844   3.573   2.735
10486TIP3   OH281925   1.654   3.183   3.175
10486TIP3    H181926   1.556   3.184   3.164
10486TIP3    H281927   1.675   3.277   3.190
10487TIP3   OH281928   1.767   3.017   1.681
10487TIP3    H181929   1.853   3.062   1.695
10487TIP3    H281930   1.767   2.945   1.743
10488TIP3   OH281931   1.778   3.100   2.361
10488TIP3    H181932   1.860   3.060   2.327
10488TIP3    H281933   1.795   3.194   2.344
10489TIP3   OH281934   1.634   3.394   2.587
10489TIP3    H181935   1.566   3.421   2.651
10489TIP3    H281936   1.579   3.346   2.522
10490TIP3   OH281937   1.585   2.677   1.919
10490TIP3    H181938   1.569   2.582   1.917
10490TIP3    H281939   1.554   2.702   2.008
10491TIP3   OH281940   1.673   2.864   2.886
10491TIP3    H181941   1.739   2.795   2.905
10491TIP3    H281942   1.723   2.948   2.892
10492TIP3   OH281943   1.823   2.659   2.959
10492TIP3    H181944   1.735   2.622   2.938
10492TIP3    H281945   1.882   2.583   2.943
10493TIP3   OH281946   1.555   2.438   1.767
10493TIP3    H181947   1.584   2.346   1.779
10493TIP3    H281948   1.635   2.477   1.728
10494TIP3   OH281949   1.618   2.491   2.311
10494TIP3    H181950   1.711   2.513   2.309
10494TIP3    H281951   1.597   2.499   2.406
10495TIP3   OH281952   1.623   2.561   2.590
10495TIP3    H181953   1.535   2.589   2.622
10495TIP3    H281954   1.666   2.646   2.568
10496TIP3   OH281955   0.061   2.400   2.925
10496TIP3    H181956   0.149   2.394   2.961
10496TIP3    H281957   0.011   2.333   2.973
10497TIP3   OH281958   1.851   1.966   3.123
10497TIP3    H181959   1.888   1.899   3.063
10497TIP3    H281960   1.862   2.048   3.072
10498TIP3   OH281961   1.802   2.174   2.958
10498TIP3    H181962   1.708   2.203   2.957
10498TIP3    H281963   1.807   2.123   2.876
10499TIP3   OH281964   1.811   2.164   1.433
10499TIP3    H181965   1.844   2.092   1.379
10499TIP3    H281966   1.877   2.234   1.430
10500TIP3   OH281967   8.177   2.059   2.595
10500TIP3    H181968   8.103   2.012   2.633
10500TIP3    H281969   8.135   2.098   2.516
10501TIP3   OH281970   0.248   3.360   2.988
10501TIP3    H181971   0.164   3.375   2.944
10501TIP3    H281972   0.222   3.348   3.080
10502TIP3   OH281973   0.538   3.454   2.611
10502TIP3    H181974   0.507   3.544   2.586
10502TIP3    H281975   0.631   3.462   2.585
10503TIP3   OH281976   0.974   3.598   2.905
10503TIP3    H181977   0.990   3.563   2.996
10503TIP3    H281978   1.062   3.625   2.878
10504TIP3   OH281979   1.701   1.980   2.744
10504TIP3    H181980   1.623   2.019   2.701
10504TIP3    H281981   1.724   1.907   2.684
10505TIP3   OH281982   0.280   3.771   2.613
10505TIP3    H181983   0.216   3.833   2.572
10505TIP3    H281984   0.251   3.764   2.705
10506TIP3   OH281985   0.529   3.731   2.519
10506TIP3    H181986   0.445   3.754   2.562
10506TIP3    H281987   0.530   3.795   2.443
10507TIP3   OH281988   0.224   3.633   2.315
10507TIP3    H181989   0.241   3.593   2.400
10507TIP3    H281990   0.306   3.610   2.264
10508TIP3   OH281991   0.437   3.516   2.172
10508TIP3    H181992   0.418   3.424   2.193
10508TIP3    H281993   0.523   3.529   2.217
10509TIP3   OH281994   0.699   3.559   2.259
10509TIP3    H181995   0.716   3.467   2.234
10509TIP3    H281996   0.699   3.559   2.355
10510TIP3   OH281997   1.044   2.130   2.176
10510TIP3    H181998   0.980   2.062   2.201
10510TIP3    H281999   1.099   2.082   2.113
10511TIP3   OH282000   0.278   1.992   1.956
10511TIP3    H182001   0.200   1.966   1.907
10511TIP3    H282002   0.330   1.910   1.954
10512TIP3   OH282003   0.735   1.974   1.936
10512TIP3    H182004   0.817   2.025   1.931
10512TIP3    H282005   0.720   1.966   2.029
10513TIP3   OH282006   0.161   3.545   1.583
10513TIP3    H182007   0.075   3.555   1.545
10513TIP3    H282008   0.162   3.631   1.633
10514TIP3   OH282009   0.836   2.187   1.623
10514TIP3    H182010   0.871   2.129   1.690
10514TIP3    H282011   0.850   2.275   1.665
10515TIP3   OH282012   0.470   1.985   3.067
10515TIP3    H182013   0.557   1.949   3.041
10515TIP3    H282014   0.430   1.906   3.106
10516TIP3   OH282015   0.339   3.657   1.326
10516TIP3    H182016   0.302   3.686   1.410
10516TIP3    H282017   0.410   3.600   1.350
10517TIP3   OH282018   1.313   1.920   3.088
10517TIP3    H182019   1.319   1.862   3.165
10517TIP3    H282020   1.401   1.908   3.047
10518TIP3   OH282021   3.074   2.910   1.946
10518TIP3    H182022   3.074   3.005   1.934
10518TIP3    H282023   3.006   2.880   1.882
10519TIP3   OH282024   3.339   3.116   2.128
10519TIP3    H182025   3.288   3.048   2.170
10519TIP3    H282026   3.331   3.193   2.185
10520TIP3   OH282027   2.289   3.241   2.301
10520TIP3    H182028   2.256   3.157   2.266
10520TIP3    H282029   2.385   3.228   2.306
10521TIP3   OH282030   3.655   2.238   2.415
10521TIP3    H182031   3.677   2.293   2.494
10521TIP3    H282032   3.713   2.281   2.351
10522TIP3   OH282033   3.124   2.517   2.371
10522TIP3    H182034   3.127   2.420   2.371
10522TIP3    H282035   3.103   2.532   2.277
10523TIP3   OH282036   3.203   2.335   1.936
10523TIP3    H182037   3.272   2.303   1.998
10523TIP3    H282038   3.253   2.388   1.871
10524TIP3   OH282039   3.701   2.378   2.639
10524TIP3    H182040   3.642   2.454   2.632
10524TIP3    H282041   3.710   2.368   2.735
10525TIP3   OH282042   2.319   2.222   2.501
10525TIP3    H182043   2.285   2.264   2.421
10525TIP3    H282044   2.247   2.239   2.566
10526TIP3   OH282045   3.389   2.261   2.128
10526TIP3    H182046   3.357   2.194   2.188
10526TIP3    H282047   3.444   2.315   2.188
10527TIP3   OH282048   2.412   3.190   2.613
10527TIP3    H182049   2.406   3.277   2.570
10527TIP3    H282050   2.321   3.177   2.650
10528TIP3   OH282051   2.016   3.142   1.683
10528TIP3    H182052   1.997   3.171   1.592
10528TIP3    H282053   2.025   3.227   1.731
10529TIP3   OH282054   3.412   2.138   2.494
10529TIP3    H182055   3.340   2.202   2.490
10529TIP3    H282056   3.487   2.181   2.448
10530TIP3   OH282057   3.489   3.137   2.718
10530TIP3    H182058   3.504   3.073   2.646
10530TIP3    H282059   3.510   3.221   2.678
10531TIP3   OH282060   2.941   2.830   1.698
10531TIP3    H182061   2.872   2.885   1.660
10531TIP3    H282062   3.011   2.837   1.630
10532TIP3   OH282063   2.959   2.692   1.400
10532TIP3    H182064   3.025   2.682   1.470
10532TIP3    H282065   2.981   2.620   1.340
10533TIP3   OH282066   3.676   2.770   2.523
10533TIP3    H182067   3.613   2.844   2.528
10533TIP3    H282068   3.729   2.793   2.444
10534TIP3   OH282069   3.283   2.853   1.788
10534TIP3    H182070   3.209   2.874   1.848
10534TIP3    H282071   3.331   2.783   1.836
10535TIP3   OH282072   3.276   2.668   2.697
10535TIP3    H182073   3.280   2.745   2.755
10535TIP3    H282074   3.215   2.694   2.627
10536TIP3   OH282075   2.574   3.250   2.249
10536TIP3    H182076   2.578   3.204   2.164
10536TIP3    H282077   2.658   3.224   2.291
10537TIP3   OH282078   2.573   3.229   2.814
10537TIP3    H182079   2.540   3.307   2.863
10537TIP3    H282080   2.505   3.220   2.744
10538TIP3   OH282081   3.176   2.760   1.555
10538TIP3    H182082   3.227   2.789   1.635
10538TIP3    H282083   3.207   2.821   1.486
10539TIP3   OH282084   2.397   3.443   2.890
10539TIP3    H182085   2.396   3.427   2.794
10539TIP3    H282086   2.305   3.422   2.915
10540TIP3   OH282087   3.542   1.941   1.544
10540TIP3    H182088   3.449   1.956   1.567
10540TIP3    H282089   3.567   2.023   1.500
10541TIP3   OH282090   1.960   3.059   2.626
10541TIP3    H182091   1.905   3.055   2.547
10541TIP3    H282092   1.961   2.965   2.654
10542TIP3   OH282093   1.930   3.334   2.306
10542TIP3    H182094   2.026   3.324   2.305
10542TIP3    H282095   1.921   3.414   2.358
10543TIP3   OH282096   3.754   3.404   2.875
10543TIP3    H182097   3.742   3.309   2.876
10543TIP3    H282098   3.667   3.429   2.917
10544TIP3   OH282099   2.892   3.740   1.746
10544TIP3    H182100   2.880   3.724   1.651
10544TIP3    H282101   2.893   3.835   1.754
10545TIP3   OH282102   2.257   3.620   1.923
10545TIP3    H182103   2.270   3.582   2.013
10545TIP3    H282104   2.172   3.579   1.900
10546TIP3   OH282105   3.464   2.554   2.923
10546TIP3    H182106   3.419   2.598   2.850
10546TIP3    H282107   3.466   2.462   2.893
10547TIP3   OH282108   2.178   3.196   2.725
10547TIP3    H182109   2.202   3.155   2.811
10547TIP3    H282110   2.094   3.149   2.703
10548TIP3   OH282111   3.243   2.392   2.744
10548TIP3    H182112   3.187   2.371   2.823
10548TIP3    H282113   3.222   2.484   2.720
10549TIP3   OH282114   3.011   2.602   1.810
10549TIP3    H182115   2.965   2.680   1.773
10549TIP3    H282116   3.074   2.579   1.741
10550TIP3   OH282117   2.915   2.618   2.952
10550TIP3    H182118   2.861   2.542   2.984
10550TIP3    H282119   2.999   2.606   3.001
10551TIP3   OH282120   3.117   2.548   2.089
10551TIP3    H182121   3.078   2.601   2.017
10551TIP3    H282122   3.117   2.462   2.043
10552TIP3   OH282123   1.882   2.267   2.021
10552TIP3    H182124   1.954   2.274   2.084
10552TIP3    H282125   1.928   2.239   1.941
10553TIP3   OH282126   2.706   2.293   2.032
10553TIP3    H182127   2.616   2.304   2.063
10553TIP3    H282128   2.760   2.294   2.113
10554TIP3   OH282129   3.151   2.222   2.354
10554TIP3    H182130   3.084   2.235   2.425
10554TIP3    H282131   3.095   2.208   2.276
10555TIP3   OH282132   3.473   3.793   2.991
10555TIP3    H182133   3.500   3.830   2.905
10555TIP3    H282134   3.546   3.823   3.048
10556TIP3   OH282135   2.238   3.044   2.942
10556TIP3    H182136   2.311   3.060   3.004
10556TIP3    H282137   2.161   3.046   3.002
10557TIP3   OH282138   2.341   2.193   1.854
10557TIP3    H182139   2.309   2.102   1.861
10557TIP3    H282140   2.422   2.188   1.803
10558TIP3   OH282141   2.703   2.412   2.465
10558TIP3    H182142   2.623   2.463   2.474
10558TIP3    H282143   2.763   2.447   2.533
10559TIP3   OH282144   3.479   2.958   2.513
10559TIP3    H182145   3.539   3.000   2.448
10559TIP3    H282146   3.396   2.957   2.462
10560TIP3   OH282147   3.149   2.314   1.443
10560TIP3    H182148   3.055   2.331   1.439
10560TIP3    H282149   3.177   2.398   1.485
10561TIP3   OH282150   3.222   2.505   1.615
10561TIP3    H182151   3.310   2.496   1.655
10561TIP3    H282152   3.226   2.588   1.565
10562TIP3   OH282153   2.266   2.976   2.203
10562TIP3    H182154   2.341   2.972   2.142
10562TIP3    H282155   2.275   2.893   2.250
10563TIP3   OH282156   1.971   2.813   2.737
10563TIP3    H182157   1.993   2.771   2.823
10563TIP3    H282158   1.909   2.751   2.696
10564TIP3   OH282159   2.676   2.766   2.962
10564TIP3    H182160   2.640   2.750   2.874
10564TIP3    H282161   2.770   2.741   2.956
10565TIP3   OH282162   3.707   3.109   2.871
10565TIP3    H182163   3.617   3.130   2.836
10565TIP3    H282164   3.761   3.104   2.790
10566TIP3   OH282165   3.269   2.873   2.346
10566TIP3    H182166   3.173   2.859   2.336
10566TIP3    H282167   3.304   2.799   2.293
10567TIP3   OH282168   2.507   3.322   1.958
10567TIP3    H182169   2.559   3.397   1.925
10567TIP3    H282170   2.423   3.344   1.918
10568TIP3   OH282171   2.653   3.087   1.904
10568TIP3    H182172   2.622   3.179   1.907
10568TIP3    H282173   2.578   3.040   1.941
10569TIP3   OH282174   2.697   3.503   2.544
10569TIP3    H182175   2.744   3.583   2.513
10569TIP3    H282176   2.757   3.470   2.612
10570TIP3   OH282177   2.523   3.587   1.863
10570TIP3    H182178   2.426   3.601   1.866
10570TIP3    H282179   2.556   3.673   1.889
10571TIP3   OH282180   3.328   3.564   2.755
10571TIP3    H182181   3.260   3.512   2.709
10571TIP3    H282182   3.349   3.631   2.689
10572TIP3   OH282183   3.742   3.658   1.457
10572TIP3    H182184   3.803   3.719   1.414
10572TIP3    H282185   3.659   3.710   1.471
10573TIP3   OH282186   2.139   2.287   2.696
10573TIP3    H182187   2.049   2.323   2.688
10573TIP3    H282188   2.124   2.201   2.738
10574TIP3   OH282189   3.363   3.069   1.636
10574TIP3    H182190   3.337   2.995   1.693
10574TIP3    H282191   3.456   3.080   1.660
10575TIP3   OH282192   2.099   3.468   2.534
10575TIP3    H182193   2.125   3.375   2.536
10575TIP3    H282194   2.126   3.495   2.623
10576TIP3   OH282195   3.012   2.261   2.584
10576TIP3    H182196   3.079   2.273   2.653
10576TIP3    H282197   2.969   2.177   2.608
10577TIP3   OH282198   2.866   2.496   2.698
10577TIP3    H182199   2.876   2.553   2.777
10577TIP3    H282200   2.934   2.428   2.706
10578TIP3   OH282201   2.456   2.215   1.540
10578TIP3    H182202   2.455   2.307   1.570
10578TIP3    H282203   2.547   2.189   1.562
10579TIP3   OH282204   3.482   2.287   2.783
10579TIP3    H182205   3.389   2.319   2.771
10579TIP3    H282206   3.513   2.286   2.691
10580TIP3   OH282207   3.341   2.666   2.185
10580TIP3    H182208   3.258   2.621   2.156
10580TIP3    H282209   3.387   2.597   2.237
10581TIP3   OH282210   2.281   3.262   1.441
10581TIP3    H182211   2.346   3.324   1.477
10581TIP3    H282212   2.333   3.213   1.377
10582TIP3   OH282213   2.198   1.997   2.226
10582TIP3    H182214   2.174   2.006   2.132
10582TIP3    H282215   2.151   1.918   2.257
10583TIP3   OH282216   2.095   3.399   1.848
10583TIP3    H182217   2.009   3.443   1.842
10583TIP3    H282218   2.141   3.443   1.775
10584TIP3   OH282219   2.016   3.660   2.977
10584TIP3    H182220   2.076   3.640   3.052
10584TIP3    H282221   1.977   3.573   2.958
10585TIP3   OH282222   2.481   3.553   3.136
10585TIP3    H182223   2.559   3.504   3.168
10585TIP3    H282224   2.479   3.526   3.042
10586TIP3   OH282225   2.005   3.036   3.074
10586TIP3    H182226   2.023   2.946   3.040
10586TIP3    H282227   1.931   3.064   3.017
10587TIP3   OH282228   2.671   3.037   3.016
10587TIP3    H182229   2.645   3.068   2.927
10587TIP3    H282230   2.690   2.942   3.000
10588TIP3   OH282231   2.091   2.760   3.014
10588TIP3    H182232   2.139   2.677   3.001
10588TIP3    H282233   2.072   2.762   3.110
10589TIP3   OH282234   2.994   2.910   3.086
10589TIP3    H182235   3.090   2.912   3.073
10589TIP3    H282236   2.978   2.833   3.143
10590TIP3   OH282237   2.570   2.234   2.608
10590TIP3    H182238   2.620   2.276   2.536
10590TIP3    H282239   2.481   2.219   2.567
10591TIP3   OH282240   3.161   2.556   3.129
10591TIP3    H182241   3.184   2.462   3.124
10591TIP3    H282242   3.249   2.597   3.133
10592TIP3   OH282243   3.296   2.836   2.942
10592TIP3    H182244   3.272   2.912   2.889
10592TIP3    H282245   3.393   2.833   2.927
10593TIP3   OH282246   2.376   2.508   3.057
10593TIP3    H182247   2.294   2.462   3.028
10593TIP3    H282248   2.435   2.488   2.984
10594TIP3   OH282249   2.774   2.408   3.010
10594TIP3    H182250   2.744   2.384   3.100
10594TIP3    H282251   2.697   2.386   2.956
10595TIP3   OH282252   3.047   2.322   2.918
10595TIP3    H182253   2.951   2.325   2.932
10595TIP3    H282254   3.075   2.259   2.987
10596TIP3   OH282255   3.201   2.187   3.109
10596TIP3    H182256   3.199   2.090   3.112
10596TIP3    H282257   3.177   2.214   3.201
10597TIP3   OH282258   2.183   2.312   3.019
10597TIP3    H182259   2.206   2.236   2.961
10597TIP3    H282260   2.175   2.269   3.107
10598TIP3   OH282261   2.667   1.908   2.918
10598TIP3    H182262   2.740   1.845   2.914
10598TIP3    H282263   2.659   1.932   2.824
10599TIP3   OH282264   2.703   2.075   3.127
10599TIP3    H182265   2.689   2.025   3.043
10599TIP3    H282266   2.645   2.152   3.117
10600TIP3   OH282267   2.654   3.771   1.443
10600TIP3    H182268   2.749   3.777   1.451
10600TIP3    H282269   2.633   3.833   1.374
10601TIP3   OH282270   2.011   3.228   1.391
10601TIP3    H182271   2.106   3.236   1.414
10601TIP3    H282272   2.015   3.161   1.322
10602TIP3   OH282273   1.883   3.761   1.887
10602TIP3    H182274   1.809   3.716   1.846
10602TIP3    H282275   1.910   3.701   1.958
10603TIP3   OH282276   1.968   3.575   2.077
10603TIP3    H182277   1.929   3.490   2.099
10603TIP3    H282278   1.986   3.613   2.166
10604TIP3   OH282279   3.722   3.655   2.370
10604TIP3    H182280   3.719   3.672   2.465
10604TIP3    H282281   3.792   3.715   2.341
10605TIP3   OH282282   3.674   3.615   2.668
10605TIP3    H182283   3.633   3.539   2.628
10605TIP3    H282284   3.729   3.574   2.737
10606TIP3   OH282285   3.522   3.187   3.130
10606TIP3    H182286   3.433   3.186   3.170
10606TIP3    H282287   3.559   3.266   3.175
10607TIP3   OH282288   3.656   3.018   1.677
10607TIP3    H182289   3.741   3.061   1.698
10607TIP3    H282290   3.655   2.946   1.744
10608TIP3   OH282291   3.690   2.827   1.863
10608TIP3    H182292   3.616   2.776   1.900
10608TIP3    H282293   3.750   2.842   1.938
10609TIP3   OH282294   3.663   3.099   2.365
10609TIP3    H182295   3.744   3.062   2.326
10609TIP3    H282296   3.683   3.193   2.347
10610TIP3   OH282297   3.720   2.817   1.498
10610TIP3    H182298   3.658   2.847   1.432
10610TIP3    H282299   3.711   2.880   1.571
10611TIP3   OH282300   3.543   2.537   1.358
10611TIP3    H182301   3.569   2.600   1.290
10611TIP3    H282302   3.543   2.452   1.310
10612TIP3   OH282303   3.472   2.677   1.924
10612TIP3    H182304   3.456   2.582   1.916
10612TIP3    H282305   3.433   2.699   2.010
10613TIP3   OH282306   1.966   2.898   2.319
10613TIP3    H182307   1.988   2.875   2.227
10613TIP3    H282308   2.047   2.875   2.365
10614TIP3   OH282309   3.558   2.873   2.888
10614TIP3    H182310   3.620   2.798   2.903
10614TIP3    H282311   3.618   2.951   2.891
10615TIP3   OH282312   3.707   2.661   2.954
10615TIP3    H182313   3.620   2.621   2.940
10615TIP3    H282314   3.765   2.583   2.947
10616TIP3   OH282315   3.480   2.278   1.269
10616TIP3    H182316   3.540   2.238   1.333
10616TIP3    H282317   3.395   2.236   1.286
10617TIP3   OH282318   3.440   2.434   1.770
10617TIP3    H182319   3.469   2.340   1.778
10617TIP3    H282320   3.518   2.473   1.728
10618TIP3   OH282321   3.503   2.488   2.311
10618TIP3    H182322   3.596   2.513   2.310
10618TIP3    H282323   3.481   2.502   2.405
10619TIP3   OH282324   3.508   2.562   2.589
10619TIP3    H182325   3.420   2.591   2.620
10619TIP3    H282326   3.553   2.647   2.569
10620TIP3   OH282327   1.933   2.413   2.945
10620TIP3    H182328   2.028   2.394   2.959
10620TIP3    H282329   1.889   2.331   2.973
10621TIP3   OH282330   3.734   1.962   3.124
10621TIP3    H182331   3.773   1.899   3.063
10621TIP3    H282332   3.747   2.046   3.074
10622TIP3   OH282333   3.503   2.163   1.774
10622TIP3    H182334   3.526   2.115   1.854
10622TIP3    H282335   3.448   2.097   1.725
10623TIP3   OH282336   3.689   2.173   2.961
10623TIP3    H182337   3.596   2.203   2.957
10623TIP3    H282338   3.692   2.123   2.879
10624TIP3   OH282339   1.916   2.038   2.569
10624TIP3    H182340   1.850   2.017   2.636
10624TIP3    H282341   1.870   2.102   2.513
10625TIP3   OH282342   2.137   3.357   2.984
10625TIP3    H182343   2.053   3.375   2.941
10625TIP3    H282344   2.112   3.348   3.077
10626TIP3   OH282345   2.429   3.458   2.613
10626TIP3    H182346   2.391   3.542   2.583
10626TIP3    H282347   2.521   3.467   2.581
10627TIP3   OH282348   3.089   3.725   2.830
10627TIP3    H182349   3.160   3.662   2.810
10627TIP3    H282350   3.126   3.766   2.911
10628TIP3   OH282351   3.589   1.987   2.744
10628TIP3    H182352   3.505   2.015   2.703
10628TIP3    H282353   3.606   1.904   2.693
10629TIP3   OH282354   2.170   3.781   2.615
10629TIP3    H182355   2.098   3.826   2.571
10629TIP3    H282356   2.135   3.760   2.703
10630TIP3   OH282357   2.417   3.737   2.520
10630TIP3    H182358   2.329   3.751   2.560
10630TIP3    H282359   2.412   3.795   2.442
10631TIP3   OH282360   2.880   3.726   2.442
10631TIP3    H182361   2.844   3.784   2.374
10631TIP3    H282362   2.908   3.792   2.509
10632TIP3   OH282363   2.113   3.644   2.306
10632TIP3    H182364   2.107   3.598   2.393
10632TIP3    H282365   2.195   3.607   2.267
10633TIP3   OH282366   2.323   3.515   2.174
10633TIP3    H182367   2.308   3.421   2.196
10633TIP3    H282368   2.410   3.529   2.216
10634TIP3   OH282369   2.581   3.564   2.260
10634TIP3    H182370   2.602   3.473   2.231
10634TIP3    H282371   2.588   3.554   2.356
10635TIP3   OH282372   2.939   2.132   2.170
10635TIP3    H182373   2.866   2.073   2.194
10635TIP3    H282374   2.986   2.078   2.107
10636TIP3   OH282375   3.446   1.934   2.180
10636TIP3    H182376   3.502   1.996   2.131
10636TIP3    H282377   3.358   1.967   2.158
10637TIP3   OH282378   2.158   1.990   1.956
10637TIP3    H182379   2.085   1.969   1.898
10637TIP3    H282380   2.214   1.909   1.951
10638TIP3   OH282381   2.048   1.971   1.532
10638TIP3    H182382   2.095   2.033   1.474
10638TIP3    H282383   1.984   2.024   1.580
10639TIP3   OH282384   3.310   1.988   1.672
10639TIP3    H182385   3.240   2.048   1.645
10639TIP3    H282386   3.266   1.903   1.685
10640TIP3   OH282387   2.034   3.565   1.633
10640TIP3    H182388   1.970   3.559   1.561
10640TIP3    H282389   2.037   3.661   1.646
10641TIP3   OH282390   2.229   2.156   1.384
10641TIP3    H182391   2.283   2.099   1.330
10641TIP3    H282392   2.296   2.194   1.445
10642TIP3   OH282393   2.153   2.046   2.906
10642TIP3    H182394   2.117   1.963   2.943
10642TIP3    H282395   2.246   2.041   2.939
10643TIP3   OH282396   2.359   1.982   3.065
10643TIP3    H182397   2.447   1.946   3.042
10643TIP3    H282398   2.318   1.903   3.107
10644TIP3   OH282399   2.215   3.654   1.328
10644TIP3    H182400   2.188   3.688   1.415
10644TIP3    H282401   2.295   3.605   1.347
10645TIP3   OH282402   3.197   1.914   3.080
10645TIP3    H182403   3.203   1.865   3.164
10645TIP3    H282404   3.288   1.912   3.046
10646TIP3   OH282405   3.516   3.517   2.948
10646TIP3    H182406   3.435   3.501   2.894
10646TIP3    H282407   3.505   3.612   2.967
10647TIP3   OH282408   4.958   2.906   1.945
10647TIP3    H182409   4.961   3.002   1.941
10647TIP3    H282410   4.888   2.883   1.881
10648TIP3   OH282411   4.848   2.833   2.293
10648TIP3    H182412   4.846   2.768   2.364
10648TIP3    H282413   4.813   2.782   2.218
10649TIP3   OH282414   4.081   2.798   2.450
10649TIP3    H182415   4.091   2.732   2.521
10649TIP3    H282416   4.157   2.854   2.470
10650TIP3   OH282417   5.218   3.124   2.125
10650TIP3    H182418   5.172   3.053   2.171
10650TIP3    H282419   5.215   3.198   2.186
10651TIP3   OH282420   4.174   3.241   2.300
10651TIP3    H182421   4.143   3.154   2.267
10651TIP3    H282422   4.270   3.224   2.304
10652TIP3   OH282423   3.908   2.817   2.059
10652TIP3    H182424   3.939   2.739   2.106
10652TIP3    H282425   3.981   2.834   1.996
10653TIP3   OH282426   4.683   3.070   2.339
10653TIP3    H182427   4.718   3.007   2.275
10653TIP3    H282428   4.764   3.088   2.391
10654TIP3   OH282429   5.546   2.237   2.415
10654TIP3    H182430   5.561   2.296   2.492
10654TIP3    H282431   5.601   2.279   2.348
10655TIP3   OH282432   5.000   2.518   2.372
10655TIP3    H182433   5.018   2.422   2.372
10655TIP3    H282434   4.990   2.531   2.275
10656TIP3   OH282435   5.087   2.334   1.931
10656TIP3    H182436   5.153   2.303   1.998
10656TIP3    H282437   5.142   2.392   1.875
10657TIP3   OH282438   4.491   2.720   2.097
10657TIP3    H182439   4.558   2.665   2.141
10657TIP3    H282440   4.438   2.654   2.053
10658TIP3   OH282441   5.591   2.380   2.640
10658TIP3    H182442   5.526   2.453   2.632
10658TIP3    H282443   5.594   2.370   2.736
10659TIP3   OH282444   4.454   2.981   2.524
10659TIP3    H182445   4.383   3.046   2.543
10659TIP3    H282446   4.525   3.040   2.493
10660TIP3   OH282447   5.267   2.269   2.130
10660TIP3    H182448   5.244   2.192   2.183
10660TIP3    H282449   5.332   2.313   2.186
10661TIP3   OH282450   4.299   3.181   2.606
10661TIP3    H182451   4.294   3.273   2.570
10661TIP3    H282452   4.210   3.172   2.648
10662TIP3   OH282453   3.899   3.144   1.683
10662TIP3    H182454   3.884   3.174   1.591
10662TIP3    H282455   3.914   3.226   1.733
10663TIP3   OH282456   5.299   2.137   2.499
10663TIP3    H182457   5.227   2.201   2.489
10663TIP3    H282458   5.371   2.179   2.447
10664TIP3   OH282459   4.601   1.951   2.243
10664TIP3    H182460   4.590   1.854   2.235
10664TIP3    H282461   4.515   1.982   2.272
10665TIP3   OH282462   5.385   3.140   2.719
10665TIP3    H182463   5.392   3.073   2.647
10665TIP3    H282464   5.391   3.223   2.673
10666TIP3   OH282465   4.828   2.826   1.697
10666TIP3    H182466   4.759   2.887   1.660
10666TIP3    H282467   4.893   2.836   1.626
10667TIP3   OH282468   4.841   2.636   1.433
10667TIP3    H182469   4.917   2.685   1.468
10667TIP3    H282470   4.862   2.625   1.339
10668TIP3   OH282471   5.565   2.771   2.523
10668TIP3    H182472   5.496   2.841   2.530
10668TIP3    H282473   5.610   2.796   2.443
10669TIP3   OH282474   5.169   2.843   1.786
10669TIP3    H182475   5.099   2.875   1.847
10669TIP3    H282476   5.220   2.783   1.843
10670TIP3   OH282477   5.164   2.667   2.699
10670TIP3    H182478   5.164   2.748   2.752
10670TIP3    H282479   5.101   2.696   2.630
10671TIP3   OH282480   4.326   2.912   1.984
10671TIP3    H182481   4.305   2.886   1.893
10671TIP3    H282482   4.397   2.850   2.011
10672TIP3   OH282483   4.462   3.256   2.252
10672TIP3    H182484   4.463   3.206   2.168
10672TIP3    H282485   4.543   3.220   2.294
10673TIP3   OH282486   4.365   2.793   2.343
10673TIP3    H182487   4.425   2.802   2.267
10673TIP3    H282488   4.404   2.855   2.408
10674TIP3   OH282489   4.460   3.233   2.815
10674TIP3    H182490   4.420   3.308   2.863
10674TIP3    H282491   4.393   3.214   2.745
10675TIP3   OH282492   5.063   2.765   1.554
10675TIP3    H182493   5.114   2.789   1.635
10675TIP3    H282494   5.095   2.825   1.485
10676TIP3   OH282495   4.156   2.851   2.730
10676TIP3    H182496   4.159   2.916   2.803
10676TIP3    H282497   4.062   2.858   2.709
10677TIP3   OH282498   4.286   3.440   2.888
10677TIP3    H182499   4.279   3.425   2.792
10677TIP3    H282500   4.194   3.425   2.916
10678TIP3   OH282501   5.432   1.942   1.543
10678TIP3    H182502   5.337   1.955   1.567
10678TIP3    H282503   5.452   2.028   1.503
10679TIP3   OH282504   5.543   3.378   1.379
10679TIP3    H182505   5.554   3.472   1.399
10679TIP3    H282506   5.634   3.346   1.378
10680TIP3   OH282507   3.838   3.062   2.629
10680TIP3    H182508   3.794   3.054   2.543
10680TIP3    H282509   3.845   2.967   2.652
10681TIP3   OH282510   3.815   3.330   2.312
10681TIP3    H182511   3.911   3.324   2.303
10681TIP3    H282512   3.807   3.416   2.356
10682TIP3   OH282513   5.632   3.407   2.874
10682TIP3    H182514   5.633   3.309   2.874
10682TIP3    H282515   5.547   3.414   2.923
10683TIP3   OH282516   4.732   3.361   2.761
10683TIP3    H182517   4.740   3.443   2.815
10683TIP3    H282518   4.647   3.323   2.790
10684TIP3   OH282519   4.142   3.618   1.922
10684TIP3    H182520   4.156   3.583   2.013
10684TIP3    H282521   4.054   3.580   1.903
10685TIP3   OH282522   5.354   2.552   2.923
10685TIP3    H182523   5.306   2.597   2.852
10685TIP3    H282524   5.351   2.460   2.893
10686TIP3   OH282525   4.063   3.195   2.724
10686TIP3    H182526   4.088   3.155   2.811
10686TIP3    H282527   3.979   3.151   2.702
10687TIP3   OH282528   4.796   2.007   2.656
10687TIP3    H182529   4.840   1.966   2.734
10687TIP3    H282530   4.702   1.996   2.677
10688TIP3   OH282531   5.128   2.391   2.745
10688TIP3    H182532   5.072   2.370   2.823
10688TIP3    H282533   5.110   2.484   2.722
10689TIP3   OH282534   4.764   2.263   1.391
10689TIP3    H182535   4.729   2.259   1.482
10689TIP3    H282536   4.733   2.177   1.361
10690TIP3   OH282537   4.893   2.600   1.807
10690TIP3    H182538   4.852   2.681   1.770
10690TIP3    H282539   4.961   2.582   1.740
10691TIP3   OH282540   4.799   2.619   2.952
10691TIP3    H182541   4.746   2.542   2.983
10691TIP3    H282542   4.883   2.608   3.000
10692TIP3   OH282543   4.996   2.548   2.092
10692TIP3    H182544   4.969   2.604   2.018
10692TIP3    H282545   5.006   2.463   2.045
10693TIP3   OH282546   4.918   2.706   2.549
10693TIP3    H182547   4.954   2.637   2.489
10693TIP3    H282548   4.871   2.654   2.616
10694TIP3   OH282549   5.036   2.228   2.355
10694TIP3    H182550   4.969   2.234   2.426
10694TIP3    H282551   4.985   2.203   2.277
10695TIP3   OH282552   5.376   3.778   2.985
10695TIP3    H182553   5.380   3.836   2.906
10695TIP3    H282554   5.425   3.829   3.051
10696TIP3   OH282555   4.126   3.038   2.944
10696TIP3    H182556   4.196   3.062   3.007
10696TIP3    H282557   4.047   3.047   3.003
10697TIP3   OH282558   4.727   2.580   2.223
10697TIP3    H182559   4.784   2.526   2.168
10697TIP3    H282560   4.710   2.523   2.300
10698TIP3   OH282561   4.587   2.413   2.466
10698TIP3    H182562   4.508   2.468   2.473
10698TIP3    H282563   4.646   2.449   2.536
10699TIP3   OH282564   4.664   3.022   1.633
10699TIP3    H182565   4.577   2.995   1.594
10699TIP3    H282566   4.629   3.048   1.719
10700TIP3   OH282567   5.365   2.954   2.512
10700TIP3    H182568   5.422   3.003   2.449
10700TIP3    H282569   5.279   2.961   2.465
10701TIP3   OH282570   5.033   2.316   1.449
10701TIP3    H182571   4.938   2.331   1.433
10701TIP3    H282572   5.063   2.403   1.481
10702TIP3   OH282573   4.796   3.060   2.756
10702TIP3    H182574   4.761   3.019   2.836
10702TIP3    H282575   4.773   3.153   2.766
10703TIP3   OH282576   5.108   2.508   1.616
10703TIP3    H182577   5.197   2.496   1.652
10703TIP3    H282578   5.112   2.590   1.564
10704TIP3   OH282579   4.157   2.966   2.214
10704TIP3    H182580   4.227   2.965   2.144
10704TIP3    H282581   4.168   2.883   2.261
10705TIP3   OH282582   4.860   3.185   1.541
10705TIP3    H182583   4.817   3.265   1.572
10705TIP3    H282584   4.788   3.119   1.551
10706TIP3   OH282585   3.856   2.816   2.740
10706TIP3    H182586   3.877   2.769   2.823
10706TIP3    H282587   3.796   2.753   2.695
10707TIP3   OH282588   4.560   2.771   2.957
10707TIP3    H182589   4.527   2.741   2.871
10707TIP3    H282590   4.652   2.739   2.956
10708TIP3   OH282591   5.028   3.308   2.749
10708TIP3    H182592   4.935   3.319   2.726
10708TIP3    H282593   5.023   3.332   2.844
10709TIP3   OH282594   5.589   2.521   1.590
10709TIP3    H182595   5.541   2.489   1.513
10709TIP3    H282596   5.607   2.612   1.562
10710TIP3   OH282597   5.595   3.113   2.871
10710TIP3    H182598   5.504   3.127   2.834
10710TIP3    H282599   5.648   3.103   2.792
10711TIP3   OH282600   5.143   2.886   2.338
10711TIP3    H182601   5.049   2.864   2.331
10711TIP3    H282602   5.185   2.809   2.296
10712TIP3   OH282603   4.391   3.325   1.962
10712TIP3    H182604   4.446   3.397   1.927
10712TIP3    H282605   4.309   3.340   1.914
10713TIP3   OH282606   3.970   2.810   1.397
10713TIP3    H182607   4.030   2.867   1.449
10713TIP3    H282608   3.883   2.828   1.436
10714TIP3   OH282609   4.550   3.083   1.942
10714TIP3    H182610   4.513   3.167   1.907
10714TIP3    H282611   4.465   3.037   1.944
10715TIP3   OH282612   4.582   3.502   2.544
10715TIP3    H182613   4.625   3.584   2.516
10715TIP3    H282614   4.644   3.470   2.613
10716TIP3   OH282615   4.408   3.591   1.854
10716TIP3    H182616   4.311   3.598   1.869
10716TIP3    H282617   4.441   3.673   1.893
10717TIP3   OH282618   4.936   3.106   2.502
10717TIP3    H182619   4.903   3.089   2.593
10717TIP3    H282620   4.999   3.034   2.488
10718TIP3   OH282621   5.220   3.566   2.756
10718TIP3    H182622   5.151   3.510   2.715
10718TIP3    H282623   5.229   3.635   2.690
10719TIP3   OH282624   5.619   3.651   1.439
10719TIP3    H182625   5.686   3.717   1.415
10719TIP3    H282626   5.544   3.707   1.468
10720TIP3   OH282627   5.249   3.064   1.635
10720TIP3    H182628   5.223   2.993   1.695
10720TIP3    H282629   5.342   3.083   1.657
10721TIP3   OH282630   3.982   3.466   2.537
10721TIP3    H182631   4.014   3.375   2.536
10721TIP3    H282632   4.011   3.496   2.624
10722TIP3   OH282633   4.476   3.294   1.486
10722TIP3    H182634   4.480   3.224   1.557
10722TIP3    H282635   4.463   3.373   1.541
10723TIP3   OH282636   4.103   3.000   1.546
10723TIP3    H182637   4.046   3.037   1.616
10723TIP3    H282638   4.170   3.070   1.538
10724TIP3   OH282639   4.897   2.266   2.589
10724TIP3    H182640   4.968   2.272   2.654
10724TIP3    H282641   4.857   2.179   2.607
10725TIP3   OH282642   4.970   2.225   1.700
10725TIP3    H182643   4.994   2.268   1.615
10725TIP3    H282644   5.029   2.271   1.761
10726TIP3   OH282645   4.741   3.443   1.588
10726TIP3    H182646   4.653   3.486   1.587
10726TIP3    H282647   4.787   3.488   1.517
10727TIP3   OH282648   4.694   2.396   1.780
10727TIP3    H182649   4.770   2.457   1.780
10727TIP3    H282650   4.669   2.389   1.872
10728TIP3   OH282651   4.748   2.499   2.699
10728TIP3    H182652   4.756   2.555   2.778
10728TIP3    H282653   4.816   2.431   2.708
10729TIP3   OH282654   4.778   2.103   1.867
10729TIP3    H182655   4.751   2.167   1.935
10729TIP3    H282656   4.847   2.157   1.822
10730TIP3   OH282657   4.476   3.547   1.580
10730TIP3    H182658   4.491   3.628   1.531
10730TIP3    H282659   4.452   3.575   1.671
10731TIP3   OH282660   5.367   2.287   2.783
10731TIP3    H182661   5.274   2.318   2.770
10731TIP3    H282662   5.398   2.287   2.691
10732TIP3   OH282663   5.227   2.666   2.185
10732TIP3    H182664   5.145   2.621   2.157
10732TIP3    H282665   5.273   2.597   2.237
10733TIP3   OH282666   4.165   3.264   1.438
10733TIP3    H182667   4.232   3.320   1.478
10733TIP3    H282668   4.221   3.211   1.379
10734TIP3   OH282669   3.977   3.395   1.845
10734TIP3    H182670   3.895   3.446   1.844
10734TIP3    H282671   4.029   3.441   1.778
10735TIP3   OH282672   3.901   3.662   2.975
10735TIP3    H182673   3.960   3.641   3.050
10735TIP3    H282674   3.859   3.576   2.958
10736TIP3   OH282675   4.367   3.554   3.134
10736TIP3    H182676   4.443   3.504   3.168
10736TIP3    H282677   4.364   3.523   3.041
10737TIP3   OH282678   5.019   3.391   3.009
10737TIP3    H182679   4.987   3.303   3.037
10737TIP3    H282680   5.094   3.403   3.070
10738TIP3   OH282681   3.890   3.037   3.074
10738TIP3    H182682   3.908   2.946   3.041
10738TIP3    H282683   3.817   3.064   3.016
10739TIP3   OH282684   4.563   3.037   3.014
10739TIP3    H182685   4.528   3.068   2.928
10739TIP3    H282686   4.571   2.940   3.002
10740TIP3   OH282687   5.132   3.023   2.754
10740TIP3    H182688   5.209   3.083   2.744
10740TIP3    H282689   5.061   3.089   2.756
10741TIP3   OH282690   3.981   2.760   3.012
10741TIP3    H182691   4.024   2.674   3.002
10741TIP3    H282692   3.959   2.762   3.107
10742TIP3   OH282693   4.447   2.873   1.513
10742TIP3    H182694   4.400   2.823   1.580
10742TIP3    H282695   4.480   2.805   1.450
10743TIP3   OH282696   4.373   2.655   2.746
10743TIP3    H182697   4.313   2.726   2.774
10743TIP3    H282698   4.412   2.695   2.667
10744TIP3   OH282699   4.543   2.682   1.348
10744TIP3    H182700   4.536   2.678   1.252
10744TIP3    H282701   4.638   2.707   1.353
10745TIP3   OH282702   4.879   2.913   3.089
10745TIP3    H182703   4.975   2.909   3.071
10745TIP3    H282704   4.862   2.834   3.142
10746TIP3   OH282705   4.414   2.396   2.856
10746TIP3    H182706   4.426   2.323   2.792
10746TIP3    H282707   4.409   2.476   2.799
10747TIP3   OH282708   4.450   2.228   2.606
10747TIP3    H182709   4.505   2.277   2.541
10747TIP3    H282710   4.363   2.224   2.564
10748TIP3   OH282711   4.607   2.780   2.633
10748TIP3    H182712   4.683   2.764   2.575
10748TIP3    H282713   4.572   2.864   2.600
10749TIP3   OH282714   5.047   2.556   3.128
10749TIP3    H182715   5.070   2.462   3.124
10749TIP3    H282716   5.134   2.598   3.131
10750TIP3   OH282717   5.180   2.835   2.945
10750TIP3    H182718   5.157   2.908   2.883
10750TIP3    H282719   5.276   2.831   2.927
10751TIP3   OH282720   4.261   2.515   3.051
10751TIP3    H182721   4.182   2.462   3.028
10751TIP3    H282722   4.324   2.483   2.984
10752TIP3   OH282723   4.659   2.406   3.010
10752TIP3    H182724   4.628   2.386   3.100
10752TIP3    H282725   4.579   2.389   2.957
10753TIP3   OH282726   4.930   2.320   2.916
10753TIP3    H182727   4.835   2.328   2.931
10753TIP3    H282728   4.958   2.258   2.986
10754TIP3   OH282729   5.087   2.185   3.110
10754TIP3    H182730   5.084   2.087   3.113
10754TIP3    H282731   5.064   2.213   3.201
10755TIP3   OH282732   4.066   2.309   3.018
10755TIP3    H182733   4.096   2.237   2.960
10755TIP3    H282734   4.061   2.267   3.107
10756TIP3   OH282735   4.556   1.913   2.918
10756TIP3    H182736   4.622   1.842   2.918
10756TIP3    H282737   4.545   1.932   2.825
10757TIP3   OH282738   4.590   2.076   3.128
10757TIP3    H182739   4.571   2.024   3.046
10757TIP3    H282740   4.529   2.152   3.117
10758TIP3   OH282741   3.896   3.221   1.397
10758TIP3    H182742   3.993   3.235   1.415
10758TIP3    H282743   3.897   3.165   1.319
10759TIP3   OH282744   3.851   3.578   2.074
10759TIP3    H182745   3.816   3.491   2.096
10759TIP3    H282746   3.873   3.611   2.163
10760TIP3   OH282747   5.560   3.612   2.670
10760TIP3    H182748   5.517   3.542   2.618
10760TIP3    H282749   5.629   3.562   2.716
10761TIP3   OH282750   5.408   3.191   3.128
10761TIP3    H182751   5.320   3.184   3.170
10761TIP3    H282752   5.446   3.266   3.179
10762TIP3   OH282753   5.538   3.020   1.682
10762TIP3    H182754   5.626   3.059   1.695
10762TIP3    H282755   5.544   2.944   1.743
10763TIP3   OH282756   5.578   2.823   1.865
10763TIP3    H182757   5.502   2.776   1.903
10763TIP3    H282758   5.637   2.841   1.940
10764TIP3   OH282759   5.552   3.098   2.361
10764TIP3    H182760   5.635   3.064   2.326
10764TIP3    H282761   5.566   3.194   2.346
10765TIP3   OH282762   5.358   2.675   1.922
10765TIP3    H182763   5.342   2.579   1.919
10765TIP3    H282764   5.321   2.699   2.009
10766TIP3   OH282765   3.858   2.888   2.326
10766TIP3    H182766   3.877   2.878   2.230
10766TIP3    H282767   3.946   2.866   2.363
10767TIP3   OH282768   5.443   2.874   2.889
10767TIP3    H182769   5.504   2.797   2.903
10767TIP3    H282770   5.503   2.950   2.891
10768TIP3   OH282771   5.593   2.662   2.956
10768TIP3    H182772   5.506   2.620   2.939
10768TIP3    H282773   5.652   2.585   2.947
10769TIP3   OH282774   5.363   2.273   1.265
10769TIP3    H182775   5.425   2.236   1.331
10769TIP3    H282776   5.276   2.239   1.289
10770TIP3   OH282777   5.325   2.433   1.769
10770TIP3    H182778   5.355   2.340   1.780
10770TIP3    H282779   5.404   2.474   1.729
10771TIP3   OH282780   5.386   2.486   2.311
10771TIP3    H182781   5.481   2.510   2.309
10771TIP3    H282782   5.367   2.502   2.405
10772TIP3   OH282783   5.394   2.560   2.587
10772TIP3    H182784   5.307   2.589   2.622
10772TIP3    H282785   5.437   2.647   2.570
10773TIP3   OH282786   3.818   2.417   2.949
10773TIP3    H182787   3.913   2.394   2.960
10773TIP3    H282788   3.773   2.332   2.971
10774TIP3   OH282789   5.624   1.966   3.123
10774TIP3    H182790   5.658   1.899   3.062
10774TIP3    H282791   5.632   2.048   3.071
10775TIP3   OH282792   5.389   2.163   1.772
10775TIP3    H182793   5.412   2.118   1.857
10775TIP3    H282794   5.330   2.098   1.727
10776TIP3   OH282795   5.573   2.174   2.961
10776TIP3    H182796   5.479   2.203   2.956
10776TIP3    H282797   5.578   2.123   2.879
10777TIP3   OH282798   5.575   2.167   1.431
10777TIP3    H182799   5.613   2.096   1.376
10777TIP3    H282800   5.643   2.235   1.426
10778TIP3   OH282801   3.799   2.034   2.565
10778TIP3    H182802   3.734   2.018   2.635
10778TIP3    H282803   3.756   2.104   2.512
10779TIP3   OH282804   4.024   3.357   2.986
10779TIP3    H182805   3.940   3.377   2.942
10779TIP3    H282806   3.996   3.349   3.078
10780TIP3   OH282807   4.314   3.454   2.615
10780TIP3    H182808   4.280   3.540   2.586
10780TIP3    H282809   4.406   3.465   2.581
10781TIP3   OH282810   4.747   3.597   2.901
10781TIP3    H182811   4.759   3.563   2.993
10781TIP3    H282812   4.837   3.628   2.881
10782TIP3   OH282813   5.476   1.986   2.744
10782TIP3    H182814   5.393   2.015   2.703
10782TIP3    H282815   5.493   1.904   2.692
10783TIP3   OH282816   4.055   3.779   2.612
10783TIP3    H182817   3.981   3.828   2.572
10783TIP3    H282818   4.022   3.762   2.701
10784TIP3   OH282819   4.302   3.734   2.517
10784TIP3    H182820   4.215   3.755   2.559
10784TIP3    H282821   4.294   3.794   2.442
10785TIP3   OH282822   3.995   3.637   2.305
10785TIP3    H182823   3.999   3.599   2.395
10785TIP3    H282824   4.081   3.611   2.266
10786TIP3   OH282825   4.207   3.514   2.169
10786TIP3    H182826   4.191   3.421   2.194
10786TIP3    H282827   4.292   3.531   2.214
10787TIP3   OH282828   4.471   3.562   2.260
10787TIP3    H182829   4.486   3.470   2.232
10787TIP3    H282830   4.470   3.555   2.356
10788TIP3   OH282831   4.817   2.130   2.173
10788TIP3    H182832   4.748   2.067   2.198
10788TIP3    H282833   4.872   2.077   2.115
10789TIP3   OH282834   5.327   1.933   2.181
10789TIP3    H182835   5.389   1.992   2.130
10789TIP3    H282836   5.239   1.969   2.156
10790TIP3   OH282837   5.496   2.058   2.009
10790TIP3    H182838   5.565   2.000   1.966
10790TIP3    H282839   5.546   2.140   2.020
10791TIP3   OH282840   4.502   1.988   1.937
10791TIP3    H182841   4.595   2.015   1.930
10791TIP3    H282842   4.494   1.962   2.029
10792TIP3   OH282843   5.068   1.987   2.099
10792TIP3    H182844   5.066   1.996   2.003
10792TIP3    H282845   5.030   1.897   2.113
10793TIP3   OH282846   5.198   1.991   1.664
10793TIP3    H182847   5.122   2.050   1.650
10793TIP3    H282848   5.155   1.906   1.687
10794TIP3   OH282849   3.923   3.563   1.633
10794TIP3    H182850   3.855   3.561   1.561
10794TIP3    H282851   3.922   3.657   1.647
10795TIP3   OH282852   4.616   2.186   1.622
10795TIP3    H182853   4.637   2.125   1.694
10795TIP3    H282854   4.620   2.271   1.670
10796TIP3   OH282855   4.102   3.662   1.326
10796TIP3    H182856   4.076   3.686   1.416
10796TIP3    H282857   4.179   3.606   1.342
10797TIP3   OH282858   5.082   1.913   3.081
10797TIP3    H182859   5.092   1.865   3.165
10797TIP3    H282860   5.173   1.909   3.047
10798TIP3   OH282861   5.385   3.509   2.958
10798TIP3    H182862   5.309   3.498   2.895
10798TIP3    H282863   5.370   3.604   2.981
10799TIP3   OH282864   6.845   2.908   1.946
10799TIP3    H182865   6.846   3.004   1.939
10799TIP3    H282866   6.775   2.881   1.882
10800TIP3   OH282867   6.733   2.831   2.292
10800TIP3    H182868   6.732   2.768   2.366
10800TIP3    H282869   6.702   2.781   2.217
10801TIP3   OH282870   7.088   3.129   2.115
10801TIP3    H182871   7.062   3.053   2.170
10801TIP3    H282872   7.106   3.193   2.186
10802TIP3   OH282873   5.719   2.596   1.851
10802TIP3    H182874   5.682   2.686   1.841
10802TIP3    H282875   5.667   2.547   1.787
10803TIP3   OH282876   5.792   2.819   2.057
10803TIP3    H182877   5.819   2.740   2.103
10803TIP3    H282878   5.865   2.832   1.993
10804TIP3   OH282879   6.574   3.081   2.330
10804TIP3    H182880   6.603   3.003   2.279
10804TIP3    H282881   6.648   3.087   2.393
10805TIP3   OH282882   6.895   2.521   2.371
10805TIP3    H182883   6.898   2.423   2.375
10805TIP3    H282884   6.875   2.531   2.275
10806TIP3   OH282885   6.974   2.335   1.930
10806TIP3    H182886   7.039   2.304   1.997
10806TIP3    H282887   7.028   2.392   1.875
10807TIP3   OH282888   6.341   2.980   2.528
10807TIP3    H182889   6.271   3.045   2.542
10807TIP3    H282890   6.411   3.037   2.494
10808TIP3   OH282891   7.154   2.269   2.130
10808TIP3    H182892   7.126   2.192   2.183
10808TIP3    H282893   7.220   2.310   2.185
10809TIP3   OH282894   6.181   3.180   2.604
10809TIP3    H182895   6.179   3.272   2.570
10809TIP3    H282896   6.095   3.173   2.651
10810TIP3   OH282897   5.793   3.143   1.683
10810TIP3    H182898   5.768   3.173   1.593
10810TIP3    H282899   5.798   3.227   1.731
10811TIP3   OH282900   7.153   3.311   2.359
10811TIP3    H182901   7.058   3.319   2.374
10811TIP3    H282902   7.181   3.403   2.340
10812TIP3   OH282903   7.189   2.137   2.494
10812TIP3    H182904   7.113   2.198   2.492
10812TIP3    H282905   7.255   2.184   2.443
10813TIP3   OH282906   6.484   1.946   2.243
10813TIP3    H182907   6.475   1.850   2.237
10813TIP3    H282908   6.399   1.975   2.275
10814TIP3   OH282909   7.096   3.277   1.869
10814TIP3    H182910   7.075   3.207   1.807
10814TIP3    H282911   7.104   3.232   1.955
10815TIP3   OH282912   6.714   2.836   1.700
10815TIP3    H182913   6.640   2.880   1.657
10815TIP3    H282914   6.780   2.837   1.628
10816TIP3   OH282915   6.719   2.682   1.406
10816TIP3    H182916   6.793   2.681   1.466
10816TIP3    H282917   6.747   2.620   1.337
10817TIP3   OH282918   7.052   2.851   1.784
10817TIP3    H182919   6.982   2.874   1.849
10817TIP3    H282920   7.103   2.786   1.837
10818TIP3   OH282921   7.049   2.670   2.699
10818TIP3    H182922   7.044   2.748   2.755
10818TIP3    H282923   6.984   2.695   2.630
10819TIP3   OH282924   6.351   3.259   2.246
10819TIP3    H182925   6.346   3.197   2.173
10819TIP3    H282926   6.426   3.221   2.296
10820TIP3   OH282927   6.343   3.230   2.816
10820TIP3    H182928   6.305   3.309   2.861
10820TIP3    H282929   6.280   3.215   2.742
10821TIP3   OH282930   6.947   2.767   1.554
10821TIP3    H182931   6.999   2.789   1.635
10821TIP3    H282932   6.985   2.822   1.485
10822TIP3   OH282933   6.173   3.441   2.892
10822TIP3    H182934   6.167   3.430   2.796
10822TIP3    H282935   6.081   3.424   2.919
10823TIP3   OH282936   7.316   1.941   1.544
10823TIP3    H182937   7.222   1.956   1.571
10823TIP3    H282938   7.335   2.024   1.499
10824TIP3   OH282939   7.428   3.380   1.387
10824TIP3    H182940   7.438   3.477   1.394
10824TIP3    H282941   7.519   3.352   1.370
10825TIP3   OH282942   5.702   3.335   2.307
10825TIP3    H182943   5.797   3.324   2.303
10825TIP3    H282944   5.695   3.417   2.357
10826TIP3   OH282945   7.524   3.402   2.876
10826TIP3    H182946   7.513   3.307   2.877
10826TIP3    H282947   7.438   3.430   2.916
10827TIP3   OH282948   6.624   3.355   2.772
10827TIP3    H182949   6.626   3.445   2.813
10827TIP3    H282950   6.532   3.328   2.785
10828TIP3   OH282951   6.024   3.623   1.922
10828TIP3    H182952   6.045   3.581   2.008
10828TIP3    H282953   5.941   3.579   1.899
10829TIP3   OH282954   7.230   2.553   2.928
10829TIP3    H182955   7.195   2.596   2.850
10829TIP3    H282956   7.242   2.462   2.896
10830TIP3   OH282957   5.946   3.196   2.722
10830TIP3    H182958   5.975   3.154   2.807
10830TIP3    H282959   5.865   3.149   2.706
10831TIP3   OH282960   6.685   2.008   2.657
10831TIP3    H182961   6.725   1.964   2.733
10831TIP3    H282962   6.589   1.993   2.668
10832TIP3   OH282963   7.016   2.391   2.744
10832TIP3    H182964   6.959   2.370   2.822
10832TIP3    H282965   6.994   2.483   2.723
10833TIP3   OH282966   6.644   2.263   1.388
10833TIP3    H182967   6.619   2.263   1.482
10833TIP3    H282968   6.623   2.174   1.361
10834TIP3   OH282969   6.781   2.600   1.809
10834TIP3    H182970   6.736   2.679   1.773
10834TIP3    H282971   6.847   2.583   1.740
10835TIP3   OH282972   6.684   2.619   2.953
10835TIP3    H182973   6.631   2.542   2.983
10835TIP3    H282974   6.768   2.607   2.999
10836TIP3   OH282975   6.883   2.548   2.092
10836TIP3    H182976   6.853   2.602   2.017
10836TIP3    H282977   6.892   2.463   2.045
10837TIP3   OH282978   6.807   2.706   2.551
10837TIP3    H182979   6.836   2.637   2.489
10837TIP3    H282980   6.756   2.654   2.615
10838TIP3   OH282981   6.923   2.229   2.353
10838TIP3    H182982   6.856   2.233   2.425
10838TIP3    H282983   6.868   2.203   2.278
10839TIP3   OH282984   7.244   3.791   2.993
10839TIP3    H182985   7.269   3.829   2.907
10839TIP3    H282986   7.316   3.823   3.049
10840TIP3   OH282987   6.009   3.046   2.943
10840TIP3    H182988   6.082   3.061   3.005
10840TIP3    H282989   5.931   3.047   3.003
10841TIP3   OH282990   6.915   2.315   1.455
10841TIP3    H182991   6.822   2.329   1.432
10841TIP3    H282992   6.945   2.405   1.480
10842TIP3   OH282993   6.688   3.061   2.759
10842TIP3    H182994   6.648   3.020   2.836
10842TIP3    H282995   6.658   3.153   2.764
10843TIP3   OH282996   6.989   2.508   1.617
10843TIP3    H182997   7.078   2.496   1.654
10843TIP3    H282998   6.996   2.590   1.565
10844TIP3   OH282999   6.913   3.303   2.751
10844TIP3    H183000   6.821   3.319   2.725
10844TIP3    H283001   6.907   3.335   2.844
10845TIP3   OH283002   7.478   3.111   2.871
10845TIP3    H183003   7.390   3.128   2.835
10845TIP3    H283004   7.531   3.103   2.791
10846TIP3   OH283005   7.307   3.410   1.631
10846TIP3    H183006   7.270   3.328   1.665
10846TIP3    H283007   7.336   3.386   1.541
10847TIP3   OH283008   7.025   2.885   2.336
10847TIP3    H183009   6.931   2.863   2.331
10847TIP3    H283010   7.069   2.808   2.297
10848TIP3   OH283011   6.821   3.103   2.502
10848TIP3    H183012   6.788   3.088   2.593
10848TIP3    H283013   6.887   3.034   2.490
10849TIP3   OH283014   7.046   3.205   1.419
10849TIP3    H183015   7.082   3.163   1.499
10849TIP3    H283016   6.952   3.191   1.424
10850TIP3   OH283017   7.103   3.564   2.754
10850TIP3    H183018   7.033   3.513   2.709
10850TIP3    H283019   7.118   3.636   2.688
10851TIP3   OH283020   7.501   3.648   1.441
10851TIP3    H183021   7.572   3.711   1.418
10851TIP3    H283022   7.429   3.709   1.465
10852TIP3   OH283023   5.909   2.289   2.693
10852TIP3    H183024   5.819   2.324   2.691
10852TIP3    H283025   5.897   2.204   2.738
10853TIP3   OH283026   7.133   3.074   1.644
10853TIP3    H183027   7.109   2.992   1.691
10853TIP3    H283028   7.228   3.078   1.657
10854TIP3   OH283029   5.868   3.465   2.537
10854TIP3    H183030   5.898   3.373   2.539
10854TIP3    H283031   5.898   3.497   2.622
10855TIP3   OH283032   6.343   3.268   1.510
10855TIP3    H183033   6.371   3.217   1.587
10855TIP3    H283034   6.356   3.359   1.539
10856TIP3   OH283035   5.995   3.004   1.548
10856TIP3    H183036   5.928   3.034   1.612
10856TIP3    H283037   6.047   3.082   1.532
10857TIP3   OH283038   6.780   2.267   2.591
10857TIP3    H183039   6.852   2.271   2.655
10857TIP3    H283040   6.741   2.179   2.607
10858TIP3   OH283041   6.853   2.223   1.698
10858TIP3    H183042   6.878   2.269   1.615
10858TIP3    H283043   6.910   2.267   1.762
10859TIP3   OH283044   6.582   2.399   1.777
10859TIP3    H183045   6.658   2.459   1.782
10859TIP3    H283046   6.551   2.387   1.867
10860TIP3   OH283047   6.635   2.501   2.701
10860TIP3    H183048   6.645   2.557   2.780
10860TIP3    H283049   6.702   2.432   2.707
10861TIP3   OH283050   6.670   2.104   1.873
10861TIP3    H183051   6.632   2.169   1.932
10861TIP3    H283052   6.733   2.159   1.822
10862TIP3   OH283053   7.254   2.288   2.781
10862TIP3    H183054   7.160   2.318   2.771
10862TIP3    H283055   7.284   2.288   2.690
10863TIP3   OH283056   7.114   2.664   2.188
10863TIP3    H183057   7.030   2.623   2.156
10863TIP3    H283058   7.153   2.594   2.239
10864TIP3   OH283059   6.054   3.262   1.444
10864TIP3    H183060   6.120   3.324   1.476
10864TIP3    H283061   6.104   3.215   1.376
10865TIP3   OH283062   7.218   3.595   2.354
10865TIP3    H183063   7.209   3.660   2.281
10865TIP3    H283064   7.315   3.597   2.369
10866TIP3   OH283065   5.971   2.002   2.231
10866TIP3    H183066   5.949   2.008   2.137
10866TIP3    H283067   5.926   1.920   2.257
10867TIP3   OH283068   5.866   3.395   1.846
10867TIP3    H183069   5.782   3.442   1.839
10867TIP3    H283070   5.915   3.442   1.778
10868TIP3   OH283071   5.778   3.657   2.976
10868TIP3    H183072   5.845   3.644   3.048
10868TIP3    H283073   5.754   3.565   2.960
10869TIP3   OH283074   6.253   3.554   3.136
10869TIP3    H183075   6.330   3.504   3.167
10869TIP3    H283076   6.250   3.525   3.042
10870TIP3   OH283077   6.905   3.389   3.007
10870TIP3    H183078   6.871   3.302   3.037
10870TIP3    H283079   6.980   3.404   3.068
10871TIP3   OH283080   5.775   3.037   3.075
10871TIP3    H183081   5.795   2.947   3.040
10871TIP3    H283082   5.703   3.065   3.016
10872TIP3   OH283083   6.445   3.035   3.014
10872TIP3    H183084   6.414   3.068   2.927
10872TIP3    H283085   6.461   2.941   3.001
10873TIP3   OH283086   7.021   3.024   2.751
10873TIP3    H183087   7.092   3.089   2.744
10873TIP3    H283088   6.945   3.086   2.753
10874TIP3   OH283089   5.872   2.763   3.017
10874TIP3    H183090   5.907   2.675   3.000
10874TIP3    H283091   5.844   2.760   3.110
10875TIP3   OH283092   6.767   2.913   3.086
10875TIP3    H183093   6.862   2.910   3.072
10875TIP3    H283094   6.750   2.835   3.141
10876TIP3   OH283095   6.307   2.395   2.857
10876TIP3    H183096   6.308   2.323   2.793
10876TIP3    H283097   6.291   2.472   2.801
10877TIP3   OH283098   6.933   2.558   3.127
10877TIP3    H183099   6.955   2.464   3.122
10877TIP3    H283100   7.021   2.599   3.130
10878TIP3   OH283101   7.070   2.836   2.945
10878TIP3    H183102   7.040   2.907   2.884
10878TIP3    H283103   7.164   2.826   2.927
10879TIP3   OH283104   6.414   1.978   2.652
10879TIP3    H183105   6.403   2.072   2.633
10879TIP3    H283106   6.343   1.939   2.597
10880TIP3   OH283107   6.545   2.406   3.010
10880TIP3    H183108   6.514   2.389   3.100
10880TIP3    H283109   6.465   2.392   2.956
10881TIP3   OH283110   6.815   2.319   2.915
10881TIP3    H183111   6.720   2.327   2.932
10881TIP3    H283112   6.844   2.260   2.987
10882TIP3   OH283113   6.972   2.185   3.110
10882TIP3    H183114   6.971   2.087   3.113
10882TIP3    H283115   6.949   2.213   3.201
10883TIP3   OH283116   5.953   2.312   3.019
10883TIP3    H183117   5.978   2.240   2.960
10883TIP3    H283118   5.945   2.269   3.107
10884TIP3   OH283119   6.438   1.910   2.916
10884TIP3    H183120   6.512   1.845   2.908
10884TIP3    H283121   6.430   1.932   2.820
10885TIP3   OH283122   6.462   2.068   3.128
10885TIP3    H183123   6.466   2.036   3.035
10885TIP3    H283124   6.420   2.156   3.118
10886TIP3   OH283125   5.782   3.229   1.389
10886TIP3    H183126   5.876   3.234   1.413
10886TIP3    H283127   5.783   3.161   1.321
10887TIP3   OH283128   5.651   3.763   1.889
10887TIP3    H183129   5.582   3.716   1.844
10887TIP3    H283130   5.683   3.700   1.956
10888TIP3   OH283131   5.738   3.577   2.075
10888TIP3    H183132   5.706   3.489   2.095
10888TIP3    H283133   5.763   3.611   2.163
10889TIP3   OH283134   7.483   3.663   2.371
10889TIP3    H183135   7.494   3.670   2.468
10889TIP3    H283136   7.562   3.709   2.340
10890TIP3   OH283137   7.446   3.614   2.666
10890TIP3    H183138   7.401   3.537   2.627
10890TIP3    H283139   7.499   3.573   2.736
10891TIP3   OH283140   7.294   3.187   3.130
10891TIP3    H183141   7.205   3.184   3.171
10891TIP3    H283142   7.331   3.266   3.175
10892TIP3   OH283143   7.292   3.389   2.591
10892TIP3    H183144   7.223   3.422   2.650
10892TIP3    H283145   7.238   3.344   2.522
10893TIP3   OH283146   7.231   2.680   1.918
10893TIP3    H183147   7.228   2.584   1.919
10893TIP3    H283148   7.208   2.704   2.009
10894TIP3   OH283149   7.207   2.432   1.763
10894TIP3    H183150   7.239   2.343   1.783
10894TIP3    H283151   7.286   2.477   1.730
10895TIP3   OH283152   5.705   2.415   2.944
10895TIP3    H183153   5.800   2.396   2.961
10895TIP3    H283154   5.662   2.331   2.971
10896TIP3   OH283155   7.513   1.964   3.125
10896TIP3    H183156   7.540   1.899   3.060
10896TIP3    H283157   7.516   2.048   3.073
10897TIP3   OH283158   5.821   2.242   2.232
10897TIP3    H183159   5.871   2.160   2.249
10897TIP3    H283160   5.880   2.309   2.263
10898TIP3   OH283161   5.656   2.544   2.326
10898TIP3    H183162   5.709   2.514   2.252
10898TIP3    H283163   5.696   2.625   2.358
10899TIP3   OH283164   7.458   2.172   2.962
10899TIP3    H183165   7.367   2.206   2.955
10899TIP3    H283166   7.464   2.123   2.879
10900TIP3   OH283167   5.689   2.165   1.729
10900TIP3    H183168   5.595   2.189   1.726
10900TIP3    H283169   5.730   2.223   1.666
10901TIP3   OH283170   7.168   3.667   1.934
10901TIP3    H183171   7.234   3.631   1.873
10901TIP3    H283172   7.218   3.715   2.000
10902TIP3   OH283173   5.685   2.034   2.568
10902TIP3    H183174   5.618   2.017   2.637
10902TIP3    H283175   5.640   2.102   2.513
10903TIP3   OH283176   5.909   3.358   2.985
10903TIP3    H183177   5.825   3.373   2.942
10903TIP3    H283178   5.884   3.347   3.078
10904TIP3   OH283179   6.198   3.455   2.612
10904TIP3    H183180   6.166   3.543   2.586
10904TIP3    H283181   6.289   3.462   2.581
10905TIP3   OH283182   6.632   3.594   2.904
10905TIP3    H183183   6.647   3.563   2.996
10905TIP3    H283184   6.719   3.629   2.879
10906TIP3   OH283185   7.357   1.984   2.747
10906TIP3    H183186   7.278   2.018   2.702
10906TIP3    H283187   7.381   1.906   2.692
10907TIP3   OH283188   5.942   3.779   2.614
10907TIP3    H183189   5.870   3.827   2.570
10907TIP3    H283190   5.908   3.760   2.702
10908TIP3   OH283191   6.187   3.731   2.519
10908TIP3    H183192   6.100   3.751   2.560
10908TIP3    H283193   6.184   3.795   2.444
10909TIP3   OH283194   7.148   3.769   2.562
10909TIP3    H183195   7.138   3.864   2.537
10909TIP3    H283196   7.167   3.729   2.475
10910TIP3   OH283197   5.878   3.639   2.304
10910TIP3    H183198   5.881   3.603   2.394
10910TIP3    H283199   5.964   3.610   2.266
10911TIP3   OH283200   6.092   3.518   2.177
10911TIP3    H183201   6.080   3.423   2.191
10911TIP3    H283202   6.181   3.528   2.215
10912TIP3   OH283203   6.702   2.129   2.175
10912TIP3    H183204   6.632   2.065   2.199
10912TIP3    H283205   6.758   2.077   2.115
10913TIP3   OH283206   7.215   1.938   2.180
10913TIP3    H183207   7.275   1.996   2.131
10913TIP3    H283208   7.125   1.968   2.156
10914TIP3   OH283209   5.811   1.968   1.528
10914TIP3    H183210   5.864   2.033   1.480
10914TIP3    H283211   5.755   2.021   1.587
10915TIP3   OH283212   6.952   1.985   2.100
10915TIP3    H183213   6.952   1.997   2.004
10915TIP3    H283214   6.918   1.895   2.110
10916TIP3   OH283215   7.084   1.990   1.666
10916TIP3    H183216   7.008   2.048   1.650
10916TIP3    H283217   7.041   1.906   1.688
10917TIP3   OH283218   5.807   3.563   1.631
10917TIP3    H183219   5.738   3.562   1.562
10917TIP3    H283220   5.808   3.658   1.647
10918TIP3   OH283221   7.365   3.646   1.737
10918TIP3    H183222   7.343   3.567   1.682
10918TIP3    H283223   7.357   3.717   1.674
10919TIP3   OH283224   5.927   2.043   2.903
10919TIP3    H183225   5.886   1.966   2.946
10919TIP3    H283226   6.018   2.043   2.940
10920TIP3   OH283227   6.128   1.985   3.074
10920TIP3    H183228   6.206   1.950   3.031
10920TIP3    H283229   6.082   1.905   3.107
10921TIP3   OH283230   5.990   3.660   1.326
10921TIP3    H183231   5.959   3.687   1.413
10921TIP3    H283232   6.065   3.604   1.342
10922TIP3   OH283233   6.968   1.911   3.078
10922TIP3    H183234   6.977   1.865   3.164
10922TIP3    H283235   7.061   1.910   3.048
10923TIP3   OH283236   7.287   3.517   2.948
10923TIP3    H183237   7.208   3.504   2.893
10923TIP3    H283238   7.277   3.613   2.967
10924TIP3   OH283239   7.853   2.798   2.455
10924TIP3    H183240   7.865   2.727   2.520
10924TIP3    H283241   7.927   2.858   2.469
10925TIP3   OH283242   7.946   3.238   2.309
10925TIP3    H183243   7.911   3.155   2.270
10925TIP3    H283244   8.041   3.222   2.305
10926TIP3   OH283245   8.058   2.288   2.080
10926TIP3    H183246   8.084   2.380   2.059
10926TIP3    H283247   8.027   2.251   1.999
10927TIP3   OH283248   8.047   3.189   2.586
10927TIP3    H183249   8.057   3.284   2.576
10927TIP3    H283250   7.974   3.183   2.652
10928TIP3   OH283251   8.096   2.916   1.992
10928TIP3    H183252   8.069   2.887   1.901
10928TIP3    H283253   8.160   2.847   2.013
10929TIP3   OH283254   8.055   3.443   2.893
10929TIP3    H183255   8.051   3.423   2.798
10929TIP3    H283256   7.963   3.423   2.920
10930TIP3   OH283257   7.969   2.832   1.753
10930TIP3    H183258   7.968   2.900   1.683
10930TIP3    H283259   7.935   2.754   1.709
10931TIP3   OH283260   7.832   3.200   2.728
10931TIP3    H183261   7.860   3.154   2.810
10931TIP3    H283262   7.753   3.152   2.703
10932TIP3   OH283263   8.097   2.038   2.328
10932TIP3    H183264   8.011   2.031   2.281
10932TIP3    H283265   8.098   2.129   2.356
10933TIP3   OH283266   8.093   2.516   2.449
10933TIP3    H183267   8.027   2.530   2.516
10933TIP3    H283268   8.112   2.606   2.415
10934TIP3   OH283269   8.093   2.570   1.889
10934TIP3    H183270   8.017   2.518   1.913
10934TIP3    H283271   8.157   2.513   1.847
10935TIP3   OH283272   7.886   2.565   2.623
10935TIP3    H183273   7.877   2.602   2.711
10935TIP3    H283274   7.835   2.483   2.629
10936TIP3   OH283275   8.080   2.580   1.441
10936TIP3    H183276   8.026   2.544   1.370
10936TIP3    H283277   8.163   2.600   1.394
10937TIP3   OH283278   7.900   3.043   2.948
10937TIP3    H183279   7.969   3.065   3.011
10937TIP3    H283280   7.821   3.053   3.005
10938TIP3   OH283281   7.936   2.974   2.218
10938TIP3    H183282   7.997   2.967   2.142
10938TIP3    H283283   7.932   2.885   2.255
10939TIP3   OH283284   7.766   3.470   2.536
10939TIP3    H183285   7.781   3.375   2.536
10939TIP3    H283286   7.777   3.493   2.629
10940TIP3   OH283287  -0.032   2.217   1.542
10940TIP3    H183288  -0.033   2.307   1.575
10940TIP3    H283289   0.059   2.186   1.559
10941TIP3   OH283290   7.852   2.006   2.230
10941TIP3    H183291   7.832   2.010   2.134
10941TIP3    H283292   7.814   1.921   2.258
10942TIP3   OH283293   7.752   3.397   1.844
10942TIP3    H183294   7.667   3.443   1.845
10942TIP3    H283295   7.801   3.449   1.780
10943TIP3   OH283296   7.672   3.661   2.975
10943TIP3    H183297   7.733   3.640   3.048
10943TIP3    H283298   7.630   3.575   2.956
10944TIP3   OH283299   7.664   3.042   3.077
10944TIP3    H183300   7.678   2.949   3.049
10944TIP3    H283301   7.588   3.066   3.020
10945TIP3   OH283302   8.097   3.062   1.270
10945TIP3    H183303   8.114   2.995   1.337
10945TIP3    H283304   8.172   3.061   1.210
10946TIP3   OH283305   8.022   2.526   3.054
10946TIP3    H183306   7.948   2.465   3.033
10946TIP3    H283307   8.090   2.491   2.993
10947TIP3   OH283308   7.852   2.310   3.020
10947TIP3    H183309   7.860   2.235   2.960
10947TIP3    H283310   7.832   2.268   3.107
10948TIP3   OH283311   7.541   3.767   1.891
10948TIP3    H183312   7.473   3.714   1.844
10948TIP3    H283313   7.575   3.699   1.954
10949TIP3   OH283314   7.616   3.576   2.076
10949TIP3    H183315   7.591   3.486   2.094
10949TIP3    H283316   7.646   3.608   2.162
10950TIP3   OH283317   7.592   2.414   2.943
10950TIP3    H183318   7.685   2.395   2.962
10950TIP3    H283319   7.546   2.332   2.970
10951TIP3   OH283320   7.573   2.035   2.567
10951TIP3    H183321   7.509   2.018   2.638
10951TIP3    H283322   7.531   2.105   2.516
10952TIP3   OH283323   7.792   3.355   2.987
10952TIP3    H183324   7.709   3.375   2.941
10952TIP3    H283325   7.763   3.349   3.078
10953TIP3   OH283326   8.087   3.452   2.629
10953TIP3    H183327   8.037   3.531   2.608
10953TIP3    H283328   8.181   3.456   2.602
10954TIP3   OH283329   7.830   3.777   2.609
10954TIP3    H183330   7.754   3.825   2.572
10954TIP3    H283331   7.796   3.762   2.699
10955TIP3   OH283332   7.771   3.651   2.314
10955TIP3    H183333   7.760   3.593   2.392
10955TIP3    H283334   7.844   3.609   2.263
10956TIP3   OH283335   7.980   3.515   2.187
10956TIP3    H183336   7.959   3.419   2.191
10956TIP3    H283337   8.071   3.523   2.208
10957TIP3   OH283338   7.821   1.997   1.957
10957TIP3    H183339   7.743   1.971   1.905
10957TIP3    H283340   7.870   1.911   1.955
10958TIP3   OH283341   7.698   1.969   1.527
10958TIP3    H183342   7.752   2.032   1.476
10958TIP3    H283343   7.646   2.027   1.585
10959TIP3   OH283344   7.694   3.566   1.626
10959TIP3    H183345   7.622   3.564   1.562
10959TIP3    H283346   7.693   3.658   1.653
10960TIP3   OH283347   7.881   2.158   1.383
10960TIP3    H183348   7.936   2.102   1.329
10960TIP3    H283349   7.951   2.195   1.441
10961TIP3   OH283350   7.815   2.043   2.903
10961TIP3    H183351   7.773   1.967   2.947
10961TIP3    H283352   7.904   2.048   2.942
10962TIP3   OH283353   8.012   1.994   3.072
10962TIP3    H183354   8.104   1.968   3.051
10962TIP3    H283355   7.973   1.922   3.126
10963TIP3   OH283356   1.188   4.792   1.946
10963TIP3    H183357   1.190   4.889   1.940
10963TIP3    H283358   1.121   4.767   1.881
10964TIP3   OH283359   1.080   4.716   2.295
10964TIP3    H183360   1.071   4.651   2.365
10964TIP3    H283361   1.041   4.669   2.219
10965TIP3   OH283362   0.316   4.680   2.443
10965TIP3    H183363   0.317   4.617   2.518
10965TIP3    H283364   0.379   4.745   2.474
10966TIP3   OH283365   1.448   5.010   2.122
10966TIP3    H183366   1.403   4.939   2.169
10966TIP3    H283367   1.443   5.084   2.184
10967TIP3   OH283368   0.077   4.497   1.867
10967TIP3    H183369   0.028   4.576   1.846
10967TIP3    H283370   0.037   4.437   1.805
10968TIP3   OH283371   0.148   4.701   2.062
10968TIP3    H183372   0.174   4.621   2.112
10968TIP3    H283373   0.219   4.711   1.998
10969TIP3   OH283374   1.231   4.398   2.371
10969TIP3    H183375   1.242   4.303   2.369
10969TIP3    H283376   1.217   4.419   2.276
10970TIP3   OH283377   0.551   4.210   2.094
10970TIP3    H183378   0.554   4.296   2.048
10970TIP3    H283379   0.505   4.156   2.025
10971TIP3   OH283380   1.316   4.224   1.934
10971TIP3    H183381   1.383   4.190   1.997
10971TIP3    H283382   1.369   4.276   1.872
10972TIP3   OH283383   0.236   4.481   2.160
10972TIP3    H183384   0.274   4.411   2.215
10972TIP3    H283385   0.211   4.433   2.079
10973TIP3   OH283386   0.720   4.607   2.099
10973TIP3    H183387   0.787   4.550   2.139
10973TIP3    H283388   0.669   4.543   2.045
10974TIP3   OH283389   1.818   4.261   2.644
10974TIP3    H183390   1.756   4.334   2.627
10974TIP3    H283391   1.821   4.256   2.739
10975TIP3   OH283392   0.443   4.119   2.509
10975TIP3    H183393   0.406   4.159   2.428
10975TIP3    H283394   0.364   4.125   2.566
10976TIP3   OH283395   1.163   5.050   1.853
10976TIP3    H183396   1.136   5.023   1.764
10976TIP3    H283397   1.135   5.142   1.858
10977TIP3   OH283398   1.491   4.159   2.133
10977TIP3    H183399   1.478   4.077   2.181
10977TIP3    H283400   1.565   4.200   2.182
10978TIP3   OH283401   0.412   4.301   2.299
10978TIP3    H183402   0.473   4.366   2.336
10978TIP3    H283403   0.457   4.256   2.226
10979TIP3   OH283404   1.053   4.717   1.697
10979TIP3    H183405   0.983   4.768   1.656
10979TIP3    H283406   1.125   4.724   1.630
10980TIP3   OH283407   1.060   4.562   1.402
10980TIP3    H183408   1.134   4.569   1.464
10980TIP3    H283409   1.094   4.497   1.339
10981TIP3   OH283410   1.793   4.655   2.526
10981TIP3    H183411   1.725   4.725   2.529
10981TIP3    H283412   1.841   4.677   2.444
10982TIP3   OH283413   1.395   4.724   1.785
10982TIP3    H183414   1.329   4.762   1.848
10982TIP3    H283415   1.449   4.669   1.842
10983TIP3   OH283416   1.392   4.551   2.699
10983TIP3    H183417   1.394   4.631   2.754
10983TIP3    H283418   1.329   4.582   2.630
10984TIP3   OH283419   0.592   4.681   2.343
10984TIP3    H183420   0.651   4.684   2.265
10984TIP3    H283421   0.630   4.742   2.406
10985TIP3   OH283422   0.686   5.117   2.810
10985TIP3    H183423   0.651   5.193   2.858
10985TIP3    H283424   0.617   5.100   2.744
10986TIP3   OH283425   1.291   4.649   1.554
10986TIP3    H183426   1.342   4.674   1.637
10986TIP3    H283427   1.325   4.712   1.489
10987TIP3   OH283428   0.382   4.731   2.735
10987TIP3    H183429   0.387   4.803   2.801
10987TIP3    H283430   0.290   4.747   2.707
10988TIP3   OH283431   0.110   4.921   2.608
10988TIP3    H183432   0.032   4.943   2.553
10988TIP3    H283433   0.073   4.844   2.654
10989TIP3   OH283434   0.050   5.233   2.303
10989TIP3    H183435   0.141   5.201   2.312
10989TIP3    H283436   0.035   5.302   2.367
10990TIP3   OH283437   0.960   5.242   2.764
10990TIP3    H183438   0.970   5.328   2.811
10990TIP3    H283439   0.872   5.210   2.789
10991TIP3   OH283440   1.581   4.436   2.924
10991TIP3    H183441   1.535   4.482   2.851
10991TIP3    H283442   1.577   4.345   2.893
10992TIP3   OH283443   0.292   5.082   2.724
10992TIP3    H183444   0.314   5.043   2.811
10992TIP3    H283445   0.209   5.036   2.700
10993TIP3   OH283446   0.560   3.926   2.329
10993TIP3    H183447   0.476   3.911   2.282
10993TIP3    H283448   0.549   4.012   2.370
10994TIP3   OH283449   1.361   4.270   2.745
10994TIP3    H183450   1.304   4.255   2.823
10994TIP3    H283451   1.343   4.363   2.722
10995TIP3   OH283452   0.578   4.428   2.448
10995TIP3    H183453   0.500   4.419   2.505
10995TIP3    H283454   0.567   4.516   2.407
10996TIP3   OH283455   0.571   4.434   1.933
10996TIP3    H183456   0.475   4.416   1.917
10996TIP3    H283457   0.609   4.407   1.847
10997TIP3   OH283458   1.120   4.479   1.805
10997TIP3    H183459   1.080   4.564   1.776
10997TIP3    H283460   1.192   4.468   1.741
10998TIP3   OH283461   1.028   4.507   2.952
10998TIP3    H183462   0.975   4.428   2.982
10998TIP3    H283463   1.112   4.492   2.999
10999TIP3   OH283464   1.226   4.432   2.090
10999TIP3    H183465   1.198   4.490   2.017
10999TIP3    H283466   1.235   4.347   2.042
11000TIP3   OH283467   0.338   4.452   2.615
11000TIP3    H183468   0.340   4.494   2.703
11000TIP3    H283469   0.293   4.367   2.631
11001TIP3   OH283470   0.043   4.241   1.971
11001TIP3    H183471   0.055   4.196   2.059
11001TIP3    H283472   0.052   4.153   1.928
11002TIP3   OH283473   0.165   4.276   1.543
11002TIP3    H183474   0.189   4.315   1.464
11002TIP3    H283475   0.072   4.298   1.563
11003TIP3   OH283476   1.144   4.592   2.549
11003TIP3    H183477   1.182   4.524   2.489
11003TIP3    H283478   1.100   4.537   2.616
11004TIP3   OH283479   0.319   4.360   1.899
11004TIP3    H183480   0.223   4.367   1.881
11004TIP3    H283481   0.336   4.268   1.874
11005TIP3   OH283482   0.670   4.348   1.682
11005TIP3    H183483   0.766   4.359   1.699
11005TIP3    H283484   0.648   4.415   1.614
11006TIP3   OH283485   0.542   4.463   1.441
11006TIP3    H183486   0.485   4.435   1.368
11006TIP3    H283487   0.621   4.491   1.392
11007TIP3   OH283488   1.586   5.682   2.991
11007TIP3    H183489   1.615   5.715   2.905
11007TIP3    H283490   1.660   5.706   3.047
11008TIP3   OH283491   0.368   4.919   2.942
11008TIP3    H183492   0.430   4.949   3.010
11008TIP3    H283493   0.285   4.936   2.992
11009TIP3   OH283494   0.955   4.466   2.221
11009TIP3    H183495   1.011   4.410   2.166
11009TIP3    H283496   0.939   4.409   2.298
11010TIP3   OH283497   0.471   4.087   1.874
11010TIP3    H183498   0.429   3.999   1.869
11010TIP3    H283499   0.536   4.080   1.804
11011TIP3   OH283500   0.818   4.302   2.461
11011TIP3    H183501   0.733   4.350   2.473
11011TIP3    H283502   0.872   4.332   2.537
11012TIP3   OH283503   1.592   4.840   2.511
11012TIP3    H183504   1.649   4.889   2.452
11012TIP3    H283505   1.506   4.845   2.464
11013TIP3   OH283506   1.030   4.944   2.758
11013TIP3    H183507   0.991   4.905   2.837
11013TIP3    H283508   1.004   5.038   2.764
11014TIP3   OH283509   1.334   4.390   1.615
11014TIP3    H183510   1.424   4.379   1.651
11014TIP3    H283511   1.339   4.473   1.564
11015TIP3   OH283512   0.373   4.829   2.188
11015TIP3    H183513   0.456   4.849   2.147
11015TIP3    H283514   0.393   4.767   2.260
11016TIP3   OH283515   1.087   5.067   1.547
11016TIP3    H183516   1.053   5.155   1.567
11016TIP3    H283517   1.012   5.008   1.549
11017TIP3   OH283518   0.089   4.695   2.739
11017TIP3    H183519   0.109   4.654   2.824
11017TIP3    H283520   0.023   4.637   2.696
11018TIP3   OH283521   0.787   4.657   2.957
11018TIP3    H183522   0.756   4.625   2.871
11018TIP3    H283523   0.880   4.625   2.957
11019TIP3   OH283524   1.819   4.411   1.593
11019TIP3    H183525   1.773   4.373   1.516
11019TIP3    H283526   1.833   4.502   1.560
11020TIP3   OH283527   1.818   4.986   2.869
11020TIP3    H183528   1.735   5.023   2.836
11020TIP3    H283529   1.877   4.994   2.791
11021TIP3   OH283530   1.371   4.768   2.344
11021TIP3    H183531   1.276   4.751   2.328
11021TIP3    H283532   1.414   4.694   2.295
11022TIP3   OH283533   0.203   4.691   1.411
11022TIP3    H183534   0.264   4.756   1.446
11022TIP3    H283535   0.113   4.720   1.434
11023TIP3   OH283536   0.809   5.390   2.545
11023TIP3    H183537   0.858   5.466   2.510
11023TIP3    H283538   0.872   5.352   2.608
11024TIP3   OH283539   1.175   4.997   2.510
11024TIP3    H183540   1.129   4.974   2.593
11024TIP3    H283541   1.224   4.919   2.484
11025TIP3   OH283542   0.250   4.175   2.694
11025TIP3    H183543   0.159   4.208   2.691
11025TIP3    H283544   0.240   4.088   2.736
11026TIP3   OH283545   1.128   4.148   2.583
11026TIP3    H183546   1.196   4.157   2.651
11026TIP3    H283547   1.085   4.064   2.605
11027TIP3   OH283548   1.203   4.116   1.689
11027TIP3    H183549   1.226   4.169   1.614
11027TIP3    H283550   1.256   4.154   1.760
11028TIP3   OH283551   0.919   4.284   1.780
11028TIP3    H183552   1.001   4.337   1.781
11028TIP3    H283553   0.898   4.276   1.873
11029TIP3   OH283554   0.977   4.388   2.698
11029TIP3    H183555   0.987   4.440   2.779
11029TIP3    H283556   1.041   4.316   2.706
11030TIP3   OH283557   0.575   4.097   1.546
11030TIP3    H183558   0.569   4.190   1.575
11030TIP3    H283559   0.665   4.076   1.567
11031TIP3   OH283560   1.457   4.552   2.186
11031TIP3    H183561   1.375   4.508   2.157
11031TIP3    H283562   1.505   4.482   2.236
11032TIP3   OH283563   0.347   3.836   2.212
11032TIP3    H183564   0.306   3.882   2.134
11032TIP3    H283565   0.269   3.794   2.249
11033TIP3   OH283566   0.126   5.546   2.980
11033TIP3    H183567   0.194   5.525   3.048
11033TIP3    H283568   0.087   5.460   2.957
11034TIP3   OH283569   0.597   5.438   3.138
11034TIP3    H183570   0.674   5.389   3.169
11034TIP3    H283571   0.590   5.410   3.045
11035TIP3   OH283572   1.247   5.278   3.009
11035TIP3    H183573   1.215   5.189   3.032
11035TIP3    H283574   1.323   5.289   3.068
11036TIP3   OH283575   0.141   4.921   3.058
11036TIP3    H183576   0.148   4.826   3.034
11036TIP3    H283577   0.068   4.951   3.002
11037TIP3   OH283578   0.789   4.922   3.014
11037TIP3    H183579   0.758   4.953   2.926
11037TIP3    H283580   0.802   4.825   3.002
11038TIP3   OH283581   0.204   4.644   3.013
11038TIP3    H183582   0.255   4.561   3.003
11038TIP3    H283583   0.190   4.647   3.108
11039TIP3   OH283584   0.680   4.756   1.514
11039TIP3    H183585   0.629   4.707   1.579
11039TIP3    H283586   0.705   4.688   1.449
11040TIP3   OH283587   0.602   4.542   2.750
11040TIP3    H183588   0.540   4.613   2.774
11040TIP3    H283589   0.641   4.577   2.667
11041TIP3   OH283590   0.780   4.580   1.337
11041TIP3    H183591   0.766   4.563   1.243
11041TIP3    H283592   0.877   4.592   1.347
11042TIP3   OH283593   1.107   4.797   3.088
11042TIP3    H183594   1.202   4.795   3.071
11042TIP3    H283595   1.091   4.719   3.142
11043TIP3   OH283596   0.646   4.279   2.854
11043TIP3    H183597   0.654   4.207   2.788
11043TIP3    H283598   0.638   4.359   2.798
11044TIP3   OH283599   0.686   4.120   2.611
11044TIP3    H183600   0.735   4.164   2.538
11044TIP3    H283601   0.596   4.109   2.570
11045TIP3   OH283602   0.835   4.665   2.631
11045TIP3    H183603   0.913   4.648   2.577
11045TIP3    H283604   0.810   4.753   2.603
11046TIP3   OH283605   1.276   4.441   3.128
11046TIP3    H183606   1.299   4.347   3.126
11046TIP3    H283607   1.363   4.483   3.134
11047TIP3   OH283608   1.410   4.723   2.943
11047TIP3    H183609   1.386   4.797   2.885
11047TIP3    H283610   1.507   4.717   2.928
11048TIP3   OH283611   0.487   4.404   3.049
11048TIP3    H183612   0.410   4.347   3.029
11048TIP3    H283613   0.552   4.368   2.985
11049TIP3   OH283614   0.757   3.860   2.652
11049TIP3    H183615   0.747   3.956   2.637
11049TIP3    H283616   0.685   3.826   2.596
11050TIP3   OH283617   0.889   4.294   3.010
11050TIP3    H183618   0.857   4.271   3.100
11050TIP3    H283619   0.810   4.274   2.956
11051TIP3   OH283620   1.159   4.207   2.915
11051TIP3    H183621   1.063   4.213   2.931
11051TIP3    H283622   1.188   4.145   2.984
11052TIP3   OH283623   1.312   4.069   3.108
11052TIP3    H183624   1.316   3.973   3.114
11052TIP3    H283625   1.292   4.098   3.201
11053TIP3   OH283626   0.307   4.195   3.020
11053TIP3    H183627   0.322   4.120   2.960
11053TIP3    H283628   0.290   4.151   3.106
11054TIP3   OH283629   0.782   3.799   2.918
11054TIP3    H183630   0.852   3.731   2.912
11054TIP3    H283631   0.771   3.816   2.822
11055TIP3   OH283632   0.820   3.960   3.126
11055TIP3    H183633   0.801   3.910   3.044
11055TIP3    H283634   0.761   4.037   3.117
11056TIP3   OH283635   8.140   5.658   1.893
11056TIP3    H183636   8.073   5.605   1.847
11056TIP3    H283637   8.171   5.590   1.956
11057TIP3   OH283638   0.088   5.459   2.073
11057TIP3    H183639   0.046   5.373   2.088
11057TIP3    H283640   0.104   5.496   2.160
11058TIP3   OH283641   1.842   5.564   2.363
11058TIP3    H183642   1.840   5.567   2.459
11058TIP3    H283643   1.921   5.612   2.340
11059TIP3   OH283644   1.636   5.073   3.130
11059TIP3    H183645   1.548   5.071   3.171
11059TIP3    H283646   1.675   5.151   3.175
11060TIP3   OH283647   1.808   4.711   1.862
11060TIP3    H183648   1.730   4.666   1.901
11060TIP3    H283649   1.862   4.731   1.939
11061TIP3   OH283650   1.835   4.700   1.500
11061TIP3    H183651   1.772   4.731   1.435
11061TIP3    H283652   1.829   4.762   1.574
11062TIP3   OH283653   1.588   4.559   1.920
11062TIP3    H183654   1.570   4.464   1.920
11062TIP3    H283655   1.553   4.587   2.007
11063TIP3   OH283656   0.083   4.764   2.322
11063TIP3    H183657   0.106   4.759   2.228
11063TIP3    H283658   0.171   4.755   2.362
11064TIP3   OH283659   1.671   4.759   2.885
11064TIP3    H183660   1.731   4.684   2.902
11064TIP3    H283661   1.733   4.835   2.891
11065TIP3   OH283662   1.821   4.548   2.955
11065TIP3    H183663   1.735   4.505   2.938
11065TIP3    H283664   1.881   4.471   2.948
11066TIP3   OH283665   1.555   4.322   1.768
11066TIP3    H183666   1.585   4.231   1.782
11066TIP3    H283667   1.634   4.361   1.728
11067TIP3   OH283668   1.616   4.372   2.311
11067TIP3    H183669   1.712   4.395   2.310
11067TIP3    H283670   1.599   4.384   2.406
11068TIP3   OH283671   1.622   4.446   2.590
11068TIP3    H183672   1.535   4.476   2.622
11068TIP3    H283673   1.668   4.530   2.566
11069TIP3   OH283674   0.068   4.292   2.978
11069TIP3    H183675   0.161   4.265   2.967
11069TIP3    H283676   0.013   4.212   2.975
11070TIP3   OH283677   1.857   3.854   3.124
11070TIP3    H183678   1.886   3.785   3.063
11070TIP3    H283679   1.859   3.934   3.070
11071TIP3   OH283680   0.193   4.229   2.369
11071TIP3    H183681   0.210   4.136   2.337
11071TIP3    H283682   0.235   4.250   2.284
11072TIP3   OH283683  -0.000   4.454   2.265
11072TIP3    H183684   0.070   4.395   2.240
11072TIP3    H283685   0.049   4.499   2.336
11073TIP3   OH283686   1.801   4.066   2.956
11073TIP3    H183687   1.706   4.084   2.960
11073TIP3    H283688   1.807   4.007   2.879
11074TIP3   OH283689   0.084   4.112   1.687
11074TIP3    H183690  -0.012   4.087   1.698
11074TIP3    H283691   0.099   4.151   1.603
11075TIP3   OH283692   8.164   3.977   2.633
11075TIP3    H183693   8.101   3.909   2.656
11075TIP3    H283694   8.137   4.008   2.545
11076TIP3   OH283695   0.246   5.241   2.990
11076TIP3    H183696   0.166   5.264   2.941
11076TIP3    H283697   0.218   5.237   3.081
11077TIP3   OH283698   0.974   5.483   2.906
11077TIP3    H183699   0.991   5.447   2.996
11077TIP3    H283700   1.064   5.512   2.879
11078TIP3   OH283701   1.206   5.609   2.833
11078TIP3    H183702   1.277   5.547   2.810
11078TIP3    H283703   1.243   5.652   2.913
11079TIP3   OH283704   0.311   3.880   1.983
11079TIP3    H183705   0.240   3.888   1.918
11079TIP3    H283706   0.343   3.789   1.964
11080TIP3   OH283707   0.170   3.846   1.494
11080TIP3    H183708   0.216   3.923   1.457
11080TIP3    H283709   0.109   3.890   1.555
11081TIP3   OH283710   0.146   5.451   1.631
11081TIP3    H183711   0.085   5.451   1.558
11081TIP3    H283712   0.154   5.544   1.651
11082TIP3   OH283713   0.353   4.044   1.394
11082TIP3    H183714   0.401   3.988   1.333
11082TIP3    H283715   0.423   4.079   1.450
11083TIP3   OH283716   0.266   3.933   2.907
11083TIP3    H183717   0.229   3.850   2.943
11083TIP3    H283718   0.359   3.927   2.940
11084TIP3   OH283719   0.472   3.869   3.066
11084TIP3    H183720   0.560   3.833   3.042
11084TIP3    H283721   0.431   3.790   3.107
11085TIP3   OH283722   2.199   4.676   2.446
11085TIP3    H183723   2.203   4.613   2.521
11085TIP3    H283724   2.261   4.745   2.471
11086TIP3   OH283725   3.331   5.013   2.120
11086TIP3    H183726   3.288   4.943   2.169
11086TIP3    H283727   3.334   5.085   2.187
11087TIP3   OH283728   1.951   4.486   1.844
11087TIP3    H183729   1.906   4.573   1.842
11087TIP3    H283730   1.894   4.432   1.788
11088TIP3   OH283731   2.030   4.712   2.067
11088TIP3    H183732   2.048   4.624   2.105
11088TIP3    H283733   2.093   4.716   1.993
11089TIP3   OH283734   3.040   5.526   2.145
11089TIP3    H183735   3.106   5.458   2.115
11089TIP3    H283736   3.025   5.495   2.234
11090TIP3   OH283737   3.662   4.121   2.414
11090TIP3    H183738   3.676   4.181   2.492
11090TIP3    H283739   3.713   4.166   2.347
11091TIP3   OH283740   2.090   4.454   2.168
11091TIP3    H183741   2.155   4.396   2.211
11091TIP3    H283742   2.099   4.421   2.077
11092TIP3   OH283743   3.703   4.263   2.639
11092TIP3    H183744   3.640   4.339   2.634
11092TIP3    H283745   3.712   4.252   2.735
11093TIP3   OH283746   2.315   4.100   2.499
11093TIP3    H183747   2.288   4.157   2.424
11093TIP3    H283748   2.248   4.126   2.567
11094TIP3   OH283749   3.387   4.148   2.127
11094TIP3    H183750   3.356   4.078   2.185
11094TIP3    H283751   3.442   4.202   2.186
11095TIP3   OH283752   2.275   4.283   2.297
11095TIP3    H183753   2.335   4.352   2.332
11095TIP3    H283754   2.326   4.246   2.224
11096TIP3   OH283755   2.013   5.031   1.684
11096TIP3    H183756   2.000   5.060   1.594
11096TIP3    H283757   2.031   5.114   1.731
11097TIP3   OH283758   3.384   5.195   2.359
11097TIP3    H183759   3.287   5.206   2.369
11097TIP3    H283760   3.410   5.287   2.339
11098TIP3   OH283761   3.418   4.022   2.503
11098TIP3    H183762   3.341   4.080   2.491
11098TIP3    H283763   3.485   4.065   2.447
11099TIP3   OH283764   2.711   3.834   2.243
11099TIP3    H183765   2.698   3.737   2.240
11099TIP3    H283766   2.624   3.866   2.276
11100TIP3   OH283767   3.209   5.374   2.020
11100TIP3    H183768   3.253   5.303   1.969
11100TIP3    H283769   3.252   5.452   1.979
11101TIP3   OH283770   3.328   5.165   1.871
11101TIP3    H183771   3.303   5.097   1.807
11101TIP3    H283772   3.334   5.116   1.954
11102TIP3   OH283773   3.486   5.022   2.719
11102TIP3    H183774   3.508   4.960   2.646
11102TIP3    H283775   3.511   5.109   2.679
11103TIP3   OH283776   3.680   4.658   2.523
11103TIP3    H183777   3.613   4.728   2.529
11103TIP3    H283778   3.726   4.679   2.440
11104TIP3   OH283779   3.285   4.739   1.793
11104TIP3    H183780   3.209   4.758   1.849
11104TIP3    H283781   3.330   4.666   1.839
11105TIP3   OH283782   3.276   4.554   2.698
11105TIP3    H183783   3.283   4.634   2.754
11105TIP3    H283784   3.213   4.580   2.630
11106TIP3   OH283785   3.121   5.232   2.414
11106TIP3    H183786   3.094   5.296   2.480
11106TIP3    H283787   3.094   5.147   2.456
11107TIP3   OH283788   2.574   5.124   2.807
11107TIP3    H183789   2.536   5.195   2.861
11107TIP3    H283790   2.502   5.096   2.749
11108TIP3   OH283791   3.170   4.651   1.559
11108TIP3    H183792   3.226   4.673   1.634
11108TIP3    H283793   3.211   4.700   1.487
11109TIP3   OH283794   2.943   5.328   1.904
11109TIP3    H183795   2.989   5.356   1.983
11109TIP3    H283796   2.886   5.401   1.880
11110TIP3   OH283797   2.396   5.328   2.888
11110TIP3    H183798   2.391   5.312   2.794
11110TIP3    H283799   2.304   5.309   2.916
11111TIP3   OH283800   3.546   3.829   1.530
11111TIP3    H183801   3.457   3.840   1.566
11111TIP3    H283802   3.567   3.919   1.501
11112TIP3   OH283803   2.345   4.703   1.736
11112TIP3    H183804   2.317   4.784   1.690
11112TIP3    H283805   2.275   4.639   1.719
11113TIP3   OH283806   3.656   5.267   1.379
11113TIP3    H183807   3.671   5.362   1.393
11113TIP3    H283808   3.748   5.235   1.374
11114TIP3   OH283809   1.950   4.947   2.630
11114TIP3    H183810   1.911   4.936   2.542
11114TIP3    H283811   1.962   4.852   2.653
11115TIP3   OH283812   3.751   5.290   2.875
11115TIP3    H183813   3.742   5.194   2.874
11115TIP3    H283814   3.666   5.315   2.918
11116TIP3   OH283815   2.252   5.507   1.930
11116TIP3    H183816   2.270   5.462   2.012
11116TIP3    H283817   2.169   5.465   1.900
11117TIP3   OH283818   3.200   5.542   1.442
11117TIP3    H183819   3.240   5.465   1.397
11117TIP3    H283820   3.201   5.510   1.534
11118TIP3   OH283821   3.168   5.530   1.719
11118TIP3    H183822   3.073   5.537   1.735
11118TIP3    H283823   3.194   5.456   1.776
11119TIP3   OH283824   3.463   4.438   2.927
11119TIP3    H183825   3.422   4.482   2.851
11119TIP3    H283826   3.466   4.347   2.893
11120TIP3   OH283827   2.182   5.078   2.722
11120TIP3    H183828   2.204   5.040   2.809
11120TIP3    H283829   2.096   5.037   2.703
11121TIP3   OH283830   2.446   3.923   2.322
11121TIP3    H183831   2.357   3.913   2.281
11121TIP3    H283832   2.437   4.009   2.367
11122TIP3   OH283833   2.913   3.891   2.654
11122TIP3    H183834   2.954   3.850   2.733
11122TIP3    H283835   2.816   3.880   2.669
11123TIP3   OH283836   3.246   4.278   2.749
11123TIP3    H183837   3.183   4.256   2.822
11123TIP3    H283838   3.221   4.366   2.719
11124TIP3   OH283839   2.882   4.143   1.393
11124TIP3    H183840   2.849   4.148   1.483
11124TIP3    H283841   2.852   4.058   1.360
11125TIP3   OH283842   2.447   4.419   2.444
11125TIP3    H183843   2.378   4.419   2.513
11125TIP3    H283844   2.448   4.508   2.409
11126TIP3   OH283845   2.916   4.510   2.962
11126TIP3    H183846   2.859   4.430   2.976
11126TIP3    H283847   2.999   4.482   2.999
11127TIP3   OH283848   2.225   4.451   2.613
11127TIP3    H183849   2.224   4.487   2.703
11127TIP3    H283850   2.178   4.367   2.630
11128TIP3   OH283851   1.889   4.167   2.006
11128TIP3    H183852   1.951   4.154   2.080
11128TIP3    H283853   1.932   4.117   1.935
11129TIP3   OH283854   2.018   4.237   1.551
11129TIP3    H183855   2.061   4.291   1.485
11129TIP3    H283856   1.946   4.296   1.580
11130TIP3   OH283857   2.191   4.346   1.915
11130TIP3    H183858   2.102   4.360   1.879
11130TIP3    H283859   2.219   4.261   1.880
11131TIP3   OH283860   3.151   4.109   2.354
11131TIP3    H183861   3.086   4.120   2.427
11131TIP3    H283862   3.098   4.091   2.276
11132TIP3   OH283863   3.471   5.679   2.993
11132TIP3    H183864   3.499   5.714   2.905
11132TIP3    H283865   3.545   5.709   3.048
11133TIP3   OH283866   2.241   4.927   2.945
11133TIP3    H183867   2.312   4.947   3.007
11133TIP3    H283868   2.162   4.935   3.001
11134TIP3   OH283869   2.341   4.081   1.859
11134TIP3    H183870   2.307   3.989   1.864
11134TIP3    H283871   2.421   4.068   1.809
11135TIP3   OH283872   3.477   4.837   2.509
11135TIP3    H183873   3.536   4.888   2.450
11135TIP3    H283874   3.393   4.849   2.464
11136TIP3   OH283875   3.148   4.203   1.450
11136TIP3    H183876   3.054   4.214   1.434
11136TIP3    H283877   3.176   4.290   1.480
11137TIP3   OH283878   1.972   4.699   2.738
11137TIP3    H183879   1.989   4.656   2.824
11137TIP3    H283880   1.910   4.639   2.693
11138TIP3   OH283881   3.137   5.181   2.752
11138TIP3    H183882   3.048   5.207   2.727
11138TIP3    H283883   3.140   5.222   2.842
11139TIP3   OH283884   3.706   4.992   2.871
11139TIP3    H183885   3.619   5.017   2.833
11139TIP3    H283886   3.763   4.990   2.791
11140TIP3   OH283887   3.540   5.292   1.631
11140TIP3    H183888   3.499   5.210   1.663
11140TIP3    H283889   3.568   5.270   1.540
11141TIP3   OH283890   2.507   5.209   1.950
11141TIP3    H183891   2.563   5.283   1.927
11141TIP3    H283892   2.420   5.230   1.917
11142TIP3   OH283893   2.086   4.693   1.402
11142TIP3    H183894   2.147   4.755   1.443
11142TIP3    H283895   1.998   4.718   1.436
11143TIP3   OH283896   3.056   4.995   2.508
11143TIP3    H183897   3.014   4.972   2.591
11143TIP3    H283898   3.113   4.921   2.487
11144TIP3   OH283899   3.278   5.093   1.418
11144TIP3    H183900   3.311   5.046   1.497
11144TIP3    H283901   3.182   5.084   1.428
11145TIP3   OH283902   3.328   5.449   2.755
11145TIP3    H183903   3.261   5.399   2.705
11145TIP3    H283904   3.350   5.520   2.690
11146TIP3   OH283905   3.731   5.536   1.437
11146TIP3    H183906   3.802   5.598   1.416
11146TIP3    H283907   3.658   5.594   1.468
11147TIP3   OH283908   2.136   4.174   2.695
11147TIP3    H183909   2.046   4.210   2.690
11147TIP3    H283910   2.125   4.089   2.740
11148TIP3   OH283911   3.363   4.965   1.643
11148TIP3    H183912   3.337   4.882   1.689
11148TIP3    H283913   3.459   4.963   1.654
11149TIP3   OH283914   2.565   5.164   1.505
11149TIP3    H183915   2.592   5.109   1.581
11149TIP3    H283916   2.582   5.252   1.538
11150TIP3   OH283917   3.013   4.146   2.583
11150TIP3    H183918   3.079   4.159   2.652
11150TIP3    H283919   2.972   4.061   2.608
11151TIP3   OH283920   2.461   4.100   1.545
11151TIP3    H183921   2.451   4.191   1.576
11151TIP3    H283922   2.551   4.075   1.568
11152TIP3   OH283923   3.483   4.172   2.782
11152TIP3    H183924   3.389   4.203   2.771
11152TIP3    H283925   3.512   4.172   2.689
11153TIP3   OH283926   2.281   5.151   1.440
11153TIP3    H183927   2.349   5.207   1.478
11153TIP3    H283928   2.331   5.092   1.381
11154TIP3   OH283929   3.447   5.478   2.351
11154TIP3    H183930   3.438   5.547   2.282
11154TIP3    H283931   3.541   5.482   2.372
11155TIP3   OH283932   2.198   3.888   2.232
11155TIP3    H183933   2.179   3.893   2.135
11155TIP3    H283934   2.154   3.804   2.256
11156TIP3   OH283935   2.096   5.285   1.847
11156TIP3    H183936   2.009   5.328   1.839
11156TIP3    H283937   2.143   5.330   1.775
11157TIP3   OH283938   2.015   5.543   2.974
11157TIP3    H183939   2.075   5.528   3.051
11157TIP3    H283940   1.974   5.458   2.962
11158TIP3   OH283941   2.480   5.434   3.140
11158TIP3    H183942   2.561   5.391   3.168
11158TIP3    H283943   2.478   5.413   3.045
11159TIP3   OH283944   3.137   5.271   3.005
11159TIP3    H183945   3.098   5.190   3.040
11159TIP3    H283946   3.209   5.292   3.068
11160TIP3   OH283947   3.350   5.366   1.298
11160TIP3    H183948   3.378   5.284   1.342
11160TIP3    H283949   3.426   5.389   1.243
11161TIP3   OH283950   2.003   4.922   3.074
11161TIP3    H183951   2.023   4.833   3.041
11161TIP3    H283952   1.932   4.951   3.014
11162TIP3   OH283953   3.244   4.910   2.755
11162TIP3    H183954   3.325   4.966   2.744
11162TIP3    H283955   3.178   4.981   2.755
11163TIP3   OH283956   2.098   4.647   3.014
11163TIP3    H183957   2.136   4.559   3.004
11163TIP3    H283958   2.073   4.648   3.109
11164TIP3   OH283959   2.475   4.534   2.751
11164TIP3    H183960   2.435   4.614   2.786
11164TIP3    H283961   2.524   4.571   2.678
11165TIP3   OH283962   2.964   4.801   3.092
11165TIP3    H183963   3.052   4.828   3.069
11165TIP3    H283964   2.961   4.717   3.142
11166TIP3   OH283965   3.602   4.815   1.286
11166TIP3    H183966   3.583   4.773   1.201
11166TIP3    H283967   3.610   4.908   1.261
11167TIP3   OH283968   2.525   4.279   2.853
11167TIP3    H183969   2.541   4.208   2.788
11167TIP3    H283970   2.525   4.361   2.799
11168TIP3   OH283971   2.570   4.119   2.605
11168TIP3    H183972   2.620   4.164   2.536
11168TIP3    H283973   2.479   4.110   2.567
11169TIP3   OH283974   3.163   4.447   3.127
11169TIP3    H183975   3.180   4.351   3.124
11169TIP3    H283976   3.254   4.479   3.133
11170TIP3   OH283977   3.306   4.715   2.927
11170TIP3    H183978   3.280   4.792   2.870
11170TIP3    H283979   3.405   4.718   2.918
11171TIP3   OH283980   2.373   4.400   3.052
11171TIP3    H183981   2.295   4.345   3.029
11171TIP3    H283982   2.437   4.368   2.986
11172TIP3   OH283983   2.646   3.861   2.649
11172TIP3    H183984   2.631   3.957   2.637
11172TIP3    H283985   2.571   3.825   2.599
11173TIP3   OH283986   2.774   4.292   3.011
11173TIP3    H183987   2.742   4.274   3.101
11173TIP3    H283988   2.696   4.276   2.956
11174TIP3   OH283989   3.047   4.214   2.923
11174TIP3    H183990   2.950   4.212   2.927
11174TIP3    H283991   3.073   4.146   2.987
11175TIP3   OH283992   3.204   4.071   3.112
11175TIP3    H183993   3.199   3.974   3.113
11175TIP3    H283994   3.177   4.099   3.202
11176TIP3   OH283995   2.181   4.197   3.019
11176TIP3    H183996   2.208   4.123   2.962
11176TIP3    H283997   2.174   4.154   3.107
11177TIP3   OH283998   2.668   3.798   2.918
11177TIP3    H183999   2.738   3.732   2.916
11177TIP3    H284000   2.658   3.817   2.823
11178TIP3   OH284001   2.702   3.960   3.128
11178TIP3    H184002   2.687   3.911   3.044
11178TIP3    H284003   2.645   4.038   3.118
11179TIP3   OH284004   1.883   5.648   1.893
11179TIP3    H184005   1.816   5.601   1.842
11179TIP3    H284006   1.914   5.583   1.959
11180TIP3   OH284007   1.966   5.460   2.076
11180TIP3    H184008   1.933   5.372   2.095
11180TIP3    H284009   1.990   5.495   2.163
11181TIP3   OH284010   3.672   5.499   2.672
11181TIP3    H184011   3.631   5.422   2.628
11181TIP3    H284012   3.731   5.455   2.735
11182TIP3   OH284013   3.520   5.072   3.132
11182TIP3    H184014   3.433   5.072   3.173
11182TIP3    H284015   3.561   5.151   3.175
11183TIP3   OH284016   3.652   4.904   1.678
11183TIP3    H184017   3.738   4.947   1.696
11183TIP3    H284018   3.651   4.834   1.743
11184TIP3   OH284019   3.665   4.984   2.361
11184TIP3    H184020   3.749   4.949   2.327
11184TIP3    H284021   3.680   5.080   2.346
11185TIP3   OH284022   3.519   5.272   2.592
11185TIP3    H184023   3.451   5.309   2.650
11185TIP3    H284024   3.466   5.236   2.519
11186TIP3   OH284025   3.721   4.697   1.505
11186TIP3    H184026   3.668   4.731   1.430
11186TIP3    H284027   3.713   4.769   1.568
11187TIP3   OH284028   3.469   4.563   1.921
11187TIP3    H184029   3.454   4.467   1.915
11187TIP3    H284030   3.437   4.583   2.008
11188TIP3   OH284031   1.972   4.770   2.327
11188TIP3    H184032   1.989   4.761   2.230
11188TIP3    H284033   2.061   4.752   2.362
11189TIP3   OH284034   3.557   4.758   2.896
11189TIP3    H184035   3.620   4.682   2.902
11189TIP3    H284036   3.618   4.835   2.890
11190TIP3   OH284037   3.708   4.547   2.955
11190TIP3    H184038   3.621   4.505   2.939
11190TIP3    H284039   3.767   4.470   2.946
11191TIP3   OH284040   3.479   4.162   1.268
11191TIP3    H184041   3.541   4.126   1.333
11191TIP3    H284042   3.393   4.125   1.292
11192TIP3   OH284043   3.445   4.323   1.770
11192TIP3    H184044   3.468   4.228   1.776
11192TIP3    H284045   3.519   4.362   1.724
11193TIP3   OH284046   3.501   4.374   2.309
11193TIP3    H184047   3.596   4.397   2.309
11193TIP3    H284048   3.481   4.388   2.402
11194TIP3   OH284049   3.509   4.445   2.591
11194TIP3    H184050   3.420   4.473   2.620
11194TIP3    H284051   3.552   4.531   2.569
11195TIP3   OH284052   1.935   4.301   2.942
11195TIP3    H184053   2.029   4.279   2.961
11195TIP3    H284054   1.890   4.219   2.972
11196TIP3   OH284055   3.736   3.850   3.124
11196TIP3    H184056   3.771   3.784   3.063
11196TIP3    H284057   3.747   3.932   3.072
11197TIP3   OH284058   3.506   4.047   1.773
11197TIP3    H184059   3.522   4.001   1.857
11197TIP3    H284060   3.444   3.989   1.728
11198TIP3   OH284061   2.056   4.128   2.226
11198TIP3    H184062   2.102   4.047   2.253
11198TIP3    H284063   2.106   4.198   2.268
11199TIP3   OH284064   1.880   4.430   2.331
11199TIP3    H184065   1.938   4.403   2.257
11199TIP3    H284066   1.927   4.508   2.360
11200TIP3   OH284067   3.686   4.059   2.961
11200TIP3    H184068   3.593   4.089   2.955
11200TIP3    H284069   3.694   4.010   2.878
11201TIP3   OH284070   3.693   4.051   1.432
11201TIP3    H184071   3.729   3.983   1.375
11201TIP3    H284072   3.757   4.123   1.426
11202TIP3   OH284073   1.917   4.052   1.731
11202TIP3    H184074   1.825   4.076   1.722
11202TIP3    H284075   1.963   4.107   1.665
11203TIP3   OH284076   3.394   5.551   1.933
11203TIP3    H184077   3.464   5.519   1.872
11203TIP3    H284078   3.445   5.600   2.000
11204TIP3   OH284079   2.136   5.245   2.987
11204TIP3    H184080   2.053   5.260   2.942
11204TIP3    H284081   2.110   5.237   3.080
11205TIP3   OH284082   3.089   5.613   2.829
11205TIP3    H184083   3.160   5.549   2.812
11205TIP3    H284084   3.122   5.652   2.913
11206TIP3   OH284085   3.587   3.869   2.744
11206TIP3    H184086   3.507   3.904   2.700
11206TIP3    H284087   3.608   3.790   2.689
11207TIP3   OH284088   3.119   5.496   2.533
11207TIP3    H184089   3.031   5.523   2.507
11207TIP3    H284090   3.168   5.580   2.532
11208TIP3   OH284091   3.374   5.651   2.560
11208TIP3    H184092   3.370   5.748   2.539
11208TIP3    H284093   3.398   5.616   2.472
11209TIP3   OH284094   2.112   5.525   2.302
11209TIP3    H184095   2.111   5.486   2.390
11209TIP3    H284096   2.198   5.497   2.269
11210TIP3   OH284097   2.925   4.019   2.169
11210TIP3    H184098   2.861   3.954   2.200
11210TIP3    H284099   2.983   3.965   2.115
11211TIP3   OH284100   3.614   3.939   2.012
11211TIP3    H184101   3.678   3.884   1.965
11211TIP3    H284102   3.657   4.025   2.021
11212TIP3   OH284103   2.165   3.874   1.959
11212TIP3    H184104   2.085   3.855   1.905
11212TIP3    H284105   2.214   3.791   1.951
11213TIP3   OH284106   2.047   3.853   1.533
11213TIP3    H184107   2.092   3.917   1.475
11213TIP3    H284108   1.987   3.909   1.585
11214TIP3   OH284109   2.615   3.873   1.935
11214TIP3    H184110   2.705   3.905   1.934
11214TIP3    H284111   2.608   3.847   2.027
11215TIP3   OH284112   2.034   5.449   1.632
11215TIP3    H184113   1.971   5.445   1.558
11215TIP3    H284114   2.039   5.544   1.648
11216TIP3   OH284115   2.231   4.042   1.385
11216TIP3    H184116   2.281   3.985   1.329
11216TIP3    H284117   2.297   4.079   1.446
11217TIP3   OH284118   3.595   5.530   1.738
11217TIP3    H184119   3.574   5.452   1.682
11217TIP3    H284120   3.587   5.603   1.674
11218TIP3   OH284121   2.158   3.931   2.904
11218TIP3    H184122   2.117   3.852   2.944
11218TIP3    H284123   2.248   3.926   2.942
11219TIP3   OH284124   2.357   3.868   3.066
11219TIP3    H184125   2.445   3.833   3.043
11219TIP3    H284126   2.318   3.789   3.108
11220TIP3   OH284127   3.197   3.800   3.080
11220TIP3    H184128   3.205   3.750   3.163
11220TIP3    H284129   3.289   3.795   3.048
11221TIP3   OH284130   3.514   5.401   2.951
11221TIP3    H184131   3.437   5.389   2.891
11221TIP3    H284132   3.505   5.497   2.967
11222TIP3   OH284133   4.958   4.792   1.950
11222TIP3    H184134   4.963   4.887   1.933
11222TIP3    H284135   4.892   4.765   1.883
11223TIP3   OH284136   4.174   5.120   2.308
11223TIP3    H184137   4.143   5.040   2.264
11223TIP3    H284138   4.271   5.112   2.308
11224TIP3   OH284139   4.958   5.529   2.142
11224TIP3    H184140   4.994   5.446   2.111
11224TIP3    H284141   4.913   5.502   2.224
11225TIP3   OH284142   5.542   4.124   2.416
11225TIP3    H184143   5.563   4.183   2.492
11225TIP3    H284144   5.599   4.162   2.347
11226TIP3   OH284145   5.008   4.399   2.373
11226TIP3    H184146   5.012   4.304   2.364
11226TIP3    H284147   4.991   4.422   2.279
11227TIP3   OH284148   5.589   4.263   2.641
11227TIP3    H184149   5.526   4.338   2.629
11227TIP3    H284150   5.591   4.254   2.737
11228TIP3   OH284151   5.262   4.155   2.134
11228TIP3    H184152   5.248   4.074   2.183
11228TIP3    H284153   5.333   4.201   2.182
11229TIP3   OH284154   3.902   5.029   1.685
11229TIP3    H184155   3.882   5.060   1.595
11229TIP3    H284156   3.916   5.114   1.732
11230TIP3   OH284157   5.301   4.023   2.504
11230TIP3    H184158   5.229   4.085   2.493
11230TIP3    H284159   5.370   4.062   2.446
11231TIP3   OH284160   4.831   4.719   1.699
11231TIP3    H184161   4.760   4.775   1.661
11231TIP3    H284162   4.899   4.726   1.630
11232TIP3   OH284163   5.561   4.658   2.523
11232TIP3    H184164   5.500   4.730   2.528
11232TIP3    H284165   5.614   4.679   2.443
11233TIP3   OH284166   5.172   4.737   1.789
11233TIP3    H184167   5.097   4.760   1.848
11233TIP3    H284168   5.216   4.664   1.835
11234TIP3   OH284169   5.169   4.558   2.693
11234TIP3    H184170   5.166   4.630   2.757
11234TIP3    H284171   5.099   4.579   2.630
11235TIP3   OH284172   4.459   5.117   2.807
11235TIP3    H184173   4.427   5.191   2.861
11235TIP3    H284174   4.388   5.103   2.744
11236TIP3   OH284175   5.429   3.833   1.546
11236TIP3    H184176   5.336   3.841   1.564
11236TIP3    H284177   5.451   3.916   1.498
11237TIP3   OH284178   3.838   4.945   2.628
11237TIP3    H184179   3.791   4.940   2.544
11237TIP3    H284180   3.848   4.850   2.651
11238TIP3   OH284181   3.816   5.215   2.312
11238TIP3    H184182   3.912   5.212   2.304
11238TIP3    H284183   3.808   5.300   2.358
11239TIP3   OH284184   5.640   5.292   2.876
11239TIP3    H184185   5.628   5.196   2.875
11239TIP3    H284186   5.553   5.316   2.916
11240TIP3   OH284187   4.710   5.254   2.756
11240TIP3    H184188   4.736   5.326   2.815
11240TIP3    H284189   4.636   5.208   2.797
11241TIP3   OH284190   4.782   5.620   1.744
11241TIP3    H184191   4.771   5.611   1.649
11241TIP3    H284192   4.780   5.716   1.759
11242TIP3   OH284193   5.354   4.440   2.923
11242TIP3    H184194   5.306   4.483   2.852
11242TIP3    H284195   5.353   4.347   2.895
11243TIP3   OH284196   4.069   5.080   2.725
11243TIP3    H184197   4.091   5.038   2.810
11243TIP3    H284198   3.984   5.039   2.702
11244TIP3   OH284199   4.893   4.483   1.811
11244TIP3    H184200   4.850   4.564   1.776
11244TIP3    H284201   4.962   4.469   1.745
11245TIP3   OH284202   4.802   4.505   2.957
11245TIP3    H184203   4.748   4.427   2.982
11245TIP3    H284204   4.884   4.489   3.003
11246TIP3   OH284205   4.996   4.429   2.090
11246TIP3    H184206   4.968   4.488   2.017
11246TIP3    H284207   5.007   4.347   2.041
11247TIP3   OH284208   4.596   4.184   2.026
11247TIP3    H184209   4.505   4.194   2.056
11247TIP3    H284210   4.645   4.187   2.109
11248TIP3   OH284211   5.359   5.679   2.994
11248TIP3    H184212   5.385   5.715   2.906
11248TIP3    H284213   5.433   5.709   3.049
11249TIP3   OH284214   4.127   4.929   2.943
11249TIP3    H184215   4.196   4.946   3.008
11249TIP3    H284216   4.047   4.934   3.000
11250TIP3   OH284217   4.724   4.461   2.221
11250TIP3    H184218   4.784   4.410   2.166
11250TIP3    H284219   4.715   4.412   2.301
11251TIP3   OH284220   4.648   4.916   1.633
11251TIP3    H184221   4.566   4.877   1.601
11251TIP3    H284222   4.628   4.931   1.728
11252TIP3   OH284223   4.145   4.853   2.202
11252TIP3    H184224   4.223   4.856   2.145
11252TIP3    H284225   4.161   4.773   2.253
11253TIP3   OH284226   3.855   4.701   2.740
11253TIP3    H184227   3.880   4.656   2.823
11253TIP3    H284228   3.797   4.637   2.697
11254TIP3   OH284229   5.596   4.410   1.586
11254TIP3    H184230   5.538   4.372   1.519
11254TIP3    H284231   5.602   4.504   1.560
11255TIP3   OH284232   5.591   4.992   2.870
11255TIP3    H184233   5.504   5.020   2.838
11255TIP3    H284234   5.647   4.991   2.790
11256TIP3   OH284235   4.396   5.205   1.952
11256TIP3    H184236   4.448   5.282   1.930
11256TIP3    H284237   4.308   5.227   1.918
11257TIP3   OH284238   4.538   4.969   1.901
11257TIP3    H184239   4.510   5.062   1.913
11257TIP3    H284240   4.466   4.924   1.947
11258TIP3   OH284241   5.229   5.461   2.753
11258TIP3    H184242   5.163   5.403   2.709
11258TIP3    H284243   5.241   5.527   2.683
11259TIP3   OH284244   5.617   5.540   1.439
11259TIP3    H184245   5.687   5.601   1.418
11259TIP3    H284246   5.543   5.596   1.470
11260TIP3   OH284247   3.977   5.349   2.540
11260TIP3    H184248   4.014   5.260   2.536
11260TIP3    H284249   4.010   5.383   2.623
11261TIP3   OH284250   4.106   4.883   1.553
11261TIP3    H184251   4.042   4.920   1.616
11261TIP3    H284252   4.165   4.957   1.534
11262TIP3   OH284253   4.345   4.098   1.545
11262TIP3    H184254   4.341   4.189   1.573
11262TIP3    H284255   4.438   4.074   1.559
11263TIP3   OH284256   5.368   4.174   2.782
11263TIP3    H184257   5.277   4.204   2.772
11263TIP3    H284258   5.399   4.172   2.690
11264TIP3   OH284259   5.229   4.552   2.186
11264TIP3    H184260   5.144   4.511   2.159
11264TIP3    H284261   5.273   4.480   2.236
11265TIP3   OH284262   3.977   5.281   1.843
11265TIP3    H184263   3.893   5.329   1.844
11265TIP3    H284264   4.026   5.333   1.778
11266TIP3   OH284265   3.901   5.547   2.977
11266TIP3    H184266   3.961   5.526   3.051
11266TIP3    H284267   3.860   5.461   2.957
11267TIP3   OH284268   4.366   5.436   3.139
11267TIP3    H184269   4.447   5.391   3.169
11267TIP3    H284270   4.367   5.414   3.046
11268TIP3   OH284271   3.890   4.921   3.074
11268TIP3    H184272   3.913   4.834   3.037
11268TIP3    H284273   3.819   4.951   3.015
11269TIP3   OH284274   4.555   4.920   3.018
11269TIP3    H184275   4.532   4.952   2.928
11269TIP3    H284276   4.583   4.829   3.002
11270TIP3   OH284277   3.981   4.644   3.013
11270TIP3    H184278   4.023   4.558   3.001
11270TIP3    H284279   3.958   4.646   3.108
11271TIP3   OH284280   4.880   4.795   3.087
11271TIP3    H184281   4.975   4.796   3.073
11271TIP3    H284282   4.863   4.717   3.142
11272TIP3   OH284283   5.046   4.442   3.132
11272TIP3    H184284   5.069   4.348   3.126
11272TIP3    H284285   5.133   4.484   3.132
11273TIP3   OH284286   5.182   4.719   2.941
11273TIP3    H184287   5.155   4.797   2.890
11273TIP3    H284288   5.279   4.719   2.928
11274TIP3   OH284289   4.660   4.294   3.015
11274TIP3    H184290   4.630   4.268   3.103
11274TIP3    H284291   4.585   4.272   2.958
11275TIP3   OH284292   5.099   4.069   3.120
11275TIP3    H184293   5.083   3.974   3.115
11275TIP3    H284294   5.060   4.099   3.204
11276TIP3   OH284295   4.070   4.197   3.019
11276TIP3    H184296   4.091   4.123   2.960
11276TIP3    H284297   4.061   4.154   3.106
11277TIP3   OH284298   4.553   3.799   2.920
11277TIP3    H184299   4.623   3.730   2.918
11277TIP3    H284300   4.537   3.816   2.828
11278TIP3   OH284301   4.589   3.960   3.126
11278TIP3    H184302   4.574   3.912   3.041
11278TIP3    H284303   4.532   4.038   3.117
11279TIP3   OH284304   3.895   5.111   1.392
11279TIP3    H184305   3.989   5.120   1.414
11279TIP3    H284306   3.899   5.046   1.321
11280TIP3   OH284307   5.558   5.501   2.671
11280TIP3    H184308   5.521   5.425   2.625
11280TIP3    H284309   5.615   5.456   2.735
11281TIP3   OH284310   5.407   5.074   3.128
11281TIP3    H184311   5.319   5.071   3.170
11281TIP3    H284312   5.445   5.151   3.175
11282TIP3   OH284313   5.597   4.692   1.511
11282TIP3    H184314   5.549   4.730   1.436
11282TIP3    H284315   5.601   4.765   1.573
11283TIP3   OH284316   5.359   4.563   1.918
11283TIP3    H184317   5.341   4.467   1.914
11283TIP3    H284318   5.325   4.584   2.006
11284TIP3   OH284319   3.861   4.765   2.325
11284TIP3    H184320   3.878   4.761   2.229
11284TIP3    H284321   3.949   4.757   2.362
11285TIP3   OH284322   5.443   4.761   2.882
11285TIP3    H184323   5.502   4.685   2.903
11285TIP3    H284324   5.504   4.837   2.891
11286TIP3   OH284325   5.592   4.548   2.952
11286TIP3    H184326   5.506   4.504   2.941
11286TIP3    H284327   5.652   4.471   2.948
11287TIP3   OH284328   5.331   4.322   1.774
11287TIP3    H184329   5.354   4.228   1.776
11287TIP3    H284330   5.404   4.360   1.726
11288TIP3   OH284331   5.387   4.373   2.312
11288TIP3    H184332   5.483   4.396   2.309
11288TIP3    H284333   5.369   4.388   2.405
11289TIP3   OH284334   5.393   4.445   2.589
11289TIP3    H184335   5.306   4.478   2.622
11289TIP3    H284336   5.440   4.528   2.566
11290TIP3   OH284337   3.818   4.302   2.949
11290TIP3    H184338   3.913   4.280   2.960
11290TIP3    H284339   3.775   4.216   2.970
11291TIP3   OH284340   5.618   3.849   3.119
11291TIP3    H184341   5.665   3.786   3.065
11291TIP3    H284342   5.633   3.935   3.074
11292TIP3   OH284343   5.390   4.046   1.773
11292TIP3    H184344   5.413   4.003   1.856
11292TIP3    H284345   5.334   3.984   1.724
11293TIP3   OH284346   3.767   4.431   2.324
11293TIP3    H184347   3.824   4.404   2.251
11293TIP3    H284348   3.809   4.510   2.360
11294TIP3   OH284349   5.572   4.058   2.960
11294TIP3    H184350   5.479   4.090   2.956
11294TIP3    H284351   5.580   4.011   2.876
11295TIP3   OH284352   5.579   4.051   1.434
11295TIP3    H184353   5.615   3.984   1.374
11295TIP3    H284354   5.644   4.121   1.428
11296TIP3   OH284355   3.797   3.918   2.566
11296TIP3    H184356   3.734   3.905   2.638
11296TIP3    H284357   3.753   3.988   2.513
11297TIP3   OH284358   4.023   5.238   2.987
11297TIP3    H184359   3.941   5.262   2.941
11297TIP3    H284360   3.994   5.234   3.079
11298TIP3   OH284361   4.979   5.609   2.829
11298TIP3    H184362   5.051   5.548   2.811
11298TIP3    H284363   5.011   5.651   2.912
11299TIP3   OH284364   5.472   3.863   2.746
11299TIP3    H184365   5.396   3.905   2.701
11299TIP3    H284366   5.494   3.794   2.680
11300TIP3   OH284367   4.061   5.670   2.623
11300TIP3    H184368   3.989   5.711   2.572
11300TIP3    H284369   4.020   5.642   2.704
11301TIP3   OH284370   5.262   5.651   2.562
11301TIP3    H184371   5.253   5.747   2.541
11301TIP3    H284372   5.284   5.619   2.474
11302TIP3   OH284373   4.041   3.864   1.973
11302TIP3    H184374   3.974   3.851   1.906
11302TIP3    H284375   4.101   3.790   1.955
11303TIP3   OH284376   3.929   3.853   1.530
11303TIP3    H184377   3.977   3.918   1.477
11303TIP3    H284378   3.871   3.908   1.584
11304TIP3   OH284379   4.504   3.864   1.937
11304TIP3    H184380   4.588   3.912   1.933
11304TIP3    H284381   4.490   3.852   2.030
11305TIP3   OH284382   3.923   5.449   1.627
11305TIP3    H184383   3.854   5.447   1.558
11305TIP3    H284384   3.922   5.541   1.653
11306TIP3   OH284385   4.617   4.081   1.623
11306TIP3    H184386   4.638   4.015   1.691
11306TIP3    H284387   4.617   4.165   1.669
11307TIP3   OH284388   4.041   3.931   2.907
11307TIP3    H184389   4.003   3.850   2.946
11307TIP3    H284390   4.132   3.927   2.942
11308TIP3   OH284391   4.244   3.869   3.068
11308TIP3    H184392   4.331   3.832   3.043
11308TIP3    H284393   4.203   3.790   3.110
11309TIP3   OH284394   5.402   5.403   2.952
11309TIP3    H184395   5.326   5.389   2.892
11309TIP3    H284396   5.391   5.499   2.968
11310TIP3   OH284397   5.968   4.682   2.449
11310TIP3    H184398   5.977   4.614   2.519
11310TIP3    H284399   6.042   4.741   2.471
11311TIP3   OH284400   6.062   5.129   2.295
11311TIP3    H184401   6.027   5.042   2.267
11311TIP3    H284402   6.157   5.107   2.306
11312TIP3   OH284403   5.726   4.493   1.838
11312TIP3    H184404   5.676   4.574   1.847
11312TIP3    H284405   5.666   4.432   1.793
11313TIP3   OH284406   5.799   4.706   2.064
11313TIP3    H184407   5.822   4.623   2.110
11313TIP3    H284408   5.868   4.715   1.997
11314TIP3   OH284409   6.810   5.524   2.145
11314TIP3    H184410   6.876   5.457   2.116
11314TIP3    H284411   6.794   5.495   2.234
11315TIP3   OH284412   6.569   4.956   2.337
11315TIP3    H184413   6.603   4.896   2.270
11315TIP3    H284414   6.647   4.972   2.394
11316TIP3   OH284415   6.200   4.211   2.093
11316TIP3    H184416   6.206   4.296   2.047
11316TIP3    H284417   6.156   4.154   2.026
11317TIP3   OH284418   6.974   4.219   1.926
11317TIP3    H184419   7.036   4.191   1.997
11317TIP3    H284420   7.028   4.276   1.870
11318TIP3   OH284421   5.862   4.452   2.168
11318TIP3    H184422   5.929   4.396   2.213
11318TIP3    H284423   5.870   4.421   2.076
11319TIP3   OH284424   6.378   4.608   2.094
11319TIP3    H184425   6.440   4.551   2.139
11319TIP3    H284426   6.322   4.542   2.048
11320TIP3   OH284427   6.089   4.102   2.497
11320TIP3    H184428   6.061   4.159   2.423
11320TIP3    H284429   6.022   4.125   2.565
11321TIP3   OH284430   6.343   4.864   2.523
11321TIP3    H184431   6.271   4.928   2.543
11321TIP3    H284432   6.412   4.926   2.495
11322TIP3   OH284433   7.156   4.147   2.129
11322TIP3    H184434   7.129   4.076   2.186
11322TIP3    H284435   7.215   4.201   2.183
11323TIP3   OH284436   6.042   4.290   2.297
11323TIP3    H184437   6.107   4.355   2.333
11323TIP3    H284438   6.098   4.246   2.228
11324TIP3   OH284439   6.184   5.065   2.604
11324TIP3    H184440   6.180   5.157   2.570
11324TIP3    H284441   6.094   5.059   2.647
11325TIP3   OH284442   7.187   4.024   2.496
11325TIP3    H184443   7.112   4.085   2.494
11325TIP3    H284444   7.253   4.070   2.443
11326TIP3   OH284445   6.982   5.371   2.022
11326TIP3    H184446   7.023   5.304   1.966
11326TIP3    H284447   7.016   5.451   1.977
11327TIP3   OH284448   7.104   5.163   1.870
11327TIP3    H184449   7.073   5.095   1.809
11327TIP3    H284450   7.106   5.118   1.955
11328TIP3   OH284451   7.048   4.555   2.700
11328TIP3    H184452   7.050   4.635   2.753
11328TIP3    H284453   6.985   4.580   2.631
11329TIP3   OH284454   6.215   4.801   1.978
11329TIP3    H184455   6.186   4.763   1.892
11329TIP3    H284456   6.277   4.734   2.012
11330TIP3   OH284457   6.351   5.139   2.249
11330TIP3    H184458   6.347   5.089   2.167
11330TIP3    H284459   6.430   5.103   2.292
11331TIP3   OH284460   6.253   4.676   2.344
11331TIP3    H184461   6.310   4.687   2.266
11331TIP3    H284462   6.289   4.742   2.407
11332TIP3   OH284463   6.886   5.233   2.413
11332TIP3    H184464   6.864   5.297   2.481
11332TIP3    H284465   6.868   5.148   2.459
11333TIP3   OH284466   6.346   5.119   2.814
11333TIP3    H184467   6.306   5.193   2.863
11333TIP3    H284468   6.279   5.099   2.745
11334TIP3   OH284469   6.039   4.736   2.731
11334TIP3    H184470   6.045   4.802   2.803
11334TIP3    H284471   5.945   4.746   2.709
11335TIP3   OH284472   6.710   5.326   1.903
11335TIP3    H184473   6.761   5.359   1.978
11335TIP3    H284474   6.661   5.403   1.875
11336TIP3   OH284475   6.171   5.323   2.889
11336TIP3    H184476   6.165   5.312   2.793
11336TIP3    H284477   6.078   5.309   2.916
11337TIP3   OH284478   6.119   4.701   1.739
11337TIP3    H184479   6.092   4.781   1.688
11337TIP3    H284480   6.050   4.638   1.718
11338TIP3   OH284481   5.721   4.946   2.632
11338TIP3    H184482   5.684   4.940   2.542
11338TIP3    H284483   5.732   4.851   2.651
11339TIP3   OH284484   7.525   5.288   2.882
11339TIP3    H184485   7.512   5.194   2.871
11339TIP3    H284486   7.437   5.316   2.916
11340TIP3   OH284487   6.620   5.243   2.764
11340TIP3    H184488   6.626   5.328   2.813
11340TIP3    H284489   6.532   5.210   2.788
11341TIP3   OH284490   6.656   5.620   1.744
11341TIP3    H184491   6.659   5.609   1.648
11341TIP3    H284492   6.666   5.716   1.758
11342TIP3   OH284493   6.025   5.504   1.923
11342TIP3    H184494   6.043   5.465   2.012
11342TIP3    H284495   5.941   5.465   1.898
11343TIP3   OH284496   7.225   4.432   2.935
11343TIP3    H184497   7.197   4.480   2.856
11343TIP3    H284498   7.240   4.344   2.896
11344TIP3   OH284499   5.949   5.081   2.723
11344TIP3    H184500   5.972   5.042   2.810
11344TIP3    H284501   5.864   5.038   2.701
11345TIP3   OH284502   6.221   3.925   2.324
11345TIP3    H184503   6.132   3.912   2.283
11345TIP3    H284504   6.206   4.010   2.369
11346TIP3   OH284505   7.018   4.277   2.746
11346TIP3    H184506   6.957   4.253   2.821
11346TIP3    H284507   6.990   4.366   2.721
11347TIP3   OH284508   6.224   4.421   2.440
11347TIP3    H184509   6.157   4.421   2.509
11347TIP3    H284510   6.226   4.514   2.408
11348TIP3   OH284511   6.225   4.435   1.931
11348TIP3    H184512   6.131   4.413   1.917
11348TIP3    H284513   6.264   4.405   1.846
11349TIP3   OH284514   6.683   4.510   2.958
11349TIP3    H184515   6.633   4.427   2.980
11349TIP3    H284516   6.769   4.491   2.998
11350TIP3   OH284517   5.992   4.449   2.613
11350TIP3    H184518   6.000   4.489   2.701
11350TIP3    H284519   5.948   4.364   2.633
11351TIP3   OH284520   5.658   4.168   2.008
11351TIP3    H184521   5.722   4.157   2.080
11351TIP3    H284522   5.699   4.119   1.935
11352TIP3   OH284523   5.786   4.234   1.548
11352TIP3    H184524   5.835   4.292   1.489
11352TIP3    H284525   5.716   4.295   1.579
11353TIP3   OH284526   6.478   4.187   2.033
11353TIP3    H184527   6.386   4.189   2.063
11353TIP3    H284528   6.529   4.176   2.114
11354TIP3   OH284529   5.962   4.347   1.915
11354TIP3    H184530   5.872   4.361   1.879
11354TIP3    H284531   5.989   4.262   1.877
11355TIP3   OH284532   6.327   4.348   1.680
11355TIP3    H184533   6.421   4.363   1.698
11355TIP3    H284534   6.303   4.416   1.614
11356TIP3   OH284535   6.198   4.463   1.441
11356TIP3    H184536   6.141   4.434   1.368
11356TIP3    H284537   6.279   4.488   1.394
11357TIP3   OH284538   6.011   4.924   2.945
11357TIP3    H184539   6.082   4.949   3.007
11357TIP3    H284540   5.933   4.933   3.003
11358TIP3   OH284541   6.118   4.079   1.868
11358TIP3    H184542   6.077   3.990   1.864
11358TIP3    H284543   6.193   4.073   1.807
11359TIP3   OH284544   6.682   4.945   2.754
11359TIP3    H184545   6.650   4.905   2.836
11359TIP3    H284546   6.660   5.038   2.766
11360TIP3   OH284547   6.045   4.860   2.213
11360TIP3    H184548   6.112   4.851   2.143
11360TIP3    H284549   6.050   4.773   2.257
11361TIP3   OH284550   5.744   4.700   2.738
11361TIP3    H184551   5.762   4.655   2.823
11361TIP3    H284552   5.682   4.639   2.695
11362TIP3   OH284553   6.444   4.656   2.956
11362TIP3    H184554   6.414   4.626   2.869
11362TIP3    H284555   6.537   4.622   2.955
11363TIP3   OH284556   6.913   5.195   2.746
11363TIP3    H184557   6.819   5.206   2.726
11363TIP3    H284558   6.911   5.214   2.842
11364TIP3   OH284559   7.312   5.292   1.634
11364TIP3    H184560   7.272   5.212   1.666
11364TIP3    H284561   7.336   5.271   1.543
11365TIP3   OH284562   6.278   5.206   1.956
11365TIP3    H184563   6.332   5.282   1.929
11365TIP3    H284564   6.193   5.230   1.919
11366TIP3   OH284565   5.856   4.686   1.414
11366TIP3    H184566   5.919   4.754   1.443
11366TIP3    H284567   5.770   4.719   1.438
11367TIP3   OH284568   6.469   5.391   2.543
11367TIP3    H184569   6.514   5.472   2.514
11367TIP3    H284570   6.531   5.356   2.609
11368TIP3   OH284571   6.288   5.471   1.856
11368TIP3    H184572   6.193   5.488   1.869
11368TIP3    H284573   6.328   5.553   1.890
11369TIP3   OH284574   6.823   4.998   2.516
11369TIP3    H184575   6.784   4.972   2.601
11369TIP3    H284576   6.882   4.925   2.494
11370TIP3   OH284577   7.096   5.450   2.758
11370TIP3    H184578   7.033   5.393   2.709
11370TIP3    H284579   7.121   5.512   2.688
11371TIP3   OH284580   5.908   4.173   2.695
11371TIP3    H184581   5.817   4.209   2.691
11371TIP3    H284582   5.895   4.087   2.737
11372TIP3   OH284583   5.870   5.354   2.535
11372TIP3    H184584   5.897   5.261   2.535
11372TIP3    H284585   5.894   5.381   2.624
11373TIP3   OH284586   6.342   5.160   1.505
11373TIP3    H184587   6.371   5.105   1.579
11373TIP3    H284588   6.355   5.251   1.539
11374TIP3   OH284589   5.994   4.883   1.558
11374TIP3    H184590   5.928   4.925   1.612
11374TIP3    H284591   6.049   4.958   1.529
11375TIP3   OH284592   6.622   5.324   1.579
11375TIP3    H184593   6.543   5.378   1.586
11375TIP3    H284594   6.678   5.375   1.520
11376TIP3   OH284595   6.355   5.429   1.581
11376TIP3    H184596   6.378   5.511   1.533
11376TIP3    H284597   6.339   5.463   1.671
11377TIP3   OH284598   6.228   4.100   1.544
11377TIP3    H184599   6.224   4.192   1.576
11377TIP3    H284600   6.319   4.077   1.564
11378TIP3   OH284601   7.254   4.172   2.779
11378TIP3    H184602   7.161   4.201   2.771
11378TIP3    H284603   7.284   4.176   2.688
11379TIP3   OH284604   6.060   5.144   1.443
11379TIP3    H184605   6.124   5.208   1.476
11379TIP3    H284606   6.110   5.099   1.374
11380TIP3   OH284607   5.970   3.889   2.231
11380TIP3    H184608   5.948   3.892   2.135
11380TIP3    H284609   5.923   3.807   2.258
11381TIP3   OH284610   5.786   5.546   2.977
11381TIP3    H184611   5.845   5.526   3.051
11381TIP3    H284612   5.744   5.461   2.958
11382TIP3   OH284613   6.252   5.438   3.136
11382TIP3    H184614   6.329   5.390   3.168
11382TIP3    H284615   6.250   5.411   3.042
11383TIP3   OH284616   6.902   5.278   3.010
11383TIP3    H184617   6.874   5.188   3.035
11383TIP3    H284618   6.981   5.289   3.067
11384TIP3   OH284619   7.124   5.369   1.293
11384TIP3    H184620   7.148   5.289   1.343
11384TIP3    H284621   7.202   5.386   1.241
11385TIP3   OH284622   5.775   4.923   3.074
11385TIP3    H184623   5.794   4.832   3.042
11385TIP3    H284624   5.702   4.950   3.015
11386TIP3   OH284625   6.447   4.923   3.014
11386TIP3    H184626   6.415   4.954   2.927
11386TIP3    H284627   6.458   4.826   3.002
11387TIP3   OH284628   5.866   4.646   3.013
11387TIP3    H184629   5.909   4.561   3.004
11387TIP3    H284630   5.845   4.648   3.108
11388TIP3   OH284631   6.330   4.760   1.516
11388TIP3    H184632   6.285   4.707   1.582
11388TIP3    H284633   6.358   4.692   1.451
11389TIP3   OH284634   6.258   4.542   2.750
11389TIP3    H184635   6.198   4.615   2.774
11389TIP3    H284636   6.297   4.577   2.668
11390TIP3   OH284637   6.441   4.575   1.340
11390TIP3    H184638   6.425   4.567   1.246
11390TIP3    H284639   6.536   4.594   1.346
11391TIP3   OH284640   6.766   4.794   3.081
11391TIP3    H184641   6.862   4.798   3.073
11391TIP3    H284642   6.749   4.719   3.139
11392TIP3   OH284643   6.301   4.280   2.853
11392TIP3    H184644   6.306   4.208   2.790
11392TIP3    H284645   6.294   4.361   2.798
11393TIP3   OH284646   6.495   4.662   2.633
11393TIP3    H184647   6.571   4.649   2.575
11393TIP3    H284648   6.458   4.746   2.602
11394TIP3   OH284649   6.934   4.441   3.132
11394TIP3    H184650   6.955   4.347   3.123
11394TIP3    H284651   7.022   4.481   3.133
11395TIP3   OH284652   6.147   4.402   3.049
11395TIP3    H184653   6.067   4.348   3.029
11395TIP3    H284654   6.210   4.366   2.983
11396TIP3   OH284655   6.545   4.293   3.011
11396TIP3    H184656   6.514   4.270   3.101
11396TIP3    H284657   6.466   4.275   2.957
11397TIP3   OH284658   6.819   4.212   2.916
11397TIP3    H184659   6.722   4.215   2.926
11397TIP3    H284660   6.842   4.145   2.982
11398TIP3   OH284661   6.978   4.070   3.112
11398TIP3    H184662   6.968   3.973   3.112
11398TIP3    H284663   6.948   4.098   3.201
11399TIP3   OH284664   5.953   4.197   3.020
11399TIP3    H184665   5.977   4.123   2.962
11399TIP3    H284666   5.946   4.154   3.107
11400TIP3   OH284667   6.434   3.797   2.917
11400TIP3    H184668   6.508   3.733   2.916
11400TIP3    H284669   6.432   3.816   2.823
11401TIP3   OH284670   6.472   3.958   3.128
11401TIP3    H184671   6.461   3.912   3.042
11401TIP3    H284672   6.416   4.038   3.117
11402TIP3   OH284673   6.427   5.647   1.436
11402TIP3    H184674   6.521   5.663   1.456
11402TIP3    H284675   6.405   5.722   1.379
11403TIP3   OH284676   5.792   5.128   1.390
11403TIP3    H184677   5.885   5.125   1.417
11403TIP3    H284678   5.787   5.059   1.324
11404TIP3   OH284679   5.654   5.650   1.891
11404TIP3    H184680   5.587   5.602   1.841
11404TIP3    H284681   5.683   5.584   1.956
11405TIP3   OH284682   5.740   5.461   2.075
11405TIP3    H184683   5.703   5.375   2.095
11405TIP3    H284684   5.762   5.496   2.164
11406TIP3   OH284685   7.296   5.071   3.132
11406TIP3    H184686   7.206   5.070   3.168
11406TIP3    H284687   7.332   5.151   3.176
11407TIP3   OH284688   7.249   4.559   1.922
11407TIP3    H184689   7.226   4.465   1.915
11407TIP3    H284690   7.207   4.582   2.005
11408TIP3   OH284691   5.742   4.769   2.328
11408TIP3    H184692   5.759   4.764   2.230
11408TIP3    H284693   5.832   4.755   2.361
11409TIP3   OH284694   7.250   4.161   1.267
11409TIP3    H184695   7.312   4.126   1.331
11409TIP3    H284696   7.167   4.121   1.293
11410TIP3   OH284697   7.214   4.318   1.774
11410TIP3    H184698   7.241   4.224   1.776
11410TIP3    H284699   7.287   4.359   1.726
11411TIP3   OH284700   7.288   4.359   2.322
11411TIP3    H184701   7.374   4.400   2.314
11411TIP3    H284702   7.257   4.392   2.408
11412TIP3   OH284703   7.281   4.446   2.587
11412TIP3    H184704   7.192   4.471   2.621
11412TIP3    H284705   7.320   4.532   2.567
11413TIP3   OH284706   5.706   4.299   2.943
11413TIP3    H184707   5.800   4.278   2.961
11413TIP3    H284708   5.662   4.218   2.973
11414TIP3   OH284709   7.506   3.850   3.124
11414TIP3    H184710   7.543   3.785   3.062
11414TIP3    H284711   7.519   3.933   3.073
11415TIP3   OH284712   7.281   4.043   1.769
11415TIP3    H184713   7.292   4.002   1.857
11415TIP3    H284714   7.212   3.987   1.726
11416TIP3   OH284715   5.824   4.127   2.228
11416TIP3    H184716   5.873   4.046   2.252
11416TIP3    H284717   5.879   4.197   2.266
11417TIP3   OH284718   5.655   4.430   2.333
11417TIP3    H184719   5.710   4.407   2.255
11417TIP3    H284720   5.699   4.512   2.358
11418TIP3   OH284721   7.458   4.059   2.960
11418TIP3    H184722   7.365   4.091   2.955
11418TIP3    H284723   7.464   4.008   2.879
11419TIP3   OH284724   5.691   4.057   1.733
11419TIP3    H184725   5.596   4.073   1.723
11419TIP3    H284726   5.734   4.107   1.662
11420TIP3   OH284727   7.167   5.548   1.933
11420TIP3    H184728   7.231   5.516   1.869
11420TIP3    H284729   7.219   5.595   1.998
11421TIP3   OH284730   5.683   3.920   2.568
11421TIP3    H184731   5.616   3.904   2.636
11421TIP3    H284732   5.640   3.988   2.513
11422TIP3   OH284733   5.909   5.242   2.986
11422TIP3    H184734   5.826   5.264   2.941
11422TIP3    H284735   5.882   5.235   3.078
11423TIP3   OH284736   6.199   5.339   2.613
11423TIP3    H184737   6.165   5.426   2.585
11423TIP3    H284738   6.291   5.349   2.581
11424TIP3   OH284739   6.631   5.483   2.904
11424TIP3    H184740   6.646   5.448   2.995
11424TIP3    H284741   6.721   5.512   2.878
11425TIP3   OH284742   6.862   5.610   2.833
11425TIP3    H184743   6.933   5.548   2.810
11425TIP3    H284744   6.898   5.652   2.914
11426TIP3   OH284745   7.361   3.870   2.743
11426TIP3    H184746   7.278   3.900   2.703
11426TIP3    H284747   7.379   3.788   2.692
11427TIP3   OH284748   5.943   5.666   2.613
11427TIP3    H184749   5.868   5.712   2.572
11427TIP3    H284750   5.908   5.644   2.700
11428TIP3   OH284751   6.190   5.621   2.521
11428TIP3    H184752   6.100   5.635   2.559
11428TIP3    H284753   6.183   5.678   2.443
11429TIP3   OH284754   6.656   5.612   2.439
11429TIP3    H184755   6.616   5.670   2.372
11429TIP3    H284756   6.674   5.678   2.510
11430TIP3   OH284757   6.891   5.498   2.539
11430TIP3    H184758   6.803   5.519   2.504
11430TIP3    H284759   6.931   5.584   2.523
11431TIP3   OH284760   5.885   5.529   2.305
11431TIP3    H184761   5.878   5.486   2.393
11431TIP3    H284762   5.967   5.491   2.268
11432TIP3   OH284763   6.092   5.401   2.171
11432TIP3    H184764   6.077   5.307   2.194
11432TIP3    H284765   6.179   5.415   2.216
11433TIP3   OH284766   6.351   5.448   2.258
11433TIP3    H184767   6.370   5.355   2.232
11433TIP3    H284768   6.360   5.443   2.354
11434TIP3   OH284769   7.211   3.821   2.182
11434TIP3    H184770   7.275   3.876   2.130
11434TIP3    H284771   7.126   3.856   2.155
11435TIP3   OH284772   7.381   3.941   2.011
11435TIP3    H184773   7.449   3.885   1.965
11435TIP3    H284774   7.429   4.026   2.020
11436TIP3   OH284775   5.935   3.877   1.958
11436TIP3    H184776   5.856   3.856   1.904
11436TIP3    H284777   5.984   3.792   1.953
11437TIP3   OH284778   5.817   3.853   1.532
11437TIP3    H184779   5.863   3.918   1.475
11437TIP3    H284780   5.758   3.909   1.585
11438TIP3   OH284781   5.998   4.040   1.385
11438TIP3    H184782   6.052   3.988   1.325
11438TIP3    H284783   6.067   4.080   1.441
11439TIP3   OH284784   6.694   5.576   1.462
11439TIP3    H184785   6.784   5.609   1.447
11439TIP3    H284786   6.675   5.529   1.381
11440TIP3   OH284787   5.927   3.931   2.903
11440TIP3    H184788   5.892   3.851   2.945
11440TIP3    H284789   6.018   3.929   2.940
11441TIP3   OH284790   6.129   3.869   3.064
11441TIP3    H184791   6.218   3.834   3.042
11441TIP3    H284792   6.090   3.791   3.107
11442TIP3   OH284793   5.989   5.548   1.327
11442TIP3    H184794   5.959   5.572   1.416
11442TIP3    H284795   6.064   5.490   1.344
11443TIP3   OH284796   6.968   3.797   3.088
11443TIP3    H184797   6.980   3.748   3.170
11443TIP3    H284798   7.057   3.793   3.047
11444TIP3   OH284799   7.282   5.403   2.958
11444TIP3    H184800   7.210   5.388   2.892
11444TIP3    H284801   7.279   5.498   2.967
11445TIP3   OH284802   7.944   5.126   2.304
11445TIP3    H184803   7.914   5.040   2.268
11445TIP3    H284804   8.040   5.108   2.308
11446TIP3   OH284805   7.611   4.487   1.853
11446TIP3    H184806   7.570   4.574   1.844
11446TIP3    H284807   7.556   4.434   1.794
11447TIP3   OH284808   7.684   4.710   2.057
11447TIP3    H184809   7.705   4.630   2.107
11447TIP3    H284810   7.758   4.719   1.997
11448TIP3   OH284811   8.049   5.073   2.590
11448TIP3    H184812   8.057   5.168   2.576
11448TIP3    H284813   7.971   5.070   2.649
11449TIP3   OH284814   7.680   5.030   1.680
11449TIP3    H184815   7.648   5.060   1.593
11449TIP3    H284816   7.683   5.112   1.734
11450TIP3   OH284817   8.083   4.809   1.973
11450TIP3    H184818   8.064   4.763   1.892
11450TIP3    H284819   8.152   4.750   2.015
11451TIP3   OH284820   7.923   4.739   2.732
11451TIP3    H184821   7.929   4.805   2.803
11451TIP3    H284822   7.831   4.747   2.706
11452TIP3   OH284823   8.056   5.320   2.891
11452TIP3    H184824   8.052   5.309   2.794
11452TIP3    H284825   7.962   5.309   2.915
11453TIP3   OH284826   7.621   4.944   2.632
11453TIP3    H184827   7.574   4.943   2.547
11453TIP3    H284828   7.618   4.850   2.655
11454TIP3   OH284829   7.907   5.509   1.923
11454TIP3    H184830   7.928   5.465   2.009
11454TIP3    H284831   7.827   5.459   1.901
11455TIP3   OH284832   7.831   5.086   2.733
11455TIP3    H184833   7.858   5.037   2.812
11455TIP3    H284834   7.753   5.037   2.700
11456TIP3   OH284835   8.110   4.447   2.512
11456TIP3    H184836   8.020   4.420   2.507
11456TIP3    H284837   8.104   4.495   2.429
11457TIP3   OH284838   7.542   4.152   2.012
11457TIP3    H184839   7.613   4.160   2.075
11457TIP3    H284840   7.587   4.124   1.930
11458TIP3   OH284841   7.900   4.919   2.946
11458TIP3    H184842   7.968   4.951   3.006
11458TIP3    H284843   7.820   4.938   3.000
11459TIP3   OH284844   7.925   4.854   2.210
11459TIP3    H184845   8.000   4.853   2.147
11459TIP3    H284846   7.941   4.772   2.258
11460TIP3   OH284847   7.637   4.695   2.736
11460TIP3    H184848   7.655   4.656   2.824
11460TIP3    H284849   7.569   4.636   2.700
11461TIP3   OH284850   7.747   4.700   1.400
11461TIP3    H184851   7.810   4.754   1.451
11461TIP3    H284852   7.662   4.720   1.440
11462TIP3   OH284853   7.883   4.884   1.553
11462TIP3    H184854   7.815   4.920   1.613
11462TIP3    H284855   7.934   4.963   1.533
11463TIP3   OH284856   7.945   5.140   1.448
11463TIP3    H184857   8.002   5.213   1.474
11463TIP3    H284858   7.991   5.100   1.374
11464TIP3   OH284859   7.748   5.285   1.845
11464TIP3    H184860   7.662   5.328   1.839
11464TIP3    H284861   7.800   5.329   1.777
11465TIP3   OH284862   7.670   5.544   2.977
11465TIP3    H184863   7.732   5.523   3.050
11465TIP3    H284864   7.629   5.458   2.955
11466TIP3   OH284865   7.663   4.925   3.072
11466TIP3    H184866   7.680   4.834   3.042
11466TIP3    H284867   7.589   4.952   3.017
11467TIP3   OH284868   7.746   4.647   3.010
11467TIP3    H184869   7.791   4.561   3.001
11467TIP3    H284870   7.727   4.647   3.107
11468TIP3   OH284871   7.670   5.108   1.397
11468TIP3    H184872   7.764   5.123   1.417
11468TIP3    H284873   7.673   5.048   1.322
11469TIP3   OH284874   7.636   5.455   2.069
11469TIP3    H184875   7.591   5.373   2.090
11469TIP3    H284876   7.649   5.494   2.156
11470TIP3   OH284877   7.580   4.057   1.740
11470TIP3    H184878   7.484   4.073   1.728
11470TIP3    H284879   7.619   4.104   1.666
11471TIP3   OH284880   7.569   3.911   2.568
11471TIP3    H184881   7.504   3.898   2.640
11471TIP3    H284882   7.528   3.982   2.517
11472TIP3   OH284883   7.790   5.246   2.985
11472TIP3    H184884   7.707   5.264   2.938
11472TIP3    H284885   7.762   5.235   3.077
11473TIP3   OH284886   8.084   5.340   2.610
11473TIP3    H184887   8.045   5.426   2.585
11473TIP3    H284888   8.176   5.351   2.587
11474TIP3   OH284889   7.829   5.667   2.616
11474TIP3    H184890   7.754   5.705   2.569
11474TIP3    H284891   7.794   5.640   2.702
11475TIP3   OH284892   8.070   5.613   2.510
11475TIP3    H184893   7.987   5.635   2.559
11475TIP3    H284894   8.070   5.686   2.443
11476TIP3   OH284895   7.977   5.401   2.171
11476TIP3    H184896   7.956   5.308   2.196
11476TIP3    H284897   8.058   5.413   2.220
11477TIP3   OH284898   7.693   3.855   1.535
11477TIP3    H184899   7.741   3.918   1.479
11477TIP3    H284900   7.638   3.913   1.590
11478TIP3   OH284901   7.692   5.451   1.628
11478TIP3    H184902   7.624   5.449   1.560
11478TIP3    H284903   7.691   5.544   1.650
11479TIP3   OH284904   7.810   3.925   2.898
11479TIP3    H184905   7.777   3.850   2.949
11479TIP3    H284906   7.899   3.936   2.937
11480TIP3   OH284907   8.016   3.864   3.060
11480TIP3    H184908   8.105   3.832   3.039
11480TIP3    H284909   7.975   3.789   3.107
11481TIP3   OH284910   7.873   5.538   1.325
11481TIP3    H184911   7.848   5.575   1.410
11481TIP3    H284912   7.954   5.493   1.342
11482TIP3   OH284913   1.190   6.677   1.945
11482TIP3    H184914   1.189   6.775   1.936
11482TIP3    H284915   1.119   6.650   1.885
11483TIP3   OH284916   1.448   6.897   2.123
11483TIP3    H184917   1.403   6.825   2.169
11483TIP3    H284918   1.446   6.968   2.189
11484TIP3   OH284919   0.098   6.404   1.789
11484TIP3    H184920   0.041   6.465   1.838
11484TIP3    H284921   0.036   6.335   1.772
11485TIP3   OH284922   1.156   7.411   2.144
11485TIP3    H184923   1.221   7.343   2.116
11485TIP3    H284924   1.135   7.380   2.232
11486TIP3   OH284925   0.920   6.853   2.331
11486TIP3    H184926   0.948   6.783   2.272
11486TIP3    H284927   0.995   6.862   2.394
11487TIP3   OH284928   1.778   6.004   2.416
11487TIP3    H184929   1.789   6.068   2.489
11487TIP3    H284930   1.828   6.048   2.346
11488TIP3   OH284931   0.545   6.097   2.093
11488TIP3    H184932   0.548   6.182   2.048
11488TIP3    H284933   0.500   6.042   2.025
11489TIP3   OH284934   1.315   6.104   1.931
11489TIP3    H184935   1.380   6.074   1.998
11489TIP3    H284936   1.368   6.161   1.873
11490TIP3   OH284937   1.821   6.149   2.641
11490TIP3    H184938   1.758   6.222   2.630
11490TIP3    H284939   1.820   6.137   2.736
11491TIP3   OH284940   1.157   6.935   1.856
11491TIP3    H184941   1.133   6.907   1.766
11491TIP3    H284942   1.132   7.030   1.856
11492TIP3   OH284943   1.494   6.043   2.131
11492TIP3    H184944   1.476   5.962   2.180
11492TIP3    H284945   1.562   6.084   2.186
11493TIP3   OH284946   0.386   6.172   2.301
11493TIP3    H184947   0.444   6.242   2.334
11493TIP3    H284948   0.438   6.133   2.228
11494TIP3   OH284949   1.497   7.082   2.360
11494TIP3    H184950   1.399   7.089   2.371
11494TIP3    H284951   1.522   7.172   2.337
11495TIP3   OH284952   1.535   5.910   2.505
11495TIP3    H184953   1.457   5.965   2.488
11495TIP3    H284954   1.599   5.948   2.443
11496TIP3   OH284955   0.828   5.721   2.237
11496TIP3    H184956   0.816   5.625   2.240
11496TIP3    H284957   0.744   5.753   2.274
11497TIP3   OH284958   1.323   7.257   2.018
11497TIP3    H184959   1.367   7.188   1.966
11497TIP3    H284960   1.365   7.338   1.980
11498TIP3   OH284961   1.442   7.051   1.868
11498TIP3    H184962   1.412   6.981   1.808
11498TIP3    H284963   1.448   7.002   1.953
11499TIP3   OH284964   1.605   6.910   2.719
11499TIP3    H184965   1.622   6.845   2.647
11499TIP3    H284966   1.626   6.995   2.676
11500TIP3   OH284967   1.059   6.607   1.700
11500TIP3    H184968   0.988   6.657   1.657
11500TIP3    H284969   1.125   6.606   1.628
11501TIP3   OH284970   1.795   6.541   2.524
11501TIP3    H184971   1.728   6.612   2.528
11501TIP3    H284972   1.843   6.566   2.443
11502TIP3   OH284973   1.401   6.620   1.788
11502TIP3    H184974   1.326   6.644   1.849
11502TIP3    H284975   1.447   6.552   1.841
11503TIP3   OH284976   1.392   6.438   2.697
11503TIP3    H184977   1.394   6.519   2.752
11503TIP3    H284978   1.329   6.466   2.629
11504TIP3   OH284979   0.695   7.028   2.242
11504TIP3    H184980   0.690   6.971   2.165
11504TIP3    H284981   0.770   6.992   2.293
11505TIP3   OH284982   1.235   7.115   2.415
11505TIP3    H184983   1.207   7.180   2.480
11505TIP3    H284984   1.208   7.031   2.458
11506TIP3   OH284985   0.688   7.006   2.812
11506TIP3    H184986   0.648   7.079   2.862
11506TIP3    H284987   0.618   6.987   2.748
11507TIP3   OH284988   1.288   6.541   1.554
11507TIP3    H184989   1.342   6.559   1.635
11507TIP3    H284990   1.327   6.594   1.484
11508TIP3   OH284991   0.377   6.624   2.732
11508TIP3    H184992   0.387   6.691   2.802
11508TIP3    H284993   0.286   6.634   2.706
11509TIP3   OH284994   1.061   7.214   1.900
11509TIP3    H184995   1.103   7.245   1.982
11509TIP3    H284996   1.002   7.286   1.877
11510TIP3   OH284997   0.511   7.209   2.890
11510TIP3    H184998   0.506   7.198   2.793
11510TIP3    H284999   0.418   7.196   2.915
11511TIP3   OH285000   0.106   6.811   2.615
11511TIP3    H185001   0.031   6.830   2.555
11511TIP3    H285002   0.074   6.728   2.654
11512TIP3   OH285003   0.048   7.109   2.305
11512TIP3    H185004   0.142   7.090   2.309
11512TIP3    H285005   0.034   7.183   2.365
11513TIP3   OH285006   1.863   7.170   2.874
11513TIP3    H185007   1.856   7.075   2.878
11513TIP3    H285008   1.783   7.200   2.920
11514TIP3   OH285009   0.964   7.131   2.764
11514TIP3    H185010   0.970   7.215   2.813
11514TIP3    H285011   0.877   7.096   2.789
11515TIP3   OH285012   1.006   7.504   1.743
11515TIP3    H185013   0.997   7.497   1.647
11515TIP3    H285014   1.010   7.600   1.759
11516TIP3   OH285015   0.372   7.387   1.923
11516TIP3    H185016   0.384   7.348   2.012
11516TIP3    H285017   0.285   7.351   1.898
11517TIP3   OH285018   1.304   7.420   1.440
11517TIP3    H185019   1.357   7.348   1.399
11517TIP3    H285020   1.316   7.401   1.535
11518TIP3   OH285021   1.279   7.413   1.717
11518TIP3    H185022   1.185   7.428   1.741
11518TIP3    H285023   1.308   7.345   1.779
11519TIP3   OH285024   1.582   6.323   2.924
11519TIP3    H185025   1.535   6.369   2.852
11519TIP3    H285026   1.579   6.231   2.893
11520TIP3   OH285027   0.287   6.976   2.728
11520TIP3    H185028   0.315   6.927   2.807
11520TIP3    H285029   0.211   6.921   2.698
11521TIP3   OH285030   1.022   5.787   2.662
11521TIP3    H185031   1.069   5.736   2.730
11521TIP3    H285032   0.931   5.761   2.672
11522TIP3   OH285033   1.358   6.162   2.745
11522TIP3    H185034   1.299   6.142   2.822
11522TIP3    H285035   1.339   6.254   2.721
11523TIP3   OH285036   0.985   6.036   1.389
11523TIP3    H185037   0.964   6.029   1.484
11523TIP3    H285038   0.967   5.945   1.364
11524TIP3   OH285039   1.122   6.369   1.809
11524TIP3    H185040   1.081   6.451   1.776
11524TIP3    H285041   1.191   6.352   1.742
11525TIP3   OH285042   1.028   6.391   2.953
11525TIP3    H185043   0.975   6.314   2.982
11525TIP3    H285044   1.112   6.377   3.000
11526TIP3   OH285045   1.231   6.320   2.088
11526TIP3    H185046   1.195   6.374   2.017
11526TIP3    H285047   1.235   6.233   2.044
11527TIP3   OH285048   0.332   6.337   2.612
11527TIP3    H185049   0.336   6.383   2.697
11527TIP3    H285050   0.290   6.253   2.632
11528TIP3   OH285051   0.078   6.058   1.959
11528TIP3    H185052   0.074   6.037   2.056
11528TIP3    H285053   0.075   5.970   1.917
11529TIP3   OH285054   0.148   6.139   1.564
11529TIP3    H185055   0.185   6.184   1.487
11529TIP3    H285056   0.068   6.190   1.575
11530TIP3   OH285057   0.826   6.072   2.030
11530TIP3    H185058   0.733   6.078   2.061
11530TIP3    H285059   0.875   6.067   2.113
11531TIP3   OH285060   0.312   6.233   1.914
11531TIP3    H185061   0.221   6.247   1.881
11531TIP3    H285062   0.334   6.144   1.882
11532TIP3   OH285063   1.269   5.988   2.357
11532TIP3    H185064   1.200   6.006   2.425
11532TIP3    H285065   1.215   5.978   2.277
11533TIP3   OH285066   1.589   7.561   2.989
11533TIP3    H185067   1.612   7.602   2.905
11533TIP3    H285068   1.658   7.596   3.048
11534TIP3   OH285069   0.364   6.808   2.941
11534TIP3    H185070   0.431   6.835   3.007
11534TIP3    H285071   0.283   6.822   2.995
11535TIP3   OH285072   0.449   5.967   1.861
11535TIP3    H185073   0.422   5.873   1.862
11535TIP3    H285074   0.532   5.964   1.811
11536TIP3   OH285075   0.873   6.805   1.634
11536TIP3    H185076   0.796   6.758   1.599
11536TIP3    H285077   0.855   6.813   1.728
11537TIP3   OH285078   1.594   6.725   2.510
11537TIP3    H185079   1.651   6.775   2.450
11537TIP3    H285080   1.508   6.731   2.464
11538TIP3   OH285081   1.263   6.084   1.450
11538TIP3    H185082   1.169   6.099   1.434
11538TIP3    H285083   1.290   6.171   1.484
11539TIP3   OH285084   1.023   6.831   2.756
11539TIP3    H185085   0.993   6.793   2.840
11539TIP3    H285086   1.000   6.924   2.766
11540TIP3   OH285087   1.336   6.280   1.619
11540TIP3    H185088   1.426   6.263   1.651
11540TIP3    H285089   1.339   6.359   1.563
11541TIP3   OH285090   1.087   6.953   1.542
11541TIP3    H185091   1.049   7.039   1.571
11541TIP3    H285092   1.013   6.891   1.556
11542TIP3   OH285093   0.080   6.585   2.743
11542TIP3    H185094   0.113   6.539   2.821
11542TIP3    H285095   0.026   6.520   2.696
11543TIP3   OH285096   1.255   7.077   2.748
11543TIP3    H185097   1.162   7.091   2.727
11543TIP3    H285098   1.252   7.103   2.843
11544TIP3   OH285099   1.818   6.297   1.592
11544TIP3    H185100   1.769   6.260   1.517
11544TIP3    H285101   1.833   6.389   1.560
11545TIP3   OH285102   1.821   6.878   2.872
11545TIP3    H185103   1.733   6.904   2.835
11545TIP3    H285104   1.877   6.876   2.792
11546TIP3   OH285105   1.656   7.172   1.631
11546TIP3    H185106   1.613   7.093   1.665
11546TIP3    H285107   1.680   7.157   1.540
11547TIP3   OH285108   1.371   6.657   2.340
11547TIP3    H185109   1.278   6.632   2.329
11547TIP3    H285110   1.416   6.581   2.297
11548TIP3   OH285111   0.812   7.273   2.541
11548TIP3    H185112   0.855   7.356   2.514
11548TIP3    H285113   0.872   7.242   2.611
11549TIP3   OH285114   0.633   7.359   1.850
11549TIP3    H185115   0.538   7.368   1.871
11549TIP3    H285116   0.671   7.439   1.891
11550TIP3   OH285117   1.161   6.873   2.503
11550TIP3    H185118   1.132   6.859   2.595
11550TIP3    H285119   1.233   6.810   2.490
11551TIP3   OH285120   1.394   6.980   1.417
11551TIP3    H185121   1.422   6.934   1.499
11551TIP3    H285122   1.298   6.966   1.423
11552TIP3   OH285123   1.445   7.333   2.754
11552TIP3    H185124   1.375   7.283   2.707
11552TIP3    H285125   1.462   7.402   2.689
11553TIP3   OH285126   0.248   6.059   2.695
11553TIP3    H185127   0.158   6.095   2.694
11553TIP3    H285128   0.238   5.974   2.737
11554TIP3   OH285129   1.476   6.844   1.638
11554TIP3    H185130   1.450   6.767   1.693
11554TIP3    H285131   1.570   6.852   1.661
11555TIP3   OH285132   0.213   7.239   2.535
11555TIP3    H185133   0.242   7.147   2.538
11555TIP3    H285134   0.243   7.266   2.623
11556TIP3   OH285135   1.124   6.033   2.585
11556TIP3    H185136   1.193   6.043   2.651
11556TIP3    H285137   1.086   5.945   2.607
11557TIP3   OH285138   0.967   7.210   1.582
11557TIP3    H185139   0.885   7.261   1.586
11557TIP3    H285140   1.020   7.260   1.519
11558TIP3   OH285141   0.924   6.166   1.780
11558TIP3    H185142   1.001   6.226   1.785
11558TIP3    H285143   0.896   6.156   1.872
11559TIP3   OH285144   0.975   6.268   2.702
11559TIP3    H185145   0.987   6.328   2.779
11559TIP3    H285146   1.043   6.201   2.709
11560TIP3   OH285147   0.705   7.315   1.583
11560TIP3    H185148   0.719   7.396   1.531
11560TIP3    H285149   0.679   7.348   1.671
11561TIP3   OH285150   1.597   6.061   2.783
11561TIP3    H185151   1.503   6.088   2.771
11561TIP3    H285152   1.626   6.058   2.690
11562TIP3   OH285153   1.455   6.438   2.186
11562TIP3    H185154   1.374   6.392   2.156
11562TIP3    H285155   1.504   6.368   2.235
11563TIP3   OH285156   0.133   7.432   2.974
11563TIP3    H185157   0.191   7.409   3.050
11563TIP3    H285158   0.085   7.349   2.957
11564TIP3   OH285159   0.595   7.324   3.135
11564TIP3    H185160   0.672   7.276   3.168
11564TIP3    H285161   0.593   7.297   3.042
11565TIP3   OH285162   1.247   7.163   3.007
11565TIP3    H185163   1.215   7.075   3.037
11565TIP3    H285164   1.324   7.175   3.067
11566TIP3   OH285165   1.462   7.251   1.294
11566TIP3    H185166   1.490   7.174   1.345
11566TIP3    H285167   1.541   7.277   1.246
11567TIP3   OH285168   0.141   6.808   3.059
11567TIP3    H185169   0.149   6.712   3.034
11567TIP3    H285170   0.067   6.836   3.003
11568TIP3   OH285171   0.790   6.808   3.014
11568TIP3    H185172   0.756   6.839   2.927
11568TIP3    H285173   0.802   6.713   3.001
11569TIP3   OH285174   1.359   6.794   2.749
11569TIP3    H185175   1.438   6.852   2.745
11569TIP3    H285176   1.290   6.862   2.757
11570TIP3   OH285177   0.211   6.531   3.011
11570TIP3    H185178   0.255   6.445   3.000
11570TIP3    H285179   0.190   6.533   3.106
11571TIP3   OH285180   1.109   6.684   3.086
11571TIP3    H185181   1.205   6.681   3.073
11571TIP3    H285182   1.091   6.605   3.139
11572TIP3   OH285183   0.681   6.001   2.604
11572TIP3    H185184   0.735   6.051   2.541
11572TIP3    H285185   0.594   5.997   2.564
11573TIP3   OH285186   1.274   6.328   3.127
11573TIP3    H185187   1.297   6.234   3.124
11573TIP3    H285188   1.361   6.370   3.130
11574TIP3   OH285189   1.411   6.607   2.947
11574TIP3    H185190   1.384   6.677   2.884
11574TIP3    H285191   1.508   6.604   2.928
11575TIP3   OH285192   0.888   6.178   3.009
11575TIP3    H185193   0.858   6.157   3.099
11575TIP3    H285194   0.810   6.158   2.956
11576TIP3   OH285195   1.160   6.093   2.917
11576TIP3    H185196   1.064   6.098   2.929
11576TIP3    H285197   1.187   6.030   2.986
11577TIP3   OH285198   1.315   5.957   3.110
11577TIP3    H185199   1.314   5.860   3.113
11577TIP3    H285200   1.292   5.985   3.202
11578TIP3   OH285201   0.300   6.080   3.018
11578TIP3    H185202   0.326   6.007   2.962
11578TIP3    H285203   0.292   6.037   3.106
11579TIP3   OH285204   0.813   5.842   3.126
11579TIP3    H185205   0.803   5.799   3.040
11579TIP3    H285206   0.759   5.924   3.117
11580TIP3   OH285207   0.765   7.537   1.439
11580TIP3    H185208   0.862   7.548   1.453
11580TIP3    H285209   0.745   7.605   1.374
11581TIP3   OH285210   0.128   7.004   1.382
11581TIP3    H185211   0.216   7.003   1.421
11581TIP3    H285212   0.132   6.929   1.324
11582TIP3   OH285213   8.179   7.511   1.896
11582TIP3    H185214   8.087   7.496   1.861
11582TIP3    H285215   8.177   7.452   1.972
11583TIP3   OH285216   0.102   7.334   2.073
11583TIP3    H185217   0.043   7.259   2.091
11583TIP3    H285218   0.102   7.384   2.156
11584TIP3   OH285219   1.637   6.958   3.132
11584TIP3    H185220   1.548   6.956   3.172
11584TIP3    H285221   1.675   7.037   3.177
11585TIP3   OH285222   1.770   6.788   1.675
11585TIP3    H185223   1.850   6.833   1.700
11585TIP3    H285224   1.766   6.719   1.745
11586TIP3   OH285225   1.805   6.600   1.863
11586TIP3    H185226   1.730   6.550   1.903
11586TIP3    H285227   1.864   6.612   1.940
11587TIP3   OH285228   1.782   6.873   2.364
11587TIP3    H185229   1.862   6.831   2.327
11587TIP3    H285230   1.794   6.966   2.346
11588TIP3   OH285231   1.627   7.147   2.595
11588TIP3    H185232   1.564   7.194   2.651
11588TIP3    H285233   1.573   7.115   2.520
11589TIP3   OH285234   1.833   6.582   1.503
11589TIP3    H185235   1.776   6.614   1.432
11589TIP3    H285236   1.826   6.653   1.569
11590TIP3   OH285237   1.587   6.445   1.921
11590TIP3    H185238   1.570   6.350   1.920
11590TIP3    H285239   1.551   6.469   2.008
11591TIP3   OH285240   1.672   6.644   2.890
11591TIP3    H185241   1.734   6.568   2.904
11591TIP3    H285242   1.732   6.721   2.890
11592TIP3   OH285243   1.822   6.432   2.954
11592TIP3    H185244   1.734   6.392   2.940
11592TIP3    H285245   1.880   6.354   2.947
11593TIP3   OH285246   1.557   6.206   1.765
11593TIP3    H185247   1.585   6.115   1.781
11593TIP3    H285248   1.636   6.247   1.729
11594TIP3   OH285249   1.615   6.262   2.312
11594TIP3    H185250   1.711   6.283   2.310
11594TIP3    H285251   1.597   6.272   2.407
11595TIP3   OH285252   1.623   6.331   2.590
11595TIP3    H185253   1.535   6.361   2.622
11595TIP3    H285254   1.667   6.417   2.567
11596TIP3   OH285255   0.060   6.165   2.924
11596TIP3    H185256   0.150   6.162   2.961
11596TIP3    H285257   0.010   6.101   2.975
11597TIP3   OH285258   1.854   5.737   3.124
11597TIP3    H185259   1.887   5.670   3.062
11597TIP3    H285260   1.861   5.820   3.073
11598TIP3   OH285261   0.165   6.019   2.224
11598TIP3    H185262   0.207   5.938   2.258
11598TIP3    H285263   0.220   6.086   2.266
11599TIP3   OH285264  -0.000   6.337   2.266
11599TIP3    H185265   0.069   6.275   2.240
11599TIP3    H285266   0.049   6.383   2.337
11600TIP3   OH285267   1.804   5.945   2.959
11600TIP3    H185268   1.711   5.975   2.957
11600TIP3    H285269   1.804   5.893   2.878
11601TIP3   OH285270   1.804   5.938   1.433
11601TIP3    H185271   1.843   5.867   1.379
11601TIP3    H285272   1.873   6.006   1.428
11602TIP3   OH285273   0.052   5.931   1.742
11602TIP3    H185274  -0.040   5.945   1.714
11602TIP3    H285275   0.097   5.989   1.679
11603TIP3   OH285276   1.507   7.433   1.934
11603TIP3    H185277   1.575   7.410   1.867
11603TIP3    H285278   1.561   7.489   1.991
11604TIP3   OH285279   0.246   7.132   2.986
11604TIP3    H185280   0.163   7.149   2.940
11604TIP3    H285281   0.221   7.120   3.078
11605TIP3   OH285282   0.543   7.226   2.614
11605TIP3    H185283   0.505   7.310   2.586
11605TIP3    H285284   0.635   7.235   2.581
11606TIP3   OH285285   0.974   7.369   2.904
11606TIP3    H185286   0.988   7.334   2.995
11606TIP3    H285287   1.064   7.399   2.879
11607TIP3   OH285288   1.204   7.496   2.834
11607TIP3    H185289   1.277   7.436   2.811
11607TIP3    H285290   1.239   7.539   2.914
11608TIP3   OH285291   1.702   5.755   2.742
11608TIP3    H185292   1.620   5.791   2.703
11608TIP3    H285293   1.719   5.677   2.687
11609TIP3   OH285294   0.301   7.534   2.642
11609TIP3    H185295   0.235   7.561   2.578
11609TIP3    H285296   0.247   7.521   2.720
11610TIP3   OH285297   0.531   7.505   2.517
11610TIP3    H185298   0.444   7.523   2.561
11610TIP3    H285299   0.527   7.566   2.441
11611TIP3   OH285300   1.003   7.498   2.438
11611TIP3    H185301   0.958   7.553   2.371
11611TIP3    H285302   1.018   7.564   2.509
11612TIP3   OH285303   1.234   7.382   2.538
11612TIP3    H185304   1.147   7.406   2.503
11612TIP3    H285305   1.276   7.468   2.527
11613TIP3   OH285306   0.235   7.411   2.312
11613TIP3    H185307   0.232   7.364   2.397
11613TIP3    H285308   0.316   7.376   2.269
11614TIP3   OH285309   0.435   7.289   2.176
11614TIP3    H185310   0.421   7.195   2.190
11614TIP3    H285311   0.522   7.303   2.218
11615TIP3   OH285312   0.700   7.335   2.260
11615TIP3    H185313   0.715   7.243   2.232
11615TIP3    H285314   0.703   7.326   2.356
11616TIP3   OH285315   1.048   5.898   2.175
11616TIP3    H185316   0.976   5.837   2.200
11616TIP3    H285317   1.101   5.849   2.112
11617TIP3   OH285318   1.728   5.827   2.010
11617TIP3    H185319   1.794   5.771   1.965
11617TIP3    H285320   1.773   5.914   2.018
11618TIP3   OH285321   0.276   5.760   1.949
11618TIP3    H185322   0.194   5.736   1.903
11618TIP3    H285323   0.328   5.679   1.948
11619TIP3   OH285324   0.734   5.757   1.937
11619TIP3    H185325   0.821   5.797   1.933
11619TIP3    H285326   0.725   5.737   2.030
11620TIP3   OH285327   0.145   7.337   1.633
11620TIP3    H185328   0.085   7.335   1.559
11620TIP3    H285329   0.154   7.432   1.648
11621TIP3   OH285330   0.845   5.961   1.621
11621TIP3    H185331   0.865   5.899   1.692
11621TIP3    H285332   0.849   6.046   1.671
11622TIP3   OH285333   1.033   7.467   1.460
11622TIP3    H185334   1.128   7.485   1.449
11622TIP3    H285335   1.017   7.409   1.385
11623TIP3   OH285336   1.703   7.412   1.738
11623TIP3    H185337   1.688   7.337   1.677
11623TIP3    H285338   1.701   7.487   1.675
11624TIP3   OH285339   0.469   5.758   3.069
11624TIP3    H185340   0.554   5.720   3.043
11624TIP3    H285341   0.426   5.676   3.104
11625TIP3   OH285342   0.328   7.421   1.329
11625TIP3    H185343   0.308   7.460   1.415
11625TIP3    H285344   0.411   7.375   1.344
11626TIP3   OH285345   1.311   5.684   3.078
11626TIP3    H185346   1.321   5.636   3.163
11626TIP3    H285347   1.403   5.680   3.046
11627TIP3   OH285348   1.625   7.286   2.954
11627TIP3    H185349   1.549   7.274   2.893
11627TIP3    H285350   1.622   7.383   2.966
11628TIP3   OH285351   3.068   6.675   1.949
11628TIP3    H185352   3.076   6.773   1.940
11628TIP3    H285353   3.006   6.654   1.877
11629TIP3   OH285354   2.947   6.602   2.294
11629TIP3    H185355   2.964   6.539   2.366
11629TIP3    H285356   2.934   6.548   2.215
11630TIP3   OH285357   2.194   6.568   2.449
11630TIP3    H185358   2.205   6.500   2.518
11630TIP3    H285359   2.269   6.625   2.471
11631TIP3   OH285360   1.952   6.369   1.844
11631TIP3    H185361   1.908   6.457   1.843
11631TIP3    H285362   1.893   6.316   1.788
11632TIP3   OH285363   2.022   6.592   2.062
11632TIP3    H185364   2.048   6.510   2.109
11632TIP3    H285365   2.096   6.602   2.000
11633TIP3   OH285366   3.044   7.411   2.144
11633TIP3    H185367   3.107   7.341   2.117
11633TIP3    H285368   3.020   7.380   2.232
11634TIP3   OH285369   2.795   6.827   2.341
11634TIP3    H185370   2.845   6.786   2.270
11634TIP3    H285371   2.872   6.862   2.392
11635TIP3   OH285372   3.660   6.006   2.411
11635TIP3    H185373   3.675   6.061   2.492
11635TIP3    H285374   3.713   6.056   2.349
11636TIP3   OH285375   3.111   6.289   2.369
11636TIP3    H185376   3.131   6.193   2.372
11636TIP3    H285377   3.107   6.301   2.272
11637TIP3   OH285378   2.089   6.336   2.168
11637TIP3    H185379   2.160   6.285   2.210
11637TIP3    H285380   2.100   6.308   2.075
11638TIP3   OH285381   2.607   6.493   2.105
11638TIP3    H185382   2.674   6.429   2.135
11638TIP3    H285383   2.555   6.431   2.050
11639TIP3   OH285384   3.701   6.149   2.639
11639TIP3    H185385   3.640   6.225   2.631
11639TIP3    H285386   3.709   6.138   2.735
11640TIP3   OH285387   2.309   5.984   2.500
11640TIP3    H185388   2.291   6.041   2.425
11640TIP3    H285389   2.247   6.014   2.568
11641TIP3   OH285390   3.054   6.938   1.850
11641TIP3    H185391   3.018   6.907   1.765
11641TIP3    H285392   3.015   7.027   1.859
11642TIP3   OH285393   2.569   6.755   2.518
11642TIP3    H185394   2.496   6.815   2.539
11642TIP3    H285395   2.640   6.818   2.498
11643TIP3   OH285396   3.383   6.039   2.130
11643TIP3    H185397   3.358   5.964   2.184
11643TIP3    H285398   3.448   6.085   2.184
11644TIP3   OH285399   3.412   5.909   2.495
11644TIP3    H185400   3.341   5.974   2.491
11644TIP3    H285401   3.486   5.951   2.446
11645TIP3   OH285402   3.211   7.258   2.016
11645TIP3    H185403   3.257   7.185   1.971
11645TIP3    H285404   3.250   7.339   1.978
11646TIP3   OH285405   3.492   6.909   2.720
11646TIP3    H185406   3.507   6.845   2.647
11646TIP3    H285407   3.509   6.994   2.678
11647TIP3   OH285408   2.941   6.610   1.700
11647TIP3    H185409   2.869   6.658   1.654
11647TIP3    H285410   3.009   6.603   1.630
11648TIP3   OH285411   2.945   6.448   1.402
11648TIP3    H185412   3.018   6.451   1.466
11648TIP3    H285413   2.979   6.388   1.336
11649TIP3   OH285414   3.680   6.541   2.523
11649TIP3    H185415   3.614   6.612   2.529
11649TIP3    H285416   3.730   6.564   2.442
11650TIP3   OH285417   3.287   6.621   1.789
11650TIP3    H185418   3.212   6.645   1.847
11650TIP3    H285419   3.332   6.552   1.839
11651TIP3   OH285420   3.277   6.439   2.701
11651TIP3    H185421   3.281   6.522   2.750
11651TIP3    H285422   3.217   6.467   2.629
11652TIP3   OH285423   2.446   6.685   1.979
11652TIP3    H185424   2.414   6.646   1.894
11652TIP3    H285425   2.509   6.618   2.010
11653TIP3   OH285426   2.467   6.556   2.351
11653TIP3    H185427   2.501   6.567   2.261
11653TIP3    H285428   2.499   6.625   2.412
11654TIP3   OH285429   3.113   7.120   2.414
11654TIP3    H185430   3.093   7.181   2.485
11654TIP3    H285431   3.095   7.033   2.456
11655TIP3   OH285432   2.571   7.003   2.810
11655TIP3    H185433   2.535   7.078   2.861
11655TIP3    H285434   2.502   6.988   2.743
11656TIP3   OH285435   3.173   6.539   1.556
11656TIP3    H185436   3.228   6.560   1.636
11656TIP3    H285437   3.211   6.592   1.486
11657TIP3   OH285438   2.270   6.621   2.731
11657TIP3    H185439   2.273   6.688   2.802
11657TIP3    H285440   2.177   6.630   2.707
11658TIP3   OH285441   2.946   7.214   1.901
11658TIP3    H185442   2.988   7.244   1.983
11658TIP3    H285443   2.888   7.288   1.878
11659TIP3   OH285444   2.400   7.206   2.891
11659TIP3    H185445   2.390   7.199   2.796
11659TIP3    H285446   2.305   7.198   2.917
11660TIP3   OH285447   3.546   5.715   1.543
11660TIP3    H185448   3.451   5.726   1.568
11660TIP3    H285449   3.567   5.802   1.506
11661TIP3   OH285450   2.342   6.595   1.744
11661TIP3    H185451   2.319   6.667   1.682
11661TIP3    H285452   2.281   6.525   1.717
11662TIP3   OH285453   1.951   6.832   2.629
11662TIP3    H185454   1.908   6.821   2.542
11662TIP3    H285455   1.960   6.737   2.653
11663TIP3   OH285456   2.854   7.124   2.773
11663TIP3    H185457   2.855   7.215   2.810
11663TIP3    H285458   2.761   7.097   2.785
11664TIP3   OH285459   2.894   7.506   1.742
11664TIP3    H185460   2.883   7.498   1.645
11664TIP3    H285461   2.894   7.601   1.759
11665TIP3   OH285462   3.196   7.426   1.440
11665TIP3    H185463   3.236   7.349   1.397
11665TIP3    H285464   3.199   7.404   1.535
11666TIP3   OH285465   3.164   7.416   1.719
11666TIP3    H185466   3.069   7.426   1.741
11666TIP3    H285467   3.192   7.347   1.780
11667TIP3   OH285468   3.462   6.322   2.927
11667TIP3    H185469   3.423   6.368   2.852
11667TIP3    H285470   3.471   6.231   2.893
11668TIP3   OH285471   2.184   6.964   2.722
11668TIP3    H185472   2.204   6.929   2.811
11668TIP3    H285473   2.096   6.926   2.702
11669TIP3   OH285474   2.918   5.785   2.660
11669TIP3    H185475   2.958   5.738   2.737
11669TIP3    H285476   2.824   5.771   2.677
11670TIP3   OH285477   3.247   6.165   2.747
11670TIP3    H185478   3.185   6.139   2.820
11670TIP3    H285479   3.224   6.255   2.721
11671TIP3   OH285480   2.900   6.391   2.927
11671TIP3    H185481   2.850   6.313   2.965
11671TIP3    H285482   2.991   6.368   2.948
11672TIP3   OH285483   3.100   6.316   2.091
11672TIP3    H185484   3.089   6.377   2.017
11672TIP3    H285485   3.123   6.234   2.044
11673TIP3   OH285486   2.217   6.336   2.615
11673TIP3    H185487   2.230   6.376   2.702
11673TIP3    H285488   2.179   6.249   2.634
11674TIP3   OH285489   1.889   6.049   2.008
11674TIP3    H185490   1.953   6.039   2.081
11674TIP3    H285491   1.932   6.006   1.933
11675TIP3   OH285492   2.015   6.122   1.552
11675TIP3    H185493   2.066   6.178   1.490
11675TIP3    H285494   1.944   6.183   1.580
11676TIP3   OH285495   3.028   6.479   2.547
11676TIP3    H185496   3.067   6.410   2.490
11676TIP3    H285497   2.986   6.424   2.616
11677TIP3   OH285498   2.187   6.233   1.923
11677TIP3    H185499   2.103   6.245   1.876
11677TIP3    H285500   2.223   6.153   1.881
11678TIP3   OH285501   3.149   5.999   2.356
11678TIP3    H185502   3.082   6.002   2.426
11678TIP3    H285503   3.101   5.975   2.276
11679TIP3   OH285504   2.424   6.355   1.439
11679TIP3    H185505   2.370   6.315   1.369
11679TIP3    H285506   2.510   6.368   1.397
11680TIP3   OH285507   3.470   7.567   2.992
11680TIP3    H185508   3.502   7.597   2.906
11680TIP3    H285509   3.544   7.590   3.050
11681TIP3   OH285510   2.241   6.807   2.947
11681TIP3    H185511   2.311   6.834   3.009
11681TIP3    H285512   2.161   6.823   3.002
11682TIP3   OH285513   2.835   6.350   2.226
11682TIP3    H185514   2.897   6.299   2.170
11682TIP3    H285515   2.831   6.294   2.304
11683TIP3   OH285516   2.761   6.807   1.632
11683TIP3    H185517   2.683   6.759   1.597
11683TIP3    H285518   2.742   6.814   1.726
11684TIP3   OH285519   3.480   6.726   2.510
11684TIP3    H185520   3.535   6.777   2.450
11684TIP3    H285521   3.393   6.730   2.466
11685TIP3   OH285522   2.907   6.829   2.756
11685TIP3    H185523   2.877   6.791   2.838
11685TIP3    H285524   2.888   6.924   2.765
11686TIP3   OH285525   3.221   6.272   1.612
11686TIP3    H185526   3.309   6.264   1.652
11686TIP3    H285527   3.224   6.357   1.566
11687TIP3   OH285528   2.274   6.738   2.211
11687TIP3    H185529   2.341   6.737   2.141
11687TIP3    H285530   2.278   6.654   2.257
11688TIP3   OH285531   2.971   6.955   1.538
11688TIP3    H185532   2.935   7.038   1.572
11688TIP3    H285533   2.896   6.892   1.552
11689TIP3   OH285534   1.971   6.588   2.739
11689TIP3    H185535   1.991   6.542   2.823
11689TIP3    H285536   1.912   6.525   2.694
11690TIP3   OH285537   2.674   6.542   2.961
11690TIP3    H185538   2.639   6.514   2.874
11690TIP3    H285539   2.765   6.511   2.951
11691TIP3   OH285540   3.140   7.076   2.749
11691TIP3    H185541   3.046   7.094   2.727
11691TIP3    H285542   3.138   7.104   2.843
11692TIP3   OH285543   3.707   6.296   1.592
11692TIP3    H185544   3.657   6.258   1.519
11692TIP3    H285545   3.719   6.387   1.561
11693TIP3   OH285546   3.707   6.875   2.872
11693TIP3    H185547   3.620   6.904   2.837
11693TIP3    H285548   3.762   6.877   2.791
11694TIP3   OH285549   3.256   6.653   2.342
11694TIP3    H185550   3.163   6.636   2.328
11694TIP3    H285551   3.300   6.580   2.296
11695TIP3   OH285552   2.085   6.570   1.409
11695TIP3    H185553   2.146   6.637   1.444
11695TIP3    H285554   1.997   6.603   1.434
11696TIP3   OH285555   3.044   6.873   2.504
11696TIP3    H185556   3.019   6.857   2.598
11696TIP3    H285557   3.114   6.808   2.489
11697TIP3   OH285558   3.326   7.339   2.756
11697TIP3    H185559   3.264   7.280   2.709
11697TIP3    H285560   3.351   7.401   2.688
11698TIP3   OH285561   2.136   6.059   2.697
11698TIP3    H185562   2.046   6.094   2.688
11698TIP3    H285563   2.123   5.974   2.738
11699TIP3   OH285564   2.222   6.766   1.561
11699TIP3    H185565   2.156   6.808   1.615
11699TIP3    H285566   2.280   6.840   1.533
11700TIP3   OH285567   2.856   7.211   1.583
11700TIP3    H185568   2.774   7.262   1.586
11700TIP3    H285569   2.906   7.261   1.518
11701TIP3   OH285570   2.866   6.271   2.694
11701TIP3    H185571   2.868   6.325   2.775
11701TIP3    H285572   2.928   6.200   2.708
11702TIP3   OH285573   3.482   6.059   2.782
11702TIP3    H185574   3.388   6.089   2.770
11702TIP3    H285575   3.512   6.055   2.690
11703TIP3   OH285576   3.342   6.437   2.184
11703TIP3    H185577   3.260   6.392   2.156
11703TIP3    H285578   3.390   6.368   2.236
11704TIP3   OH285579   2.117   6.295   1.363
11704TIP3    H185580   2.115   6.392   1.375
11704TIP3    H285581   2.030   6.278   1.326
11705TIP3   OH285582   2.194   5.778   2.231
11705TIP3    H185583   2.177   5.779   2.134
11705TIP3    H285584   2.156   5.692   2.257
11706TIP3   OH285585   2.481   7.322   3.138
11706TIP3    H185586   2.560   7.275   3.169
11706TIP3    H285587   2.479   7.297   3.044
11707TIP3   OH285588   3.130   7.163   3.010
11707TIP3    H185589   3.101   7.074   3.036
11707TIP3    H285590   3.209   7.175   3.067
11708TIP3   OH285591   2.004   6.807   3.075
11708TIP3    H185592   2.023   6.718   3.040
11708TIP3    H285593   1.934   6.838   3.015
11709TIP3   OH285594   2.680   6.807   3.015
11709TIP3    H185595   2.643   6.840   2.930
11709TIP3    H285596   2.683   6.710   3.002
11710TIP3   OH285597   3.246   6.794   2.756
11710TIP3    H185598   3.324   6.853   2.744
11710TIP3    H285599   3.176   6.861   2.753
11711TIP3   OH285600   2.095   6.531   3.013
11711TIP3    H185601   2.138   6.446   3.003
11711TIP3    H285602   2.074   6.533   3.108
11712TIP3   OH285603   2.566   6.644   1.521
11712TIP3    H185604   2.512   6.592   1.581
11712TIP3    H285605   2.590   6.576   1.454
11713TIP3   OH285606   2.488   6.429   2.749
11713TIP3    H185607   2.426   6.499   2.774
11713TIP3    H285608   2.524   6.462   2.666
11714TIP3   OH285609   2.669   6.466   1.338
11714TIP3    H185610   2.659   6.453   1.243
11714TIP3    H285611   2.766   6.475   1.351
11715TIP3   OH285612   2.995   6.674   3.079
11715TIP3    H185613   3.091   6.688   3.072
11715TIP3    H285614   2.977   6.617   3.153
11716TIP3   OH285615   2.533   6.171   2.857
11716TIP3    H185616   2.540   6.097   2.795
11716TIP3    H285617   2.522   6.248   2.798
11717TIP3   OH285618   2.723   6.547   2.632
11717TIP3    H185619   2.801   6.535   2.578
11717TIP3    H285620   2.686   6.633   2.605
11718TIP3   OH285621   3.188   6.317   3.144
11718TIP3    H185622   3.208   6.223   3.124
11718TIP3    H285623   3.274   6.362   3.131
11719TIP3   OH285624   3.295   6.605   2.945
11719TIP3    H185625   3.272   6.679   2.884
11719TIP3    H285626   3.392   6.604   2.926
11720TIP3   OH285627   2.375   6.285   3.050
11720TIP3    H185628   2.296   6.232   3.028
11720TIP3    H285629   2.439   6.254   2.983
11721TIP3   OH285630   2.774   6.183   3.015
11721TIP3    H185631   2.740   6.153   3.101
11721TIP3    H285632   2.698   6.161   2.957
11722TIP3   OH285633   3.044   6.103   2.926
11722TIP3    H185634   2.947   6.093   2.927
11722TIP3    H285635   3.072   6.028   2.982
11723TIP3   OH285636   3.200   5.958   3.110
11723TIP3    H185637   3.201   5.860   3.113
11723TIP3    H285638   3.179   5.984   3.202
11724TIP3   OH285639   2.182   6.080   3.019
11724TIP3    H185640   2.211   6.009   2.960
11724TIP3    H285641   2.175   6.038   3.107
11725TIP3   OH285642   2.699   5.843   3.126
11725TIP3    H185643   2.687   5.797   3.042
11725TIP3    H285644   2.644   5.923   3.117
11726TIP3   OH285645   2.655   7.533   1.439
11726TIP3    H185646   2.749   7.551   1.455
11726TIP3    H285647   2.629   7.603   1.378
11727TIP3   OH285648   3.522   6.956   3.133
11727TIP3    H185649   3.432   6.956   3.171
11727TIP3    H285650   3.560   7.037   3.175
11728TIP3   OH285651   3.690   6.597   1.864
11728TIP3    H185652   3.613   6.548   1.901
11728TIP3    H285653   3.748   6.615   1.940
11729TIP3   OH285654   3.716   6.582   1.503
11729TIP3    H185655   3.661   6.618   1.433
11729TIP3    H285656   3.715   6.650   1.572
11730TIP3   OH285657   3.467   6.448   1.921
11730TIP3    H185658   3.455   6.351   1.917
11730TIP3    H285659   3.438   6.470   2.010
11731TIP3   OH285660   1.970   6.654   2.327
11731TIP3    H185661   1.993   6.648   2.231
11731TIP3    H285662   2.060   6.641   2.363
11732TIP3   OH285663   3.557   6.645   2.886
11732TIP3    H185664   3.618   6.570   2.903
11732TIP3    H285665   3.618   6.722   2.890
11733TIP3   OH285666   3.707   6.433   2.954
11733TIP3    H185667   3.619   6.392   2.940
11733TIP3    H285668   3.765   6.354   2.948
11734TIP3   OH285669   3.482   6.040   1.262
11734TIP3    H185670   3.540   6.011   1.335
11734TIP3    H285671   3.394   6.011   1.290
11735TIP3   OH285672   3.442   6.205   1.766
11735TIP3    H185673   3.469   6.112   1.779
11735TIP3    H285674   3.522   6.243   1.728
11736TIP3   OH285675   3.503   6.259   2.311
11736TIP3    H185676   3.599   6.282   2.309
11736TIP3    H285677   3.484   6.275   2.405
11737TIP3   OH285678   3.508   6.331   2.590
11737TIP3    H185679   3.421   6.362   2.623
11737TIP3    H285680   3.554   6.415   2.568
11738TIP3   OH285681   1.934   6.185   2.941
11738TIP3    H185682   2.028   6.165   2.961
11738TIP3    H285683   1.888   6.103   2.971
11739TIP3   OH285684   3.736   5.736   3.123
11739TIP3    H185685   3.772   5.670   3.063
11739TIP3    H285686   3.746   5.818   3.072
11740TIP3   OH285687   3.506   5.932   1.770
11740TIP3    H185688   3.521   5.892   1.857
11740TIP3    H285689   3.447   5.868   1.726
11741TIP3   OH285690   2.054   6.015   2.227
11741TIP3    H185691   2.102   5.933   2.251
11741TIP3    H285692   2.106   6.082   2.269
11742TIP3   OH285693   1.883   6.314   2.331
11742TIP3    H185694   1.940   6.292   2.255
11742TIP3    H285695   1.928   6.396   2.359
11743TIP3   OH285696   3.687   5.948   2.960
11743TIP3    H185697   3.593   5.974   2.955
11743TIP3    H285698   3.693   5.894   2.879
11744TIP3   OH285699   3.686   5.936   1.425
11744TIP3    H185700   3.733   5.867   1.378
11744TIP3    H285701   3.753   6.006   1.431
11745TIP3   OH285702   1.916   5.946   1.739
11745TIP3    H185703   1.824   5.960   1.718
11745TIP3    H285704   1.964   5.986   1.664
11746TIP3   OH285705   3.386   7.454   1.927
11746TIP3    H185706   3.451   7.413   1.868
11746TIP3    H285707   3.442   7.490   1.997
11747TIP3   OH285708   1.913   5.807   2.565
11747TIP3    H185709   1.850   5.793   2.638
11747TIP3    H285710   1.870   5.876   2.512
11748TIP3   OH285711   2.137   7.121   2.986
11748TIP3    H185712   2.057   7.155   2.940
11748TIP3    H285713   2.109   7.126   3.078
11749TIP3   OH285714   2.858   7.369   2.905
11749TIP3    H185715   2.875   7.333   2.995
11749TIP3    H285716   2.948   7.397   2.878
11750TIP3   OH285717   3.092   7.496   2.831
11750TIP3    H185718   3.164   7.433   2.811
11750TIP3    H285719   3.127   7.537   2.912
11751TIP3   OH285720   3.585   5.753   2.750
11751TIP3    H185721   3.509   5.787   2.701
11751TIP3    H285722   3.611   5.679   2.691
11752TIP3   OH285723   2.417   7.518   2.526
11752TIP3    H185724   2.326   7.518   2.556
11752TIP3    H285725   2.413   7.568   2.443
11753TIP3   OH285726   2.891   7.499   2.434
11753TIP3    H185727   2.843   7.554   2.371
11753TIP3    H285728   2.901   7.561   2.509
11754TIP3   OH285729   3.123   7.384   2.537
11754TIP3    H185730   3.032   7.402   2.506
11754TIP3    H285731   3.160   7.472   2.526
11755TIP3   OH285732   3.444   5.703   2.182
11755TIP3    H185733   3.502   5.764   2.130
11755TIP3    H285734   3.356   5.740   2.160
11756TIP3   OH285735   3.613   5.823   2.012
11756TIP3    H185736   3.678   5.770   1.965
11756TIP3    H285737   3.655   5.912   2.016
11757TIP3   OH285738   2.160   5.763   1.962
11757TIP3    H185739   2.085   5.742   1.904
11757TIP3    H285740   2.213   5.681   1.952
11758TIP3   OH285741   3.179   5.758   2.102
11758TIP3    H185742   3.184   5.769   2.007
11758TIP3    H285743   3.145   5.667   2.112
11759TIP3   OH285744   3.310   5.761   1.665
11759TIP3    H185745   3.237   5.820   1.646
11759TIP3    H285746   3.267   5.676   1.687
11760TIP3   OH285747   2.921   7.463   1.464
11760TIP3    H185748   3.013   7.489   1.447
11760TIP3    H285749   2.900   7.413   1.384
11761TIP3   OH285750   3.197   5.684   3.083
11761TIP3    H185751   3.207   5.635   3.166
11761TIP3    H285752   3.287   5.681   3.046
11762TIP3   OH285753   4.081   6.567   2.450
11762TIP3    H185754   4.091   6.499   2.520
11762TIP3    H285755   4.155   6.626   2.471
11763TIP3   OH285756   3.838   6.370   1.847
11763TIP3    H185757   3.794   6.457   1.842
11763TIP3    H285758   3.781   6.318   1.788
11764TIP3   OH285759   3.909   6.595   2.063
11764TIP3    H185760   3.934   6.512   2.108
11764TIP3    H285761   3.980   6.602   1.998
11765TIP3   OH285762   4.927   7.416   2.143
11765TIP3    H185763   4.988   7.348   2.114
11765TIP3    H285764   4.904   7.388   2.232
11766TIP3   OH285765   5.541   6.010   2.412
11766TIP3    H185766   5.563   6.065   2.491
11766TIP3    H285767   5.602   6.048   2.347
11767TIP3   OH285768   5.016   6.286   2.366
11767TIP3    H185769   5.003   6.190   2.373
11767TIP3    H285770   4.982   6.309   2.277
11768TIP3   OH285771   5.087   6.109   1.935
11768TIP3    H185772   5.154   6.070   1.994
11768TIP3    H285773   5.143   6.160   1.874
11769TIP3   OH285774   3.974   6.338   2.167
11769TIP3    H185775   4.040   6.284   2.214
11769TIP3    H285776   3.984   6.310   2.076
11770TIP3   OH285777   4.495   6.493   2.094
11770TIP3    H185778   4.559   6.436   2.139
11770TIP3    H285779   4.439   6.427   2.051
11771TIP3   OH285780   5.588   6.149   2.638
11771TIP3    H185781   5.528   6.226   2.631
11771TIP3    H285782   5.594   6.139   2.734
11772TIP3   OH285783   4.453   6.753   2.521
11772TIP3    H185784   4.382   6.817   2.542
11772TIP3    H285785   4.525   6.813   2.499
11773TIP3   OH285786   5.268   6.036   2.129
11773TIP3    H185787   5.249   5.952   2.175
11773TIP3    H285788   5.350   6.067   2.171
11774TIP3   OH285789   4.158   6.179   2.291
11774TIP3    H185790   4.223   6.239   2.335
11774TIP3    H285791   4.210   6.129   2.228
11775TIP3   OH285792   4.297   6.951   2.606
11775TIP3    H185793   4.296   7.042   2.570
11775TIP3    H285794   4.208   6.944   2.648
11776TIP3   OH285795   5.298   5.911   2.496
11776TIP3    H185796   5.226   5.975   2.493
11776TIP3    H285797   5.373   5.949   2.446
11777TIP3   OH285798   5.380   6.897   2.716
11777TIP3    H185799   5.392   6.836   2.640
11777TIP3    H285800   5.392   6.984   2.678
11778TIP3   OH285801   4.834   6.453   1.398
11778TIP3    H185802   4.905   6.455   1.464
11778TIP3    H285803   4.862   6.383   1.339
11779TIP3   OH285804   5.564   6.540   2.522
11779TIP3    H185805   5.498   6.612   2.529
11779TIP3    H285806   5.612   6.568   2.443
11780TIP3   OH285807   5.164   6.439   2.695
11780TIP3    H185808   5.165   6.517   2.752
11780TIP3    H285809   5.098   6.470   2.630
11781TIP3   OH285810   4.331   6.688   1.978
11781TIP3    H185811   4.302   6.652   1.891
11781TIP3    H285812   4.394   6.620   2.011
11782TIP3   OH285813   4.471   7.029   2.246
11782TIP3    H185814   4.459   6.972   2.170
11782TIP3    H285815   4.544   6.990   2.295
11783TIP3   OH285816   4.366   6.562   2.345
11783TIP3    H185817   4.421   6.574   2.266
11783TIP3    H285818   4.404   6.628   2.408
11784TIP3   OH285819   4.461   7.004   2.813
11784TIP3    H185820   4.421   7.078   2.862
11784TIP3    H285821   4.393   6.985   2.743
11785TIP3   OH285822   5.067   6.530   1.551
11785TIP3    H185823   5.111   6.556   1.633
11785TIP3    H285824   5.094   6.598   1.487
11786TIP3   OH285825   4.154   6.619   2.732
11786TIP3    H185826   4.159   6.688   2.801
11786TIP3    H285827   4.061   6.631   2.709
11787TIP3   OH285828   4.285   7.205   2.890
11787TIP3    H185829   4.280   7.199   2.793
11787TIP3    H285830   4.191   7.197   2.917
11788TIP3   OH285831   5.431   5.714   1.542
11788TIP3    H185832   5.338   5.724   1.571
11788TIP3    H285833   5.450   5.799   1.501
11789TIP3   OH285834   4.231   6.593   1.742
11789TIP3    H185835   4.206   6.668   1.685
11789TIP3    H285836   4.165   6.528   1.717
11790TIP3   OH285837   3.835   6.832   2.633
11790TIP3    H185838   3.797   6.826   2.544
11790TIP3    H285839   3.846   6.736   2.651
11791TIP3   OH285840   4.731   7.132   2.758
11791TIP3    H185841   4.742   7.212   2.814
11791TIP3    H285842   4.648   7.094   2.790
11792TIP3   OH285843   4.778   7.505   1.741
11792TIP3    H185844   4.767   7.499   1.647
11792TIP3    H285845   4.779   7.601   1.759
11793TIP3   OH285846   4.138   7.389   1.927
11793TIP3    H185847   4.156   7.348   2.012
11793TIP3    H285848   4.058   7.345   1.898
11794TIP3   OH285849   5.353   6.323   2.924
11794TIP3    H185850   5.306   6.368   2.852
11794TIP3    H285851   5.352   6.231   2.893
11795TIP3   OH285852   4.062   6.969   2.724
11795TIP3    H185853   4.087   6.928   2.810
11795TIP3    H285854   3.978   6.923   2.701
11796TIP3   OH285855   5.126   6.162   2.742
11796TIP3    H185856   5.074   6.142   2.824
11796TIP3    H285857   5.110   6.256   2.724
11797TIP3   OH285858   4.762   6.032   1.388
11797TIP3    H185859   4.731   6.029   1.481
11797TIP3    H285860   4.739   5.942   1.363
11798TIP3   OH285861   4.343   6.309   2.444
11798TIP3    H185862   4.270   6.307   2.508
11798TIP3    H285863   4.338   6.401   2.409
11799TIP3   OH285864   4.893   6.375   1.810
11799TIP3    H185865   4.851   6.453   1.773
11799TIP3    H285866   4.958   6.353   1.741
11800TIP3   OH285867   4.799   6.391   2.952
11800TIP3    H185868   4.746   6.313   2.982
11800TIP3    H285869   4.883   6.379   3.000
11801TIP3   OH285870   5.003   6.313   2.093
11801TIP3    H185871   4.968   6.372   2.023
11801TIP3    H285872   5.004   6.230   2.040
11802TIP3   OH285873   4.109   6.334   2.614
11802TIP3    H185874   4.113   6.376   2.701
11802TIP3    H285875   4.061   6.252   2.630
11803TIP3   OH285876   3.769   6.042   2.008
11803TIP3    H185877   3.836   6.048   2.076
11803TIP3    H285878   3.817   6.011   1.930
11804TIP3   OH285879   4.922   6.477   2.552
11804TIP3    H185880   4.952   6.412   2.487
11804TIP3    H285881   4.869   6.426   2.616
11805TIP3   OH285882   4.596   6.078   2.030
11805TIP3    H185883   4.504   6.075   2.058
11805TIP3    H285884   4.644   6.062   2.112
11806TIP3   OH285885   4.439   6.237   1.683
11806TIP3    H185886   4.534   6.245   1.698
11806TIP3    H285887   4.417   6.301   1.613
11807TIP3   OH285888   5.038   6.008   2.351
11807TIP3    H185889   4.972   6.003   2.425
11807TIP3    H285890   4.987   5.969   2.277
11808TIP3   OH285891   4.311   6.369   1.447
11808TIP3    H185892   4.257   6.324   1.380
11808TIP3    H285893   4.394   6.377   1.396
11809TIP3   OH285894   5.359   7.563   2.991
11809TIP3    H185895   5.387   7.601   2.906
11809TIP3    H285896   5.431   7.594   3.048
11810TIP3   OH285897   4.125   6.811   2.944
11810TIP3    H185898   4.196   6.833   3.007
11810TIP3    H285899   4.047   6.820   3.003
11811TIP3   OH285900   4.726   6.348   2.219
11811TIP3    H185901   4.784   6.293   2.167
11811TIP3    H285902   4.710   6.297   2.300
11812TIP3   OH285903   4.589   6.184   2.463
11812TIP3    H185904   4.508   6.238   2.472
11812TIP3    H285905   4.645   6.220   2.535
11813TIP3   OH285906   5.363   6.727   2.510
11813TIP3    H185907   5.421   6.773   2.447
11813TIP3    H285908   5.276   6.735   2.467
11814TIP3   OH285909   5.033   6.084   1.452
11814TIP3    H185910   4.939   6.100   1.432
11814TIP3    H285911   5.064   6.172   1.479
11815TIP3   OH285912   4.791   6.828   2.757
11815TIP3    H185913   4.761   6.791   2.839
11815TIP3    H285914   4.777   6.924   2.765
11816TIP3   OH285915   5.105   6.279   1.617
11816TIP3    H185916   5.195   6.265   1.653
11816TIP3    H285917   5.113   6.360   1.564
11817TIP3   OH285918   4.157   6.739   2.209
11817TIP3    H185919   4.230   6.736   2.145
11817TIP3    H285920   4.165   6.657   2.259
11818TIP3   OH285921   3.858   6.583   2.738
11818TIP3    H185922   3.874   6.541   2.824
11818TIP3    H285923   3.794   6.525   2.694
11819TIP3   OH285924   4.558   6.541   2.957
11819TIP3    H185925   4.528   6.513   2.869
11819TIP3    H285926   4.652   6.511   2.956
11820TIP3   OH285927   5.589   6.294   1.590
11820TIP3    H185928   5.538   6.261   1.515
11820TIP3    H285929   5.604   6.387   1.560
11821TIP3   OH285930   5.594   6.877   2.872
11821TIP3    H185931   5.506   6.900   2.836
11821TIP3    H285932   5.649   6.875   2.791
11822TIP3   OH285933   3.971   6.576   1.405
11822TIP3    H185934   4.032   6.639   1.446
11822TIP3    H285935   3.883   6.602   1.437
11823TIP3   OH285936   4.583   7.275   2.541
11823TIP3    H185937   4.627   7.358   2.515
11823TIP3    H285938   4.643   7.241   2.610
11824TIP3   OH285939   4.405   7.355   1.859
11824TIP3    H185940   4.309   7.368   1.869
11824TIP3    H285941   4.440   7.440   1.893
11825TIP3   OH285942   5.253   6.838   1.632
11825TIP3    H185943   5.223   6.773   1.696
11825TIP3    H285944   5.345   6.854   1.657
11826TIP3   OH285945   3.998   7.247   2.542
11826TIP3    H185946   4.011   7.150   2.537
11826TIP3    H285947   4.014   7.264   2.634
11827TIP3   OH285948   4.457   7.046   1.509
11827TIP3    H185949   4.483   6.990   1.582
11827TIP3    H285950   4.467   7.138   1.539
11828TIP3   OH285951   4.108   6.769   1.557
11828TIP3    H185952   4.043   6.810   1.614
11828TIP3    H285953   4.162   6.846   1.529
11829TIP3   OH285954   4.898   6.032   2.584
11829TIP3    H185955   4.964   6.042   2.655
11829TIP3    H285956   4.855   5.949   2.609
11830TIP3   OH285957   4.973   5.992   1.701
11830TIP3    H185958   4.991   6.040   1.617
11830TIP3    H285959   5.029   6.041   1.763
11831TIP3   OH285960   4.695   6.170   1.779
11831TIP3    H185961   4.772   6.228   1.783
11831TIP3    H285962   4.668   6.157   1.871
11832TIP3   OH285963   4.748   6.267   2.700
11832TIP3    H185964   4.756   6.325   2.778
11832TIP3    H285965   4.815   6.200   2.712
11833TIP3   OH285966   4.782   5.876   1.872
11833TIP3    H185967   4.747   5.941   1.934
11833TIP3    H285968   4.846   5.930   1.822
11834TIP3   OH285969   4.475   7.311   1.585
11834TIP3    H185970   4.489   7.392   1.530
11834TIP3    H285971   4.452   7.350   1.671
11835TIP3   OH285972   5.367   6.059   2.783
11835TIP3    H185973   5.274   6.090   2.771
11835TIP3    H285974   5.398   6.057   2.692
11836TIP3   OH285975   5.231   6.435   2.179
11836TIP3    H185976   5.143   6.398   2.159
11836TIP3    H285977   5.279   6.377   2.240
11837TIP3   OH285978   4.170   7.024   1.451
11837TIP3    H185979   4.229   7.098   1.472
11837TIP3    H285980   4.217   6.989   1.374
11838TIP3   OH285981   4.367   7.319   3.139
11838TIP3    H185982   4.447   7.275   3.168
11838TIP3    H285983   4.365   7.299   3.043
11839TIP3   OH285984   3.891   6.807   3.075
11839TIP3    H185985   3.908   6.717   3.041
11839TIP3    H285986   3.819   6.837   3.016
11840TIP3   OH285987   4.562   6.810   3.014
11840TIP3    H185988   4.528   6.840   2.927
11840TIP3    H285989   4.573   6.713   3.001
11841TIP3   OH285990   5.133   6.794   2.756
11841TIP3    H185991   5.210   6.853   2.743
11841TIP3    H285992   5.058   6.855   2.756
11842TIP3   OH285993   3.981   6.531   3.012
11842TIP3    H185994   4.024   6.445   3.004
11842TIP3    H285995   3.959   6.534   3.107
11843TIP3   OH285996   4.444   6.644   1.515
11843TIP3    H185997   4.400   6.594   1.583
11843TIP3    H285998   4.476   6.576   1.453
11844TIP3   OH285999   4.372   6.427   2.748
11844TIP3    H186000   4.314   6.500   2.776
11844TIP3    H286001   4.413   6.465   2.668
11845TIP3   OH286002   4.552   6.461   1.335
11845TIP3    H186003   4.544   6.453   1.239
11845TIP3    H286004   4.648   6.474   1.350
11846TIP3   OH286005   4.879   6.683   3.090
11846TIP3    H186006   4.974   6.681   3.070
11846TIP3    H286007   4.863   6.604   3.143
11847TIP3   OH286008   4.416   6.166   2.854
11847TIP3    H186009   4.424   6.093   2.790
11847TIP3    H286010   4.409   6.246   2.797
11848TIP3   OH286011   4.451   6.005   2.607
11848TIP3    H186012   4.505   6.050   2.538
11848TIP3    H286013   4.365   5.994   2.565
11849TIP3   OH286014   4.605   6.550   2.632
11849TIP3    H186015   4.683   6.535   2.577
11849TIP3    H286016   4.573   6.637   2.601
11850TIP3   OH286017   5.047   6.327   3.128
11850TIP3    H186018   5.071   6.233   3.126
11850TIP3    H286019   5.134   6.370   3.131
11851TIP3   OH286020   5.180   6.606   2.944
11851TIP3    H186021   5.155   6.679   2.883
11851TIP3    H286022   5.276   6.605   2.926
11852TIP3   OH286023   4.261   6.289   3.050
11852TIP3    H186024   4.182   6.233   3.030
11852TIP3    H286025   4.325   6.253   2.985
11853TIP3   OH286026   4.660   6.175   3.009
11853TIP3    H186027   4.628   6.157   3.099
11853TIP3    H286028   4.580   6.159   2.955
11854TIP3   OH286029   4.931   6.094   2.918
11854TIP3    H186030   4.835   6.098   2.931
11854TIP3    H286031   4.958   6.030   2.987
11855TIP3   OH286032   5.085   5.956   3.109
11855TIP3    H186033   5.086   5.859   3.113
11855TIP3    H286034   5.063   5.984   3.200
11856TIP3   OH286035   4.067   6.084   3.018
11856TIP3    H186036   4.090   6.008   2.961
11856TIP3    H286037   4.060   6.039   3.106
11857TIP3   OH286038   4.587   5.844   3.126
11857TIP3    H186039   4.573   5.799   3.041
11857TIP3    H286040   4.531   5.924   3.118
11858TIP3   OH286041   4.544   7.537   1.443
11858TIP3    H186042   4.638   7.555   1.451
11858TIP3    H286043   4.513   7.602   1.379
11859TIP3   OH286044   5.569   7.391   2.658
11859TIP3    H186045   5.520   7.315   2.626
11859TIP3    H286046   5.615   7.352   2.733
11860TIP3   OH286047   5.407   6.961   3.128
11860TIP3    H186048   5.319   6.956   3.171
11860TIP3    H286049   5.446   7.036   3.178
11861TIP3   OH286050   5.537   6.791   1.680
11861TIP3    H186051   5.626   6.832   1.693
11861TIP3    H286052   5.541   6.719   1.746
11862TIP3   OH286053   5.579   6.599   1.862
11862TIP3    H186054   5.503   6.549   1.900
11862TIP3    H286055   5.635   6.613   1.941
11863TIP3   OH286056   5.556   6.870   2.361
11863TIP3    H186057   5.637   6.833   2.324
11863TIP3    H286058   5.568   6.966   2.345
11864TIP3   OH286059   5.601   6.578   1.505
11864TIP3    H186060   5.552   6.618   1.433
11864TIP3    H286061   5.602   6.652   1.568
11865TIP3   OH286062   5.360   6.446   1.920
11865TIP3    H186063   5.342   6.352   1.916
11865TIP3    H286064   5.322   6.473   2.006
11866TIP3   OH286065   3.856   6.656   2.327
11866TIP3    H186066   3.877   6.647   2.231
11866TIP3    H286067   3.946   6.639   2.363
11867TIP3   OH286068   5.443   6.644   2.889
11867TIP3    H186069   5.504   6.569   2.904
11867TIP3    H286070   5.503   6.721   2.890
11868TIP3   OH286071   5.594   6.433   2.955
11868TIP3    H186072   5.506   6.392   2.939
11868TIP3    H286073   5.651   6.355   2.947
11869TIP3   OH286074   5.362   6.049   1.270
11869TIP3    H186075   5.427   6.009   1.332
11869TIP3    H286076   5.278   6.006   1.290
11870TIP3   OH286077   5.323   6.207   1.769
11870TIP3    H186078   5.355   6.114   1.778
11870TIP3    H286079   5.402   6.246   1.728
11871TIP3   OH286080   5.390   6.263   2.316
11871TIP3    H186081   5.488   6.284   2.311
11871TIP3    H286082   5.378   6.280   2.412
11872TIP3   OH286083   5.392   6.331   2.585
11872TIP3    H186084   5.306   6.362   2.623
11872TIP3    H286085   5.437   6.418   2.570
11873TIP3   OH286086   3.819   6.187   2.948
11873TIP3    H186087   3.913   6.164   2.962
11873TIP3    H286088   3.775   6.102   2.970
11874TIP3   OH286089   5.623   5.737   3.123
11874TIP3    H186090   5.657   5.670   3.062
11874TIP3    H286091   5.633   5.819   3.071
11875TIP3   OH286092   5.389   5.935   1.775
11875TIP3    H186093   5.414   5.887   1.857
11875TIP3    H286094   5.331   5.870   1.729
11876TIP3   OH286095   3.767   6.318   2.328
11876TIP3    H186096   3.826   6.292   2.254
11876TIP3    H286097   3.815   6.395   2.360
11877TIP3   OH286098   5.573   5.947   2.960
11877TIP3    H186099   5.479   5.974   2.956
11877TIP3    H286100   5.578   5.894   2.879
11878TIP3   OH286101   5.575   5.938   1.431
11878TIP3    H186102   5.614   5.867   1.377
11878TIP3    H286103   5.645   6.005   1.430
11879TIP3   OH286104   4.022   7.128   2.983
11879TIP3    H186105   3.938   7.149   2.943
11879TIP3    H286106   3.998   7.123   3.077
11880TIP3   OH286107   4.315   7.228   2.614
11880TIP3    H186108   4.279   7.313   2.583
11880TIP3    H286109   4.407   7.236   2.581
11881TIP3   OH286110   4.745   7.371   2.904
11881TIP3    H186111   4.757   7.335   2.995
11881TIP3    H286112   4.836   7.393   2.880
11882TIP3   OH286113   5.475   5.756   2.743
11882TIP3    H186114   5.393   5.786   2.701
11882TIP3    H286115   5.494   5.674   2.690
11883TIP3   OH286116   4.298   7.507   2.521
11883TIP3    H186117   4.212   7.524   2.560
11883TIP3    H286118   4.296   7.565   2.443
11884TIP3   OH286119   4.774   7.500   2.435
11884TIP3    H186120   4.726   7.556   2.372
11884TIP3    H286121   4.790   7.562   2.509
11885TIP3   OH286122   4.008   7.424   2.312
11885TIP3    H186123   3.991   7.368   2.390
11885TIP3    H286124   4.081   7.378   2.269
11886TIP3   OH286125   4.468   7.336   2.259
11886TIP3    H186126   4.483   7.244   2.233
11886TIP3    H286127   4.473   7.329   2.355
11887TIP3   OH286128   4.815   5.903   2.177
11887TIP3    H186129   4.749   5.836   2.196
11887TIP3    H286130   4.869   5.852   2.113
11888TIP3   OH286131   5.493   5.831   2.010
11888TIP3    H186132   5.560   5.772   1.967
11888TIP3    H286133   5.545   5.913   2.018
11889TIP3   OH286134   5.066   5.762   2.096
11889TIP3    H186135   5.068   5.767   2.001
11889TIP3    H286136   5.033   5.669   2.111
11890TIP3   OH286137   5.197   5.764   1.669
11890TIP3    H186138   5.120   5.820   1.649
11890TIP3    H286139   5.155   5.677   1.683
11891TIP3   OH286140   4.614   5.958   1.620
11891TIP3    H186141   4.637   5.898   1.692
11891TIP3    H286142   4.616   6.041   1.670
11892TIP3   OH286143   4.041   5.817   2.911
11892TIP3    H186144   4.002   5.734   2.944
11892TIP3    H286145   4.134   5.811   2.940
11893TIP3   OH286146   4.244   5.755   3.071
11893TIP3    H186147   4.330   5.719   3.040
11893TIP3    H286148   4.203   5.674   3.107
11894TIP3   OH286149   5.082   5.683   3.079
11894TIP3    H186150   5.092   5.636   3.164
11894TIP3    H286151   5.175   5.680   3.047
11895TIP3   OH286152   5.725   6.370   1.846
11895TIP3    H186153   5.681   6.457   1.843
11895TIP3    H286154   5.667   6.317   1.790
11896TIP3   OH286155   5.801   6.597   2.066
11896TIP3    H186156   5.819   6.509   2.103
11896TIP3    H286157   5.862   6.601   1.991
11897TIP3   OH286158   5.869   6.341   2.167
11897TIP3    H186159   5.929   6.279   2.209
11897TIP3    H286160   5.866   6.306   2.076
11898TIP3   OH286161   5.781   6.916   1.683
11898TIP3    H186162   5.771   6.946   1.592
11898TIP3    H286163   5.800   6.998   1.731
11899TIP3   OH286164   6.482   5.719   2.244
11899TIP3    H186165   6.471   5.622   2.237
11899TIP3    H286166   6.394   5.748   2.274
11900TIP3   OH286167   7.047   6.438   2.700
11900TIP3    H186168   7.049   6.516   2.754
11900TIP3    H286169   6.984   6.466   2.630
11901TIP3   OH286170   6.346   7.004   2.811
11901TIP3    H186171   6.308   7.080   2.860
11901TIP3    H286172   6.278   6.988   2.744
11902TIP3   OH286173   6.934   6.545   1.557
11902TIP3    H186174   6.996   6.555   1.630
11902TIP3    H286175   6.981   6.587   1.484
11903TIP3   OH286176   6.170   7.212   2.891
11903TIP3    H186177   6.166   7.200   2.794
11903TIP3    H286178   6.077   7.193   2.914
11904TIP3   OH286179   5.722   6.832   2.627
11904TIP3    H186180   5.678   6.824   2.541
11904TIP3    H286181   5.730   6.738   2.653
11905TIP3   OH286182   5.702   7.106   2.309
11905TIP3    H186183   5.798   7.095   2.304
11905TIP3    H286184   5.694   7.188   2.359
11906TIP3   OH286185   6.615   7.132   2.760
11906TIP3    H186186   6.630   7.213   2.812
11906TIP3    H286187   6.530   7.099   2.791
11907TIP3   OH286188   6.032   7.385   1.923
11907TIP3    H186189   6.042   7.355   2.015
11907TIP3    H286190   5.943   7.354   1.903
11908TIP3   OH286191   7.239   6.327   2.927
11908TIP3    H186192   7.190   6.365   2.852
11908TIP3    H286193   7.238   6.234   2.898
11909TIP3   OH286194   5.950   6.970   2.723
11909TIP3    H186195   5.976   6.926   2.808
11909TIP3    H286196   5.866   6.924   2.703
11910TIP3   OH286197   6.222   5.809   2.323
11910TIP3    H186198   6.132   5.796   2.284
11910TIP3    H286199   6.209   5.895   2.368
11911TIP3   OH286200   6.686   5.773   2.655
11911TIP3    H186201   6.723   5.735   2.736
11911TIP3    H286202   6.589   5.765   2.670
11912TIP3   OH286203   7.022   6.158   2.748
11912TIP3    H186204   6.959   6.142   2.822
11912TIP3    H286205   7.000   6.248   2.719
11913TIP3   OH286206   6.778   6.370   1.807
11913TIP3    H186207   6.737   6.451   1.776
11913TIP3    H286208   6.846   6.356   1.742
11914TIP3   OH286209   6.688   6.390   2.954
11914TIP3    H186210   6.632   6.314   2.983
11914TIP3    H286211   6.771   6.376   3.000
11915TIP3   OH286212   5.654   6.047   2.011
11915TIP3    H186213   5.725   6.042   2.079
11915TIP3    H286214   5.700   6.008   1.934
11916TIP3   OH286215   5.787   6.120   1.547
11916TIP3    H186216   5.830   6.181   1.487
11916TIP3    H286217   5.716   6.179   1.579
11917TIP3   OH286218   6.807   6.477   2.553
11917TIP3    H186219   6.832   6.412   2.487
11917TIP3    H286220   6.756   6.423   2.615
11918TIP3   OH286221   7.245   7.561   2.990
11918TIP3    H186222   7.271   7.601   2.905
11918TIP3    H286223   7.316   7.593   3.047
11919TIP3   OH286224   6.008   6.813   2.944
11919TIP3    H186225   6.082   6.831   3.005
11919TIP3    H286226   5.931   6.819   3.003
11920TIP3   OH286227   7.244   6.727   2.512
11920TIP3    H186228   7.309   6.765   2.452
11920TIP3    H286229   7.161   6.734   2.464
11921TIP3   OH286230   6.681   6.828   2.759
11921TIP3    H186231   6.646   6.792   2.840
11921TIP3    H286232   6.664   6.924   2.761
11922TIP3   OH286233   5.741   6.588   2.739
11922TIP3    H186234   5.765   6.543   2.823
11922TIP3    H286235   5.681   6.524   2.696
11923TIP3   OH286236   6.282   7.092   1.956
11923TIP3    H186237   6.330   7.170   1.926
11923TIP3    H286238   6.195   7.111   1.917
11924TIP3   OH286239   6.415   6.856   1.909
11924TIP3    H186240   6.391   6.950   1.914
11924TIP3    H286241   6.342   6.812   1.950
11925TIP3   OH286242   6.465   7.277   2.542
11925TIP3    H186243   6.516   7.354   2.513
11925TIP3    H286244   6.528   7.238   2.606
11926TIP3   OH286245   6.295   7.359   1.856
11926TIP3    H186246   6.197   7.371   1.867
11926TIP3    H286247   6.326   7.444   1.892
11927TIP3   OH286248   5.908   6.059   2.696
11927TIP3    H186249   5.818   6.095   2.691
11927TIP3    H286250   5.895   5.972   2.735
11928TIP3   OH286251   5.866   7.235   2.539
11928TIP3    H186252   5.899   7.145   2.539
11928TIP3    H286253   5.900   7.268   2.622
11929TIP3   OH286254   6.343   7.045   1.504
11929TIP3    H186255   6.367   6.992   1.581
11929TIP3    H286256   6.352   7.136   1.539
11930TIP3   OH286257   6.780   6.042   2.594
11930TIP3    H186258   6.857   6.043   2.651
11930TIP3    H286259   6.746   5.951   2.603
11931TIP3   OH286260   6.855   6.001   1.696
11931TIP3    H186261   6.879   6.043   1.613
11931TIP3    H286262   6.916   6.041   1.758
11932TIP3   OH286263   6.630   6.271   2.701
11932TIP3    H186264   6.646   6.326   2.780
11932TIP3    H286265   6.698   6.201   2.704
11933TIP3   OH286266   6.672   5.877   1.877
11933TIP3    H186267   6.635   5.944   1.937
11933TIP3    H286268   6.734   5.929   1.822
11934TIP3   OH286269   6.356   7.317   1.577
11934TIP3    H186270   6.377   7.400   1.530
11934TIP3    H286271   6.340   7.346   1.669
11935TIP3   OH286272   6.054   7.032   1.446
11935TIP3    H186273   6.119   7.097   1.474
11935TIP3    H286274   6.099   6.984   1.377
11936TIP3   OH286275   5.972   5.776   2.232
11936TIP3    H186276   5.949   5.778   2.136
11936TIP3    H286277   5.925   5.693   2.258
11937TIP3   OH286278   5.865   7.168   1.847
11937TIP3    H186279   5.781   7.214   1.842
11937TIP3    H286280   5.914   7.214   1.776
11938TIP3   OH286281   5.787   7.434   2.978
11938TIP3    H186282   5.847   7.413   3.052
11938TIP3    H286283   5.748   7.348   2.960
11939TIP3   OH286284   6.253   7.324   3.137
11939TIP3    H186285   6.330   7.275   3.168
11939TIP3    H286286   6.250   7.297   3.043
11940TIP3   OH286287   6.897   7.167   3.014
11940TIP3    H186288   6.874   7.074   3.029
11940TIP3    H286289   6.981   7.174   3.064
11941TIP3   OH286290   5.775   6.806   3.075
11941TIP3    H186291   5.796   6.718   3.039
11941TIP3    H286292   5.703   6.835   3.015
11942TIP3   OH286293   6.443   6.808   3.014
11942TIP3    H186294   6.414   6.840   2.926
11942TIP3    H286295   6.463   6.714   3.002
11943TIP3   OH286296   5.869   6.533   3.012
11943TIP3    H186297   5.910   6.446   3.001
11943TIP3    H286298   5.846   6.534   3.107
11944TIP3   OH286299   6.765   6.682   3.088
11944TIP3    H186300   6.860   6.681   3.072
11944TIP3    H286301   6.749   6.604   3.143
11945TIP3   OH286302   6.300   6.165   2.855
11945TIP3    H186303   6.310   6.092   2.792
11945TIP3    H286304   6.296   6.245   2.800
11946TIP3   OH286305   6.932   6.327   3.127
11946TIP3    H186306   6.956   6.233   3.120
11946TIP3    H286307   7.019   6.369   3.132
11947TIP3   OH286308   7.069   6.610   2.944
11947TIP3    H186309   7.038   6.680   2.885
11947TIP3    H286310   7.162   6.601   2.923
11948TIP3   OH286311   6.148   6.283   3.056
11948TIP3    H186312   6.067   6.235   3.028
11948TIP3    H286313   6.208   6.255   2.984
11949TIP3   OH286314   6.415   5.749   2.650
11949TIP3    H186315   6.403   5.843   2.634
11949TIP3    H286316   6.342   5.710   2.598
11950TIP3   OH286317   6.545   6.179   3.010
11950TIP3    H186318   6.514   6.158   3.100
11950TIP3    H286319   6.466   6.161   2.957
11951TIP3   OH286320   6.815   6.092   2.913
11951TIP3    H186321   6.720   6.097   2.931
11951TIP3    H286322   6.846   6.031   2.982
11952TIP3   OH286323   6.973   5.956   3.110
11952TIP3    H186324   6.969   5.859   3.114
11952TIP3    H286325   6.948   5.985   3.202
11953TIP3   OH286326   5.954   6.083   3.019
11953TIP3    H186327   5.978   6.009   2.960
11953TIP3    H286328   5.946   6.039   3.106
11954TIP3   OH286329   6.439   5.685   2.918
11954TIP3    H186330   6.507   5.615   2.916
11954TIP3    H286331   6.429   5.701   2.822
11955TIP3   OH286332   6.475   5.847   3.126
11955TIP3    H186333   6.458   5.796   3.044
11955TIP3    H286334   6.415   5.924   3.117
11956TIP3   OH286335   6.427   7.533   1.439
11956TIP3    H186336   6.521   7.552   1.454
11956TIP3    H286337   6.403   7.603   1.376
11957TIP3   OH286338   5.656   7.534   1.888
11957TIP3    H186339   5.586   7.488   1.841
11957TIP3    H286340   5.684   7.469   1.956
11958TIP3   OH286341   5.737   7.348   2.077
11958TIP3    H186342   5.702   7.260   2.096
11958TIP3    H286343   5.759   7.380   2.165
11959TIP3   OH286344   7.296   6.956   3.133
11959TIP3    H186345   7.205   6.957   3.169
11959TIP3    H286346   7.330   7.038   3.176
11960TIP3   OH286347   5.747   6.652   2.326
11960TIP3    H186348   5.761   6.647   2.229
11960TIP3    H286349   5.835   6.643   2.362
11961TIP3   OH286350   7.482   6.437   2.955
11961TIP3    H186351   7.394   6.397   2.938
11961TIP3    H286352   7.536   6.355   2.946
11962TIP3   OH286353   5.704   6.187   2.946
11962TIP3    H186354   5.799   6.167   2.961
11962TIP3    H286355   5.661   6.103   2.971
11963TIP3   OH286356   7.513   5.738   3.123
11963TIP3    H186357   7.541   5.670   3.060
11963TIP3    H286358   7.518   5.818   3.071
11964TIP3   OH286359   5.825   6.014   2.227
11964TIP3    H186360   5.870   5.931   2.251
11964TIP3    H286361   5.877   6.080   2.270
11965TIP3   OH286362   5.654   6.312   2.329
11965TIP3    H186363   5.711   6.289   2.253
11965TIP3    H286364   5.694   6.395   2.357
11966TIP3   OH286365   5.693   5.945   1.736
11966TIP3    H186366   5.597   5.958   1.725
11966TIP3    H286367   5.732   5.993   1.662
11967TIP3   OH286368   7.169   7.438   1.934
11967TIP3    H186369   7.235   7.406   1.869
11967TIP3    H286370   7.220   7.487   1.999
11968TIP3   OH286371   5.685   5.807   2.569
11968TIP3    H186372   5.619   5.786   2.637
11968TIP3    H286373   5.638   5.871   2.514
11969TIP3   OH286374   5.909   7.131   2.986
11969TIP3    H186375   5.825   7.142   2.941
11969TIP3    H286376   5.882   7.121   3.079
11970TIP3   OH286377   6.201   7.225   2.615
11970TIP3    H186378   6.164   7.309   2.585
11970TIP3    H286379   6.292   7.234   2.581
11971TIP3   OH286380   6.630   7.371   2.905
11971TIP3    H186381   6.647   7.332   2.994
11971TIP3    H286382   6.720   7.397   2.876
11972TIP3   OH286383   6.862   7.495   2.832
11972TIP3    H186384   6.932   7.433   2.807
11972TIP3    H286385   6.900   7.537   2.912
11973TIP3   OH286386   6.190   7.508   2.520
11973TIP3    H186387   6.102   7.522   2.558
11973TIP3    H286388   6.177   7.562   2.442
11974TIP3   OH286389   6.659   7.497   2.440
11974TIP3    H186390   6.615   7.553   2.373
11974TIP3    H286391   6.677   7.563   2.510
11975TIP3   OH286392   6.892   7.386   2.537
11975TIP3    H186393   6.803   7.404   2.502
11975TIP3    H286394   6.933   7.473   2.532
11976TIP3   OH286395   7.145   7.542   2.558
11976TIP3    H186396   7.138   7.638   2.538
11976TIP3    H286397   7.166   7.507   2.471
11977TIP3   OH286398   6.094   7.285   2.172
11977TIP3    H186399   6.077   7.193   2.195
11977TIP3    H286400   6.178   7.303   2.219
11978TIP3   OH286401   6.350   7.338   2.261
11978TIP3    H186402   6.373   7.248   2.231
11978TIP3    H286403   6.361   7.328   2.357
11979TIP3   OH286404   6.703   5.888   2.172
11979TIP3    H186405   6.631   5.830   2.200
11979TIP3    H286406   6.760   5.837   2.114
11980TIP3   OH286407   5.935   5.762   1.958
11980TIP3    H186408   5.857   5.741   1.905
11980TIP3    H286409   5.986   5.679   1.951
11981TIP3   OH286410   5.813   5.741   1.526
11981TIP3    H186411   5.862   5.806   1.476
11981TIP3    H286412   5.756   5.791   1.586
11982TIP3   OH286413   6.386   5.738   1.944
11982TIP3    H186414   6.470   5.787   1.931
11982TIP3    H286415   6.379   5.735   2.038
11983TIP3   OH286416   6.950   5.758   2.099
11983TIP3    H186417   6.954   5.764   2.004
11983TIP3    H286418   6.919   5.666   2.112
11984TIP3   OH286419   5.810   7.338   1.629
11984TIP3    H186420   5.740   7.329   1.561
11984TIP3    H286421   5.807   7.431   1.652
11985TIP3   OH286422   7.358   7.414   1.738
11985TIP3    H186423   7.347   7.342   1.675
11985TIP3    H286424   7.363   7.489   1.673
11986TIP3   OH286425   5.927   5.817   2.904
11986TIP3    H186426   5.889   5.737   2.944
11986TIP3    H286427   6.018   5.814   2.940
11987TIP3   OH286428   6.127   5.755   3.068
11987TIP3    H186429   6.215   5.720   3.043
11987TIP3    H286430   6.089   5.675   3.108
11988TIP3   OH286431   5.987   7.427   1.332
11988TIP3    H186432   5.963   7.458   1.419
11988TIP3    H286433   6.065   7.374   1.345
11989TIP3   OH286434   6.968   5.683   3.080
11989TIP3    H186435   6.977   5.637   3.166
11989TIP3    H286436   7.058   5.681   3.047
11990TIP3   OH286437   7.858   6.567   2.448
11990TIP3    H186438   7.862   6.499   2.519
11990TIP3    H286439   7.927   6.630   2.472
11991TIP3   OH286440   7.940   7.010   2.304
11991TIP3    H186441   7.912   6.924   2.268
11991TIP3    H286442   8.037   6.997   2.311
11992TIP3   OH286443   8.036   6.111   2.114
11992TIP3    H186444   8.087   6.181   2.065
11992TIP3    H286445   8.041   6.044   2.046
11993TIP3   OH286446   7.750   6.336   2.170
11993TIP3    H186447   7.817   6.281   2.213
11993TIP3    H286448   7.755   6.308   2.079
11994TIP3   OH286449   7.967   5.982   2.500
11994TIP3    H186450   7.948   6.043   2.425
11994TIP3    H286451   7.903   6.013   2.567
11995TIP3   OH286452   7.923   6.177   2.326
11995TIP3    H186453   7.991   6.246   2.336
11995TIP3    H286454   7.967   6.136   2.246
11996TIP3   OH286455   8.048   6.963   2.585
11996TIP3    H186456   8.059   7.059   2.576
11996TIP3    H286457   7.973   6.958   2.647
11997TIP3   OH286458   7.687   6.919   1.683
11997TIP3    H186459   7.652   6.946   1.596
11997TIP3    H286460   7.686   7.003   1.733
11998TIP3   OH286461   8.091   6.678   1.995
11998TIP3    H186462   8.070   6.652   1.902
11998TIP3    H286463   8.163   6.617   2.014
11999TIP3   OH286464   7.920   6.621   2.736
11999TIP3    H186465   7.932   6.693   2.799
11999TIP3    H286466   7.830   6.634   2.704
12000TIP3   OH286467   8.054   7.213   2.890
12000TIP3    H186468   8.050   7.189   2.796
12000TIP3    H286469   7.962   7.196   2.916
12001TIP3   OH286470   8.003   6.591   1.742
12001TIP3    H186471   7.976   6.668   1.688
12001TIP3    H286472   7.935   6.528   1.719
12002TIP3   OH286473   7.609   6.832   2.629
12002TIP3    H186474   7.567   6.829   2.542
12002TIP3    H286475   7.614   6.737   2.646
12003TIP3   OH286476   7.914   7.391   1.927
12003TIP3    H186477   7.929   7.349   2.015
12003TIP3    H286478   7.829   7.349   1.903
12004TIP3   OH286479   7.832   6.967   2.732
12004TIP3    H186480   7.859   6.925   2.814
12004TIP3    H286481   7.751   6.923   2.700
12005TIP3   OH286482   8.101   5.808   2.322
12005TIP3    H186483   8.014   5.804   2.277
12005TIP3    H286484   8.097   5.896   2.364
12006TIP3   OH286485   8.110   6.323   2.512
12006TIP3    H186486   8.016   6.300   2.522
12006TIP3    H286487   8.102   6.376   2.431
12007TIP3   OH286488   8.084   6.307   1.957
12007TIP3    H186489   7.995   6.289   1.921
12007TIP3    H286490   8.145   6.281   1.887
12008TIP3   OH286491   7.871   6.340   2.620
12008TIP3    H186492   7.882   6.374   2.709
12008TIP3    H286493   7.837   6.250   2.632
12009TIP3   OH286494   7.845   6.233   1.911
12009TIP3    H186495   7.754   6.237   1.881
12009TIP3    H286496   7.876   6.144   1.884
12010TIP3   OH286497   8.084   6.341   1.440
12010TIP3    H186498   8.027   6.320   1.364
12010TIP3    H286499   8.163   6.374   1.395
12011TIP3   OH286500   7.893   6.801   2.952
12011TIP3    H186501   7.969   6.836   3.003
12011TIP3    H286502   7.822   6.840   3.007
12012TIP3   OH286503   7.971   5.964   1.854
12012TIP3    H186504   7.957   5.869   1.870
12012TIP3    H286505   8.067   5.964   1.838
12013TIP3   OH286506   7.937   6.746   2.215
12013TIP3    H186507   7.998   6.734   2.139
12013TIP3    H286508   7.932   6.657   2.255
12014TIP3   OH286509   7.625   6.587   2.745
12014TIP3    H186510   7.646   6.526   2.816
12014TIP3    H286511   7.567   6.528   2.692
12015TIP3   OH286512   7.792   6.057   2.692
12015TIP3    H186513   7.703   6.096   2.695
12015TIP3    H286514   7.782   5.975   2.743
12016TIP3   OH286515   7.885   6.767   1.560
12016TIP3    H186516   7.811   6.805   1.611
12016TIP3    H286517   7.932   6.847   1.535
12017TIP3   OH286518  -0.048   5.982   1.523
12017TIP3    H186519  -0.042   6.070   1.562
12017TIP3    H286520   0.044   5.954   1.540
12018TIP3   OH286521   7.940   7.032   1.438
12018TIP3    H186522   8.002   7.094   1.479
12018TIP3    H286523   7.998   6.985   1.380
12019TIP3   OH286524   7.852   5.774   2.229
12019TIP3    H186525   7.837   5.779   2.131
12019TIP3    H286526   7.814   5.689   2.254
12020TIP3   OH286527   7.750   7.168   1.845
12020TIP3    H186528   7.666   7.215   1.840
12020TIP3    H286529   7.801   7.216   1.778
12021TIP3   OH286530   7.672   7.432   2.976
12021TIP3    H186531   7.731   7.411   3.051
12021TIP3    H286532   7.629   7.347   2.960
12022TIP3   OH286533   7.659   6.845   3.069
12022TIP3    H186534   7.670   6.751   3.091
12022TIP3    H286535   7.576   6.857   3.020
12023TIP3   OH286536   7.762   6.483   3.016
12023TIP3    H186537   7.814   6.401   3.018
12023TIP3    H286538   7.739   6.500   3.110
12024TIP3   OH286539   8.022   6.297   3.052
12024TIP3    H186540   7.952   6.233   3.030
12024TIP3    H286541   8.092   6.260   2.993
12025TIP3   OH286542   7.845   6.084   3.019
12025TIP3    H186543   7.862   6.008   2.961
12025TIP3    H286544   7.833   6.039   3.106
12026TIP3   OH286545   7.676   6.992   1.399
12026TIP3    H186546   7.770   7.008   1.416
12026TIP3    H286547   7.672   6.934   1.323
12027TIP3   OH286548   7.545   7.537   1.892
12027TIP3    H186549   7.476   7.491   1.839
12027TIP3    H286550   7.569   7.466   1.956
12028TIP3   OH286551   7.623   7.351   2.066
12028TIP3    H186552   7.594   7.261   2.088
12028TIP3    H286553   7.650   7.381   2.156
12029TIP3   OH286554   7.626   6.653   2.323
12029TIP3    H186555   7.648   6.644   2.230
12029TIP3    H286556   7.713   6.637   2.362
12030TIP3   OH286557   7.596   6.185   2.940
12030TIP3    H186558   7.688   6.164   2.963
12030TIP3    H286559   7.546   6.106   2.970
12031TIP3   OH286560   7.710   6.011   2.230
12031TIP3    H186561   7.765   5.934   2.249
12031TIP3    H286562   7.763   6.085   2.265
12032TIP3   OH286563   7.790   7.125   2.987
12032TIP3    H186564   7.707   7.144   2.942
12032TIP3    H286565   7.765   7.123   3.080
12033TIP3   OH286566   8.089   7.222   2.619
12033TIP3    H186567   8.049   7.306   2.585
12033TIP3    H286568   8.179   7.235   2.583
12034TIP3   OH286569   7.788   7.514   2.563
12034TIP3    H186570   7.746   7.601   2.549
12034TIP3    H286571   7.788   7.513   2.660
12035TIP3   OH286572   8.048   7.442   2.508
12035TIP3    H186573   7.980   7.492   2.560
12035TIP3    H286574   8.054   7.518   2.447
12036TIP3   OH286575   7.766   7.408   2.299
12036TIP3    H186576   7.765   7.378   2.392
12036TIP3    H286577   7.855   7.382   2.269
12037TIP3   OH286578   7.978   7.280   2.170
12037TIP3    H186579   7.960   7.189   2.198
12037TIP3    H286580   8.059   7.303   2.218
12038TIP3   OH286581   7.820   5.761   1.958
12038TIP3    H186582   7.745   5.739   1.903
12038TIP3    H286583   7.873   5.678   1.953
12039TIP3   OH286584   7.674   7.324   1.638
12039TIP3    H186585   7.626   7.335   1.554
12039TIP3    H286586   7.695   7.419   1.650
12040TIP3   OH286587   7.883   5.936   1.380
12040TIP3    H186588   7.932   5.874   1.325
12040TIP3    H286589   7.953   5.962   1.443
12041TIP3   OH286590   7.812   5.815   2.900
12041TIP3    H186591   7.776   5.737   2.946
12041TIP3    H286592   7.903   5.813   2.938
12042TIP3   OH286593   8.013   5.753   3.063
12042TIP3    H186594   8.101   5.719   3.041
12042TIP3    H286595   7.973   5.676   3.108
12043TIP3   OH286596   7.894   7.335   1.269
12043TIP3    H186597   7.833   7.378   1.337
12043TIP3    H286598   7.967   7.358   1.325
12044TIP3   OH286599   0.546   7.986   2.095
12044TIP3    H186600   0.556   8.068   2.045
12044TIP3    H286601   0.503   7.929   2.028
12045TIP3   OH286602   1.277   7.933   2.016
12045TIP3    H186603   1.374   7.938   2.036
12045TIP3    H286604   1.291   8.000   1.945
12046TIP3   OH286605   1.820   8.035   2.644
12046TIP3    H186606   1.757   8.107   2.638
12046TIP3    H286607   1.824   8.022   2.739
12047TIP3   OH286608   0.429   7.869   2.498
12047TIP3    H186609   0.405   7.928   2.424
12047TIP3    H286610   0.365   7.897   2.566
12048TIP3   OH286611   1.507   7.895   2.125
12048TIP3    H186612   1.464   7.838   2.188
12048TIP3    H286613   1.555   7.960   2.177
12049TIP3   OH286614   0.400   8.048   2.317
12049TIP3    H186615   0.446   8.132   2.329
12049TIP3    H286616   0.438   8.018   2.231
12050TIP3   OH286617   1.530   7.789   2.502
12050TIP3    H186618   1.456   7.852   2.494
12050TIP3    H286619   1.599   7.837   2.454
12051TIP3   OH286620   0.825   7.608   2.246
12051TIP3    H186621   0.811   7.512   2.238
12051TIP3    H286622   0.737   7.639   2.274
12052TIP3   OH286623   1.657   7.602   1.542
12052TIP3    H186624   1.563   7.611   1.568
12052TIP3    H286625   1.680   7.686   1.503
12053TIP3   OH286626   0.569   7.697   2.324
12053TIP3    H186627   0.479   7.684   2.284
12053TIP3    H286628   0.554   7.782   2.367
12054TIP3   OH286629   1.027   7.665   2.657
12054TIP3    H186630   1.067   7.621   2.734
12054TIP3    H286631   0.930   7.650   2.670
12055TIP3   OH286632   1.354   8.046   2.745
12055TIP3    H186633   1.302   8.028   2.827
12055TIP3    H286634   1.331   8.137   2.724
12056TIP3   OH286635   0.980   7.917   1.392
12056TIP3    H186636   0.957   7.913   1.487
12056TIP3    H286637   0.963   7.829   1.361
12057TIP3   OH286638   0.122   7.938   1.953
12057TIP3    H186639   0.092   7.926   2.047
12057TIP3    H286640   0.052   7.877   1.917
12058TIP3   OH286641   0.164   8.013   1.574
12058TIP3    H186642   0.192   8.064   1.494
12058TIP3    H286643   0.082   8.065   1.579
12059TIP3   OH286644   0.827   7.960   2.032
12059TIP3    H186645   0.733   7.962   2.060
12059TIP3    H286646   0.877   7.949   2.114
12060TIP3   OH286647   0.323   8.069   1.902
12060TIP3    H186648   0.234   8.098   1.873
12060TIP3    H286649   0.348   8.003   1.839
12061TIP3   OH286650   0.671  -0.030   1.670
12061TIP3    H186651   0.760  -0.010   1.705
12061TIP3    H286652   0.650   0.046   1.616
12062TIP3   OH286653   1.266   7.876   2.357
12062TIP3    H186654   1.196   7.892   2.424
12062TIP3    H286655   1.213   7.862   2.276
12063TIP3   OH286656   0.467   7.846   1.862
12063TIP3    H186657   0.444   7.752   1.857
12063TIP3    H286658   0.545   7.849   1.807
12064TIP3   OH286659   0.815   8.057   2.461
12064TIP3    H186660   0.743   8.120   2.468
12064TIP3    H286661   0.873   8.099   2.527
12065TIP3   OH286662   1.258   7.961   1.499
12065TIP3    H186663   1.178   7.976   1.445
12065TIP3    H286664   1.303   8.046   1.482
12066TIP3   OH286665   0.271   7.956   2.701
12066TIP3    H186666   0.177   7.985   2.694
12066TIP3    H286667   0.265   7.867   2.740
12067TIP3   OH286668   1.122   7.923   2.586
12067TIP3    H186669   1.193   7.927   2.651
12067TIP3    H286670   1.085   7.834   2.607
12068TIP3   OH286671   1.152   7.894   1.709
12068TIP3    H186672   1.200   7.914   1.625
12068TIP3    H286673   1.235   7.915   1.752
12069TIP3   OH286674   0.924   8.058   1.777
12069TIP3    H186675   1.000   8.118   1.785
12069TIP3    H286676   0.895   8.044   1.870
12070TIP3   OH286677   0.957  -0.053   2.744
12070TIP3    H186678   0.967   0.041   2.770
12070TIP3    H286679   1.042  -0.072   2.702
12071TIP3   OH286680   1.005   7.760   1.875
12071TIP3    H186681   0.976   7.828   1.939
12071TIP3    H286682   1.070   7.814   1.822
12072TIP3   OH286683   0.578   7.872   1.543
12072TIP3    H186684   0.569   7.962   1.578
12072TIP3    H286685   0.670   7.848   1.565
12073TIP3   OH286686   1.598   7.944   2.782
12073TIP3    H186687   1.504   7.973   2.772
12073TIP3    H286688   1.627   7.944   2.690
12074TIP3   OH286689   0.343   7.659   2.221
12074TIP3    H186690   0.301   7.661   2.133
12074TIP3    H286691   0.285   7.589   2.258
12075TIP3   OH286692   0.601   8.038   2.846
12075TIP3    H186693   0.650   7.973   2.792
12075TIP3    H286694   0.635   8.121   2.809
12076TIP3   OH286695   0.679   7.890   2.609
12076TIP3    H186696   0.735   7.933   2.540
12076TIP3    H286697   0.592   7.880   2.565
12077TIP3   OH286698   0.761   7.635   2.650
12077TIP3    H186699   0.741   7.730   2.639
12077TIP3    H286700   0.687   7.597   2.599
12078TIP3   OH286701   0.904   8.022   3.023
12078TIP3    H186702   0.868   8.040   3.112
12078TIP3    H286703   0.822   8.032   2.974
12079TIP3   OH286704   1.162   7.976   2.914
12079TIP3    H186705   1.066   7.983   2.933
12079TIP3    H286706   1.191   7.920   2.987
12080TIP3   OH286707   1.318   7.842   3.112
12080TIP3    H186708   1.311   7.744   3.114
12080TIP3    H286709   1.293   7.871   3.203
12081TIP3   OH286710   0.305   7.973   3.025
12081TIP3    H186711   0.321   7.898   2.963
12081TIP3    H286712   0.289   7.920   3.106
12082TIP3   OH286713   0.782   7.570   2.918
12082TIP3    H186714   0.850   7.500   2.917
12082TIP3    H286715   0.773   7.587   2.822
12083TIP3   OH286716   0.814   7.729   3.130
12083TIP3    H186717   0.802   7.683   3.044
12083TIP3    H286718   0.762   7.811   3.117
12084TIP3   OH286719   1.551   7.929   1.345
12084TIP3    H186720   1.642   7.895   1.338
12084TIP3    H286721   1.500   7.874   1.287
12085TIP3   OH286722   1.703   8.186   1.670
12085TIP3    H186723   1.644   8.165   1.748
12085TIP3    H286724   1.712   8.094   1.684
12086TIP3   OH286725   1.704   0.158   2.375
12086TIP3    H186726   1.726   0.092   2.305
12086TIP3    H286727   1.626   0.098   2.393
12087TIP3   OH286728   0.049   8.069   2.943
12087TIP3    H186729   0.142   8.044   2.956
12087TIP3    H286730   0.003   7.989   2.972
12088TIP3   OH286731   1.849   7.622   3.122
12088TIP3    H186732   1.886   7.554   3.064
12088TIP3    H286733   1.861   7.706   3.073
12089TIP3   OH286734   1.587   7.700   1.820
12089TIP3    H186735   1.640   7.769   1.864
12089TIP3    H286736   1.557   7.746   1.740
12090TIP3   OH286737   0.239   7.910   2.185
12090TIP3    H186738   0.227   7.829   2.239
12090TIP3    H286739   0.226   7.974   2.257
12091TIP3   OH286740   1.800   7.832   2.957
12091TIP3    H186741   1.706   7.862   2.957
12091TIP3    H286742   1.804   7.779   2.877
12092TIP3   OH286743   1.801   7.828   1.418
12092TIP3    H186744   1.848   7.754   1.378
12092TIP3    H286745   1.875   7.889   1.439
12093TIP3   OH286746   0.075   7.825   1.748
12093TIP3    H186747  -0.021   7.834   1.722
12093TIP3    H286748   0.101   7.881   1.672
12094TIP3   OH286749   8.170   7.590   2.666
12094TIP3    H186750   8.101   7.651   2.697
12094TIP3    H286751   8.154   7.648   2.588
12095TIP3   OH286752   1.037   7.784   2.168
12095TIP3    H186753   0.975   7.717   2.201
12095TIP3    H286754   1.101   7.732   2.117
12096TIP3   OH286755   1.733   7.708   2.023
12096TIP3    H186756   1.791   7.657   1.965
12096TIP3    H286757   1.776   7.795   2.022
12097TIP3   OH286758   0.274   7.621   1.971
12097TIP3    H186759   0.197   7.604   1.912
12097TIP3    H286760   0.332   7.543   1.952
12098TIP3   OH286761   0.174   7.622   1.548
12098TIP3    H186762   0.204   7.684   1.476
12098TIP3    H286763   0.099   7.674   1.580
12099TIP3   OH286764   0.727   7.645   1.938
12099TIP3    H186765   0.820   7.674   1.929
12099TIP3    H286766   0.726   7.619   2.030
12100TIP3   OH286767   1.288   7.642   2.098
12100TIP3    H186768   1.298   7.651   2.003
12100TIP3    H286769   1.261   7.549   2.112
12101TIP3   OH286770   1.411   7.636   1.638
12101TIP3    H186771   1.350   7.708   1.653
12101TIP3    H286772   1.378   7.558   1.688
12102TIP3   OH286773   0.360   7.818   1.387
12102TIP3    H186774   0.399   7.758   1.324
12102TIP3    H286775   0.426   7.852   1.446
12103TIP3   OH286776   0.845   7.844   1.623
12103TIP3    H186777   0.871   7.785   1.696
12103TIP3    H286778   0.847   7.930   1.671
12104TIP3   OH286779   0.264   7.708   2.909
12104TIP3    H186780   0.231   7.622   2.942
12104TIP3    H286781   0.358   7.698   2.940
12105TIP3   OH286782   0.471   7.641   3.065
12105TIP3    H186783   0.559   7.605   3.043
12105TIP3    H286784   0.431   7.562   3.108
12106TIP3   OH286785   1.311   7.570   3.080
12106TIP3    H186786   1.320   7.522   3.165
12106TIP3    H286787   1.402   7.567   3.047
12107TIP3   OH286788   2.427   7.985   2.096
12107TIP3    H186789   2.439   8.067   2.046
12107TIP3    H286790   2.389   7.928   2.026
12108TIP3   OH286791   3.199   7.992   1.928
12108TIP3    H186792   3.264   7.964   1.997
12108TIP3    H286793   3.260   8.048   1.877
12109TIP3   OH286794   3.708   8.027   2.641
12109TIP3    H186795   3.651   8.100   2.618
12109TIP3    H286796   3.707   8.024   2.738
12110TIP3   OH286797   2.317   7.871   2.499
12110TIP3    H186798   2.288   7.928   2.424
12110TIP3    H286799   2.248   7.898   2.565
12111TIP3   OH286800   3.384   7.918   2.126
12111TIP3    H186801   3.353   7.850   2.186
12111TIP3    H286802   3.440   7.973   2.182
12112TIP3   OH286803   2.282   8.045   2.308
12112TIP3    H186804   2.331   8.127   2.328
12112TIP3    H286805   2.329   8.016   2.226
12113TIP3   OH286806   2.716   7.608   2.244
12113TIP3    H186807   2.703   7.513   2.240
12113TIP3    H286808   2.629   7.639   2.275
12114TIP3   OH286809   2.451   7.698   2.322
12114TIP3    H186810   2.361   7.685   2.284
12114TIP3    H286811   2.436   7.782   2.368
12115TIP3   OH286812   2.915   7.666   2.658
12115TIP3    H186813   2.953   7.620   2.735
12115TIP3    H286814   2.818   7.650   2.670
12116TIP3   OH286815   3.245   8.047   2.745
12116TIP3    H186816   3.189   8.029   2.824
12116TIP3    H286817   3.218   8.135   2.720
12117TIP3   OH286818   2.876   7.920   1.390
12117TIP3    H186819   2.845   7.915   1.482
12117TIP3    H286820   2.848   7.833   1.359
12118TIP3   OH286821   2.559   7.954   1.295
12118TIP3    H186822   2.514   7.917   1.373
12118TIP3    H286823   2.490   8.004   1.249
12119TIP3   OH286824   1.885   7.916   1.999
12119TIP3    H186825   1.950   7.926   2.072
12119TIP3    H286826   1.940   7.888   1.923
12120TIP3   OH286827   2.005   7.994   1.543
12120TIP3    H186828   2.061   8.060   1.497
12120TIP3    H286829   1.945   8.062   1.577
12121TIP3   OH286830   2.710   7.963   2.034
12121TIP3    H186831   2.617   7.961   2.062
12121TIP3    H286832   2.762   7.947   2.114
12122TIP3   OH286833   2.182   8.056   1.916
12122TIP3    H186834   2.113   8.100   1.865
12122TIP3    H286835   2.230   8.002   1.850
12123TIP3   OH286836   2.557  -0.020   1.684
12123TIP3    H186837   2.653  -0.010   1.693
12123TIP3    H286838   2.535   0.040   1.612
12124TIP3   OH286839   3.153   7.872   2.355
12124TIP3    H186840   3.086   7.892   2.423
12124TIP3    H286841   3.097   7.865   2.276
12125TIP3   OH286842   2.347   7.849   1.869
12125TIP3    H186843   2.313   7.760   1.857
12125TIP3    H286844   2.420   7.845   1.806
12126TIP3   OH286845   2.701   8.056   2.464
12126TIP3    H186846   2.629   8.119   2.467
12126TIP3    H286847   2.761   8.101   2.529
12127TIP3   OH286848   3.150   7.977   1.454
12127TIP3    H186849   3.055   7.984   1.432
12127TIP3    H286850   3.176   8.065   1.480
12128TIP3   OH286851   2.136   7.943   2.696
12128TIP3    H186852   2.047   7.983   2.689
12128TIP3    H286853   2.120   7.860   2.740
12129TIP3   OH286854   3.004   7.922   2.587
12129TIP3    H186855   3.078   7.930   2.649
12129TIP3    H286856   2.970   7.833   2.607
12130TIP3   OH286857   3.080   7.887   1.699
12130TIP3    H186858   3.114   7.923   1.615
12130TIP3    H286859   3.145   7.922   1.764
12131TIP3   OH286860   2.822   7.984   1.796
12131TIP3    H186861   2.880   8.061   1.771
12131TIP3    H286862   2.779   8.012   1.880
12132TIP3   OH286863   2.866   0.007   2.706
12132TIP3    H186864   2.879   0.069   2.779
12132TIP3    H286865   2.935  -0.060   2.711
12133TIP3   OH286866   2.900   7.756   1.879
12133TIP3    H186867   2.863   7.827   1.935
12133TIP3    H286868   2.960   7.813   1.824
12134TIP3   OH286869   2.466   7.874   1.538
12134TIP3    H186870   2.454   7.961   1.577
12134TIP3    H286871   2.554   7.846   1.567
12135TIP3   OH286872   3.482   7.942   2.779
12135TIP3    H186873   3.390   7.975   2.772
12135TIP3    H286874   3.514   7.952   2.690
12136TIP3   OH286875   2.203   7.657   2.229
12136TIP3    H186876   2.174   7.664   2.136
12136TIP3    H286877   2.152   7.580   2.256
12137TIP3   OH286878   2.489   8.038   2.846
12137TIP3    H186879   2.536   7.974   2.790
12137TIP3    H286880   2.520   8.122   2.810
12138TIP3   OH286881   2.564   7.889   2.610
12138TIP3    H186882   2.621   7.933   2.542
12138TIP3    H286883   2.477   7.880   2.564
12139TIP3   OH286884   2.644   7.637   2.654
12139TIP3    H186885   2.628   7.733   2.640
12139TIP3    H286886   2.573   7.596   2.599
12140TIP3   OH286887   2.789   8.020   3.022
12140TIP3    H186888   2.755   8.041   3.111
12140TIP3    H286889   2.705   8.032   2.975
12141TIP3   OH286890   3.049   7.971   2.910
12141TIP3    H186891   2.955   7.984   2.932
12141TIP3    H286892   3.078   7.920   2.987
12142TIP3   OH286893   3.198   7.844   3.111
12142TIP3    H186894   3.197   7.746   3.113
12142TIP3    H286895   3.178   7.871   3.203
12143TIP3   OH286896   2.183   7.969   3.021
12143TIP3    H186897   2.212   7.897   2.962
12143TIP3    H286898   2.177   7.921   3.107
12144TIP3   OH286899   2.667   7.571   2.917
12144TIP3    H186900   2.736   7.502   2.915
12144TIP3    H286901   2.658   7.587   2.821
12145TIP3   OH286902   2.700   7.730   3.128
12145TIP3    H186903   2.686   7.682   3.043
12145TIP3    H286904   2.647   7.811   3.116
12146TIP3   OH286905   3.435   8.090   1.770
12146TIP3    H186906   3.467   7.997   1.778
12146TIP3    H286907   3.512   8.128   1.726
12147TIP3   OH286908   3.517  -0.030   2.356
12147TIP3    H186909   3.582   0.025   2.313
12147TIP3    H286910   3.471   0.028   2.415
12148TIP3   OH286911   1.934   8.064   2.933
12148TIP3    H186912   2.028   8.049   2.957
12148TIP3    H286913   1.888   7.987   2.973
12149TIP3   OH286914   3.740   7.624   3.124
12149TIP3    H186915   3.769   7.556   3.062
12149TIP3    H286916   3.746   7.706   3.072
12150TIP3   OH286917   3.503   7.822   1.772
12150TIP3    H186918   3.526   7.773   1.852
12150TIP3    H286919   3.446   7.759   1.724
12151TIP3   OH286920   2.060   7.897   2.222
12151TIP3    H186921   2.101   7.817   2.257
12151TIP3    H286922   2.106   7.969   2.268
12152TIP3   OH286923   3.688   7.833   2.958
12152TIP3    H186924   3.593   7.863   2.959
12152TIP3    H286925   3.690   7.776   2.880
12153TIP3   OH286926   1.924   7.839   1.749
12153TIP3    H186927   1.831   7.836   1.723
12153TIP3    H286928   1.966   7.871   1.668
12154TIP3   OH286929   2.927   7.785   2.170
12154TIP3    H186930   2.862   7.719   2.200
12154TIP3    H286931   2.987   7.732   2.115
12155TIP3   OH286932   2.615   7.648   1.938
12155TIP3    H186933   2.708   7.674   1.929
12155TIP3    H286934   2.611   7.616   2.028
12156TIP3   OH286935   3.184   7.641   2.101
12156TIP3    H186936   3.183   7.653   2.005
12156TIP3    H286937   3.145   7.552   2.112
12157TIP3   OH286938   3.313   7.648   1.675
12157TIP3    H186939   3.243   7.708   1.647
12157TIP3    H286940   3.268   7.563   1.685
12158TIP3   OH286941   2.726   7.835   1.615
12158TIP3    H186942   2.753   7.781   1.691
12158TIP3    H286943   2.735   7.920   1.666
12159TIP3   OH286944   2.353   7.642   3.068
12159TIP3    H186945   2.440   7.606   3.042
12159TIP3    H286946   2.314   7.560   3.105
12160TIP3   OH286947   3.196   7.571   3.082
12160TIP3    H186948   3.206   7.522   3.166
12160TIP3    H286949   3.288   7.565   3.047
12161TIP3   OH286950   5.556   7.881   2.415
12161TIP3    H186951   5.561   7.947   2.488
12161TIP3    H286952   5.592   7.937   2.347
12162TIP3   OH286953   4.326   7.980   2.095
12162TIP3    H186954   4.318   8.066   2.050
12162TIP3    H286955   4.272   7.927   2.030
12163TIP3   OH286956   5.092   7.990   1.926
12163TIP3    H186957   5.154   7.963   1.998
12163TIP3    H286958   5.152   8.047   1.877
12164TIP3   OH286959   5.592   8.025   2.639
12164TIP3    H186960   5.534   8.098   2.621
12164TIP3    H286961   5.599   8.021   2.736
12165TIP3   OH286962   4.204   7.868   2.500
12165TIP3    H186963   4.175   7.925   2.425
12165TIP3    H286964   4.136   7.895   2.567
12166TIP3   OH286965   5.269   7.921   2.128
12166TIP3    H186966   5.242   7.846   2.182
12166TIP3    H286967   5.326   7.972   2.188
12167TIP3   OH286968   4.210   8.045   2.323
12167TIP3    H186969   4.214   8.142   2.325
12167TIP3    H286970   4.204   8.024   2.226
12168TIP3   OH286971   4.598   7.607   2.244
12168TIP3    H186972   4.584   7.510   2.236
12168TIP3    H286973   4.509   7.634   2.274
12169TIP3   OH286974   5.426   7.596   1.535
12169TIP3    H186975   5.338   7.614   1.573
12169TIP3    H286976   5.451   7.684   1.503
12170TIP3   OH286977   4.338   7.700   2.318
12170TIP3    H186978   4.247   7.682   2.282
12170TIP3    H286979   4.316   7.778   2.371
12171TIP3   OH286980   4.797   7.666   2.655
12171TIP3    H186981   4.832   7.628   2.736
12171TIP3    H286982   4.700   7.652   2.669
12172TIP3   OH286983   5.130   8.047   2.745
12172TIP3    H186984   5.074   8.029   2.824
12172TIP3    H286985   5.104   8.136   2.722
12173TIP3   OH286986   4.764   7.920   1.390
12173TIP3    H186987   4.735   7.915   1.483
12173TIP3    H286988   4.738   7.832   1.361
12174TIP3   OH286989   3.752   7.921   1.983
12174TIP3    H186990   3.809   7.926   2.062
12174TIP3    H286991   3.817   7.892   1.920
12175TIP3   OH286992   3.907   8.005   1.545
12175TIP3    H186993   3.949   8.066   1.486
12175TIP3    H286994   3.831   8.056   1.577
12176TIP3   OH286995   4.596   7.952   2.031
12176TIP3    H186996   4.502   7.960   2.055
12176TIP3    H286997   4.652   7.951   2.110
12177TIP3   OH286998   4.099   8.060   1.926
12177TIP3    H186999   4.015   8.105   1.897
12177TIP3    H287000   4.114   7.999   1.856
12178TIP3   OH287001   4.558   0.011   1.792
12178TIP3    H187002   4.589  -0.032   1.712
12178TIP3    H287003   4.485   0.047   1.738
12179TIP3   OH287004   5.038   7.879   2.355
12179TIP3    H187005   4.970   7.894   2.422
12179TIP3    H287006   4.989   7.861   2.274
12180TIP3   OH287007   4.230   7.846   1.873
12180TIP3    H187008   4.191   7.758   1.861
12180TIP3    H287009   4.302   7.841   1.807
12181TIP3   OH287010   4.582   8.050   2.476
12181TIP3    H187011   4.513   8.117   2.476
12181TIP3    H287012   4.647   8.093   2.537
12182TIP3   OH287013   5.030   7.976   1.458
12182TIP3    H187014   4.938   7.990   1.433
12182TIP3    H287015   5.066   8.063   1.476
12183TIP3   OH287016   4.014   7.943   2.688
12183TIP3    H187017   3.926   7.981   2.688
12183TIP3    H287018   4.009   7.861   2.739
12184TIP3   OH287019   4.890   7.923   2.585
12184TIP3    H187020   4.963   7.931   2.649
12184TIP3    H287021   4.857   7.834   2.607
12185TIP3   OH287022   4.973   7.879   1.698
12185TIP3    H187023   4.998   7.926   1.616
12185TIP3    H287024   5.025   7.924   1.767
12186TIP3   OH287025   4.754   8.023   1.793
12186TIP3    H187026   4.781   8.116   1.785
12186TIP3    H287027   4.676   8.040   1.853
12187TIP3   OH287028   4.742   0.015   2.697
12187TIP3    H187029   4.756   0.070   2.775
12187TIP3    H287030   4.810  -0.054   2.708
12188TIP3   OH287031   4.781   7.762   1.871
12188TIP3    H187032   4.748   7.829   1.935
12188TIP3    H287033   4.847   7.819   1.823
12189TIP3   OH287034   4.323   7.796   1.591
12189TIP3    H187035   4.309   7.894   1.578
12189TIP3    H287036   4.418   7.812   1.570
12190TIP3   OH287037   5.367   7.941   2.780
12190TIP3    H187038   5.274   7.973   2.771
12190TIP3    H287039   5.399   7.943   2.689
12191TIP3   OH287040   4.094   7.659   2.227
12191TIP3    H187041   4.060   7.666   2.135
12191TIP3    H287042   4.039   7.582   2.256
12192TIP3   OH287043   4.511   8.042   2.862
12192TIP3    H187044   4.452   7.970   2.831
12192TIP3    H287045   4.455   8.116   2.832
12193TIP3   OH287046   4.455   7.866   2.594
12193TIP3    H187047   4.506   7.935   2.547
12193TIP3    H287048   4.361   7.881   2.569
12194TIP3   OH287049   4.534   7.630   2.647
12194TIP3    H187050   4.513   7.726   2.642
12194TIP3    H287051   4.453   7.597   2.603
12195TIP3   OH287052   4.688   8.066   3.030
12195TIP3    H187053   4.638   8.044   3.110
12195TIP3    H287054   4.614   8.048   2.967
12196TIP3   OH287055   4.932   7.972   2.908
12196TIP3    H187056   4.838   7.986   2.932
12196TIP3    H287057   4.961   7.922   2.986
12197TIP3   OH287058   5.084   7.844   3.111
12197TIP3    H187059   5.083   7.745   3.113
12197TIP3    H287060   5.064   7.872   3.203
12198TIP3   OH287061   4.059   7.963   3.019
12198TIP3    H187062   4.102   7.897   2.956
12198TIP3    H287063   4.063   7.905   3.097
12199TIP3   OH287064   4.557   7.570   2.918
12199TIP3    H187065   4.623   7.499   2.912
12199TIP3    H287066   4.539   7.589   2.824
12200TIP3   OH287067   4.592   7.731   3.127
12200TIP3    H187068   4.570   7.681   3.044
12200TIP3    H287069   4.534   7.808   3.115
12201TIP3   OH287070   5.359   7.922   1.263
12201TIP3    H187071   5.424   7.901   1.333
12201TIP3    H287072   5.275   7.890   1.295
12202TIP3   OH287073   5.333   8.082   1.781
12202TIP3    H187074   5.363   7.989   1.778
12202TIP3    H287075   5.399   8.125   1.724
12203TIP3   OH287076   5.425  -0.031   2.370
12203TIP3    H187077   5.472   0.027   2.309
12203TIP3    H287078   5.357   0.025   2.408
12204TIP3   OH287079   3.821   8.068   2.939
12204TIP3    H187080   3.915   8.045   2.953
12204TIP3    H287081   3.774   7.988   2.969
12205TIP3   OH287082   5.622   7.622   3.124
12205TIP3    H187083   5.657   7.556   3.062
12205TIP3    H287084   5.630   7.705   3.073
12206TIP3   OH287085   5.390   7.820   1.774
12206TIP3    H187086   5.408   7.771   1.856
12206TIP3    H287087   5.329   7.759   1.728
12207TIP3   OH287088   5.570   7.834   2.961
12207TIP3    H187089   5.476   7.860   2.956
12207TIP3    H287090   5.579   7.778   2.881
12208TIP3   OH287091   5.571   7.816   1.431
12208TIP3    H187092   5.618   7.752   1.376
12208TIP3    H287093   5.638   7.886   1.438
12209TIP3   OH287094   5.475   7.641   2.743
12209TIP3    H187095   5.394   7.675   2.702
12209TIP3    H287096   5.496   7.562   2.689
12210TIP3   OH287097   4.811   7.786   2.177
12210TIP3    H187098   4.749   7.716   2.200
12210TIP3    H287099   4.871   7.738   2.117
12211TIP3   OH287100   5.498   7.711   2.008
12211TIP3    H187101   5.566   7.656   1.965
12211TIP3    H287102   5.540   7.796   2.024
12212TIP3   OH287103   4.046   7.644   1.964
12212TIP3    H187104   3.977   7.631   1.899
12212TIP3    H287105   4.102   7.565   1.950
12213TIP3   OH287106   4.500   7.646   1.939
12213TIP3    H187107   4.593   7.674   1.931
12213TIP3    H287108   4.497   7.617   2.029
12214TIP3   OH287109   5.064   7.646   2.098
12214TIP3    H187110   5.069   7.654   2.002
12214TIP3    H287111   5.029   7.555   2.110
12215TIP3   OH287112   5.196   7.653   1.671
12215TIP3    H187113   5.121   7.710   1.647
12215TIP3    H287114   5.155   7.566   1.686
12216TIP3   OH287115   4.616   7.847   1.621
12216TIP3    H187116   4.638   7.785   1.693
12216TIP3    H287117   4.621   7.928   1.675
12217TIP3   OH287118   4.262   7.610   3.129
12217TIP3    H187119   4.317   7.606   3.047
12217TIP3    H287120   4.199   7.538   3.109
12218TIP3   OH287121   5.082   7.571   3.080
12218TIP3    H187122   5.092   7.521   3.162
12218TIP3    H287123   5.173   7.565   3.044
12219TIP3   OH287124   7.411   7.872   2.436
12219TIP3    H187125   7.438   7.945   2.494
12219TIP3    H287126   7.460   7.911   2.360
12220TIP3   OH287127   6.970   7.994   1.932
12220TIP3    H187128   7.035   7.963   1.998
12220TIP3    H287129   7.030   8.047   1.878
12221TIP3   OH287130   7.482   8.029   2.641
12221TIP3    H187131   7.423   8.101   2.620
12221TIP3    H287132   7.483   8.026   2.738
12222TIP3   OH287133   7.152   7.922   2.129
12222TIP3    H187134   7.125   7.849   2.185
12222TIP3    H287135   7.211   7.973   2.187
12223TIP3   OH287136   7.179   7.795   2.501
12223TIP3    H187137   7.108   7.859   2.487
12223TIP3    H287138   7.254   7.836   2.451
12224TIP3   OH287139   6.491   7.597   2.245
12224TIP3    H187140   6.468   7.503   2.235
12224TIP3    H287141   6.407   7.637   2.272
12225TIP3   OH287142   7.310   7.598   1.545
12225TIP3    H187143   7.219   7.617   1.569
12225TIP3    H287144   7.341   7.681   1.504
12226TIP3   OH287145   6.680   7.667   2.660
12226TIP3    H187146   6.725   7.621   2.733
12226TIP3    H287147   6.587   7.644   2.671
12227TIP3   OH287148   7.019   8.050   2.749
12227TIP3    H187149   6.956   8.029   2.823
12227TIP3    H287150   6.988   8.136   2.721
12228TIP3   OH287151   6.479   7.932   2.023
12228TIP3    H187152   6.394   7.964   2.059
12228TIP3    H287153   6.532   7.952   2.104
12229TIP3   OH287154   6.929   7.878   2.348
12229TIP3    H187155   6.863   7.891   2.422
12229TIP3    H287156   6.869   7.863   2.274
12230TIP3   OH287157   6.916   7.978   1.444
12230TIP3    H187158   6.821   7.991   1.438
12230TIP3    H287159   6.950   8.061   1.479
12231TIP3   OH287160   6.822   7.880   2.585
12231TIP3    H187161   6.849   7.927   2.663
12231TIP3    H287162   6.742   7.832   2.611
12232TIP3   OH287163   6.857   7.881   1.697
12232TIP3    H187164   6.880   7.929   1.616
12232TIP3    H287165   6.911   7.925   1.765
12233TIP3   OH287166   6.665  -0.011   2.814
12233TIP3    H187167   6.634   0.080   2.790
12233TIP3    H287168   6.677  -0.051   2.724
12234TIP3   OH287169   6.670   7.762   1.877
12234TIP3    H187170   6.630   7.831   1.932
12234TIP3    H287171   6.730   7.817   1.821
12235TIP3   OH287172   7.255   7.945   2.780
12235TIP3    H187173   7.161   7.973   2.772
12235TIP3    H287174   7.284   7.943   2.688
12236TIP3   OH287175   6.415   7.638   2.652
12236TIP3    H187176   6.402   7.732   2.636
12236TIP3    H287177   6.344   7.598   2.599
12237TIP3   OH287178   6.823   7.965   2.911
12237TIP3    H187179   6.729   7.986   2.925
12237TIP3    H287180   6.846   7.918   2.991
12238TIP3   OH287181   6.972   7.843   3.112
12238TIP3    H187182   6.968   7.745   3.113
12238TIP3    H287183   6.949   7.871   3.203
12239TIP3   OH287184   5.956   7.972   3.022
12239TIP3    H187185   5.977   7.899   2.959
12239TIP3    H287186   5.949   7.920   3.105
12240TIP3   OH287187   6.441   7.572   2.918
12240TIP3    H187188   6.508   7.500   2.916
12240TIP3    H287189   6.430   7.587   2.822
12241TIP3   OH287190   6.472   7.732   3.127
12241TIP3    H187191   6.457   7.683   3.043
12241TIP3    H287192   6.417   7.812   3.117
12242TIP3   OH287193   7.242   7.938   1.274
12242TIP3    H187194   7.310   7.898   1.332
12242TIP3    H287195   7.162   7.889   1.292
12243TIP3   OH287196   7.210   8.077   1.780
12243TIP3    H187197   7.248   7.986   1.780
12243TIP3    H287198   7.279   8.125   1.731
12244TIP3   OH287199   7.248  -0.020   2.354
12244TIP3    H187200   7.336   0.011   2.320
12244TIP3    H287201   7.239   0.036   2.428
12245TIP3   OH287202   5.706   8.068   2.938
12245TIP3    H187203   5.800   8.048   2.956
12245TIP3    H287204   5.662   7.985   2.969
12246TIP3   OH287205   7.506   7.621   3.123
12246TIP3    H187206   7.544   7.556   3.063
12246TIP3    H287207   7.517   7.706   3.076
12247TIP3   OH287208   7.272   7.821   1.772
12247TIP3    H187209   7.295   7.771   1.852
12247TIP3    H287210   7.212   7.758   1.727
12248TIP3   OH287211   7.456   7.829   2.959
12248TIP3    H187212   7.364   7.862   2.957
12248TIP3    H287213   7.462   7.776   2.879
12249TIP3   OH287214   7.448   7.823   1.438
12249TIP3    H187215   7.490   7.753   1.386
12249TIP3    H287216   7.517   7.893   1.435
12250TIP3   OH287217   5.682   7.691   2.566
12250TIP3    H187218   5.620   7.678   2.638
12250TIP3    H287219   5.641   7.762   2.514
12251TIP3   OH287220   7.362   7.638   2.744
12251TIP3    H187221   7.282   7.677   2.703
12251TIP3    H287222   7.376   7.564   2.684
12252TIP3   OH287223   6.698   7.788   2.172
12252TIP3    H187224   6.634   7.721   2.199
12252TIP3    H287225   6.757   7.736   2.116
12253TIP3   OH287226   7.212   7.595   2.185
12253TIP3    H187227   7.275   7.649   2.131
12253TIP3    H287228   7.125   7.630   2.158
12254TIP3   OH287229   7.362   7.692   1.994
12254TIP3    H187230   7.443   7.647   1.960
12254TIP3    H287231   7.396   7.782   2.011
12255TIP3   OH287232   6.402   7.628   1.930
12255TIP3    H187233   6.482   7.682   1.928
12255TIP3    H287234   6.381   7.621   2.023
12256TIP3   OH287235   6.951   7.643   2.100
12256TIP3    H187236   6.953   7.654   2.004
12256TIP3    H287237   6.920   7.552   2.110
12257TIP3   OH287238   7.080   7.653   1.666
12257TIP3    H187239   7.005   7.712   1.650
12257TIP3    H287240   7.042   7.566   1.686
12258TIP3   OH287241   5.927   7.706   2.908
12258TIP3    H187242   5.889   7.623   2.941
12258TIP3    H287243   6.020   7.698   2.939
12259TIP3   OH287244   6.129   7.640   3.068
12259TIP3    H187245   6.216   7.603   3.043
12259TIP3    H287246   6.088   7.560   3.109
12260TIP3   OH287247   6.969   7.570   3.080
12260TIP3    H187248   6.977   7.521   3.164
12260TIP3    H287249   7.060   7.565   3.046
12261TIP3   OH287250   8.105   7.961   2.120
12261TIP3    H187251   8.111   8.053   2.084
12261TIP3    H287252   8.054   7.924   2.047
12262TIP3   OH287253   7.788   7.886   2.537
12262TIP3    H187254   7.852   7.905   2.466
12262TIP3    H287255   7.865   7.885   2.596
12263TIP3   OH287256   8.064   8.136   2.262
12263TIP3    H187257   8.010   8.135   2.343
12263TIP3    H287258   8.017   8.054   2.227
12264TIP3   OH287259   7.963   7.639   2.402
12264TIP3    H187260   7.973   7.649   2.301
12264TIP3    H287261   8.031   7.709   2.398
12265TIP3   OH287262   7.510   7.951   1.943
12265TIP3    H187263   7.571   7.955   2.022
12265TIP3    H287264   7.575   7.899   1.897
12266TIP3   OH287265   7.603   8.021   1.500
12266TIP3    H187266   7.691   8.060   1.485
12266TIP3    H287267   7.580   8.069   1.581
12267TIP3   OH287268   7.685   8.120   1.991
12267TIP3    H187269   7.678   8.114   1.893
12267TIP3    H287270   7.772   8.101   1.951
12268TIP3   OH287271   8.033   7.860   1.920
12268TIP3    H187272   7.962   7.801   1.890
12268TIP3    H287273   8.082   7.856   1.837
12269TIP3   OH287274   7.765   7.984   2.748
12269TIP3    H187275   7.688   7.989   2.688
12269TIP3    H287276   7.776   7.887   2.741
12270TIP3   OH287277  -0.010   7.854   1.534
12270TIP3    H187278  -0.034   7.946   1.554
12270TIP3    H287279   0.087   7.852   1.538
12271TIP3   OH287280   7.858   7.643   2.190
12271TIP3    H187281   7.816   7.649   2.105
12271TIP3    H287282   7.810   7.575   2.245
12272TIP3   OH287283   7.856   7.988   3.030
12272TIP3    H187284   7.864   7.914   2.965
12272TIP3    H287285   7.833   7.926   3.103
12273TIP3   OH287286   7.591   8.068   2.942
12273TIP3    H187287   7.685   8.047   2.957
12273TIP3    H287288   7.547   7.985   2.970
12274TIP3   OH287289   7.725   7.798   2.323
12274TIP3    H187290   7.772   7.774   2.241
12274TIP3    H287291   7.733   7.894   2.301
12275TIP3   OH287292   7.561   7.805   1.725
12275TIP3    H187293   7.472   7.842   1.722
12275TIP3    H287294   7.607   7.868   1.669
12276TIP3   OH287295   7.574   7.696   2.574
12276TIP3    H187296   7.502   7.680   2.635
12276TIP3    H287297   7.530   7.758   2.512
12277TIP3   OH287298   7.813   7.650   1.953
12277TIP3    H187299   7.733   7.620   1.910
12277TIP3    H287300   7.864   7.564   1.955
12278TIP3   OH287301   7.605   7.636   1.539
12278TIP3    H187302   7.691   7.650   1.494
12278TIP3    H287303   7.616   7.705   1.606
12279TIP3   OH287304   7.859   7.803   1.299
12279TIP3    H187305   7.931   7.740   1.298
12279TIP3    H287306   7.897   7.838   1.385
12280TIP3   OH287307   7.779   7.744   3.013
12280TIP3    H187308   7.755   7.659   2.973
12280TIP3    H287309   7.868   7.740   2.969
12281TIP3   OH287310   8.015   7.634   3.058
12281TIP3    H187311   8.106   7.604   3.041
12281TIP3    H287312   7.975   7.561   3.109
12282TIP3   OH287313   1.059   0.795   3.280
12282TIP3    H187314   1.130   0.799   3.346
12282TIP3    H287315   1.095   0.727   3.221
12283TIP3   OH287316   1.288   0.882   3.440
12283TIP3    H187317   1.342   0.903   3.515
12283TIP3    H287318   1.329   0.932   3.367
12284TIP3   OH287319   1.658   0.065   3.434
12284TIP3    H187320   1.564   0.068   3.452
12284TIP3    H287321   1.680   0.145   3.385
12285TIP3   OH287322   1.773   1.493   3.257
12285TIP3    H187323   1.787   1.587   3.281
12285TIP3    H287324   1.866   1.464   3.263
12286TIP3   OH287325   1.316   1.771   3.331
12286TIP3    H187326   1.356   1.695   3.282
12286TIP3    H287327   1.322   1.739   3.422
12287TIP3   OH287328   1.435   0.984   3.216
12287TIP3    H187329   1.431   0.968   3.118
12287TIP3    H287330   1.519   1.031   3.223
12288TIP3   OH287331   0.994   0.372   3.274
12288TIP3    H187332   0.961   0.375   3.365
12288TIP3    H287333   0.961   0.286   3.241
12289TIP3   OH287334   0.674   0.410   3.178
12289TIP3    H187335   0.631   0.378   3.261
12289TIP3    H287336   0.605   0.461   3.133
12290TIP3   OH287337   0.147   0.480   3.441
12290TIP3    H187338   0.185   0.536   3.372
12290TIP3    H287339   0.067   0.529   3.463
12291TIP3   OH287340   0.542   0.688   3.326
12291TIP3    H187341   0.486   0.662   3.250
12291TIP3    H287342   0.621   0.716   3.279
12292TIP3   OH287343   1.259   0.429   3.336
12292TIP3    H187344   1.165   0.446   3.322
12292TIP3    H287345   1.293   0.513   3.373
12293TIP3   OH287346   1.333   0.627   3.501
12293TIP3    H187347   1.424   0.606   3.528
12293TIP3    H287348   1.342   0.704   3.443
12294TIP3   OH287349   1.085   1.295   3.417
12294TIP3    H187350   1.054   1.379   3.455
12294TIP3    H287351   1.015   1.234   3.443
12295TIP3   OH287352   1.819   0.641   3.479
12295TIP3    H187353   1.767   0.604   3.404
12295TIP3    H287354   1.831   0.732   3.446
12296TIP3   OH287355   0.195   0.919   3.288
12296TIP3    H187356   0.259   0.978   3.334
12296TIP3    H287357   0.112   0.952   3.322
12297TIP3   OH287358   1.395   1.323   3.297
12297TIP3    H187359   1.427   1.287   3.380
12297TIP3    H287360   1.300   1.309   3.309
12298TIP3   OH287361   1.839   1.762   3.320
12298TIP3    H187362   1.915   1.823   3.314
12298TIP3    H287363   1.771   1.824   3.353
12299TIP3   OH287364   0.810   1.432   3.150
12299TIP3    H187365   0.820   1.357   3.091
12299TIP3    H287366   0.767   1.389   3.227
12300TIP3   OH287367   0.688   1.381   3.392
12300TIP3    H187368   0.713   1.335   3.472
12300TIP3    H287369   0.697   1.474   3.422
12301TIP3   OH287370   0.332   1.111   3.433
12301TIP3    H187371   0.273   1.143   3.501
12301TIP3    H287372   0.393   1.185   3.415
12302TIP3   OH287373   0.967   1.560   3.474
12302TIP3    H187374   0.881   1.604   3.464
12302TIP3    H287375   1.019   1.603   3.404
12303TIP3   OH287376   0.711   1.656   3.471
12303TIP3    H187377   0.715   1.734   3.409
12303TIP3    H287378   0.680   1.697   3.552
12304TIP3   OH287379   0.573   0.328   3.423
12304TIP3    H187380   0.567   0.417   3.462
12304TIP3    H287381   0.662   0.303   3.452
12305TIP3   OH287382   0.398   1.373   3.330
12305TIP3    H187383   0.463   1.439   3.360
12305TIP3    H287384   0.451   1.326   3.262
12306TIP3   OH287385   0.231   0.641   3.242
12306TIP3    H187386   0.231   0.737   3.262
12306TIP3    H287387   0.142   0.621   3.212
12307TIP3   OH287388   1.009   1.618   3.163
12307TIP3    H187389   0.940   1.551   3.183
12307TIP3    H287390   1.082   1.561   3.133
12308TIP3   OH287391   1.465   1.594   3.178
12308TIP3    H187392   1.496   1.518   3.230
12308TIP3    H287393   1.542   1.615   3.123
12309TIP3   OH287394   0.552   1.184   3.164
12309TIP3    H187395   0.573   1.110   3.224
12309TIP3    H287396   0.626   1.176   3.101
12310TIP3   OH287397   1.100   1.296   3.142
12310TIP3    H187398   1.071   1.306   3.234
12310TIP3    H287399   1.077   1.201   3.126
12311TIP3   OH287400   0.675   0.986   3.397
12311TIP3    H187401   0.627   0.937   3.466
12311TIP3    H287402   0.703   0.918   3.333
12312TIP3   OH287403   0.781   0.807   3.223
12312TIP3    H187404   0.768   0.800   3.126
12312TIP3    H287405   0.879   0.818   3.230
12313TIP3   OH287406   1.718   1.046   3.172
12313TIP3    H187407   1.697   1.006   3.086
12313TIP3    H287408   1.724   1.140   3.147
12314TIP3   OH287409   0.770   1.883   3.336
12314TIP3    H187410   0.867   1.891   3.335
12314TIP3    H287411   0.749   1.940   3.261
12315TIP3   OH287412   0.130   1.345   3.285
12315TIP3    H187413   0.226   1.352   3.302
12315TIP3    H287414   0.129   1.281   3.213
12316TIP3   OH287415   1.832   0.926   3.390
12316TIP3    H187416   1.781   0.964   3.314
12316TIP3    H287417   1.829   0.997   3.455
12317TIP3   OH287418   1.676   0.650   3.243
12317TIP3    H187419   1.679   0.716   3.173
12317TIP3    H287420   1.652   0.568   3.195
12318TIP3   OH287421   1.597   0.397   3.159
12318TIP3    H187422   1.658   0.351   3.219
12318TIP3    H287423   1.513   0.350   3.172
12319TIP3   OH287424   1.803   0.285   3.306
12319TIP3    H187425   1.845   0.206   3.265
12319TIP3    H287426   1.876   0.348   3.317
12320TIP3   OH287427   0.160   0.103   3.408
12320TIP3    H187428   0.214   0.169   3.369
12320TIP3    H287429   0.100   0.148   3.469
12321TIP3   OH287430   0.360   0.279   3.278
12321TIP3    H187431   0.413   0.215   3.227
12321TIP3    H287432   0.428   0.307   3.345
12322TIP3   OH287433   1.036   1.803   3.353
12322TIP3    H187434   1.127   1.831   3.329
12322TIP3    H287435   1.016   1.753   3.270
12323TIP3   OH287436   0.327   1.773   3.211
12323TIP3    H187437   0.304   1.800   3.301
12323TIP3    H287438   0.407   1.719   3.226
12324TIP3   OH287439   2.945   0.795   3.281
12324TIP3    H187440   3.017   0.798   3.346
12324TIP3    H287441   2.980   0.728   3.220
12325TIP3   OH287442   3.173   0.882   3.439
12325TIP3    H187443   3.228   0.902   3.515
12325TIP3    H287444   3.214   0.933   3.366
12326TIP3   OH287445   3.544   0.064   3.434
12326TIP3    H187446   3.450   0.068   3.452
12326TIP3    H287447   3.564   0.146   3.386
12327TIP3   OH287448   3.677   1.492   3.269
12327TIP3    H187449   3.689   1.588   3.288
12327TIP3    H287450   3.770   1.464   3.269
12328TIP3   OH287451   3.201   1.774   3.334
12328TIP3    H187452   3.237   1.699   3.283
12328TIP3    H287453   3.204   1.740   3.425
12329TIP3   OH287454   3.319   0.987   3.216
12329TIP3    H187455   3.316   0.964   3.120
12329TIP3    H287456   3.406   1.028   3.223
12330TIP3   OH287457   2.884   0.370   3.279
12330TIP3    H187458   2.844   0.375   3.366
12330TIP3    H287459   2.846   0.288   3.241
12331TIP3   OH287460   2.558   0.413   3.181
12331TIP3    H187461   2.513   0.377   3.260
12331TIP3    H287462   2.489   0.458   3.132
12332TIP3   OH287463   2.010   0.457   3.424
12332TIP3    H187464   2.065   0.523   3.377
12332TIP3    H287465   1.947   0.519   3.467
12333TIP3   OH287466   2.428   0.691   3.328
12333TIP3    H187467   2.373   0.658   3.256
12333TIP3    H287468   2.508   0.715   3.280
12334TIP3   OH287469   3.147   0.430   3.333
12334TIP3    H187470   3.051   0.446   3.320
12334TIP3    H287471   3.179   0.513   3.373
12335TIP3   OH287472   3.219   0.627   3.503
12335TIP3    H187473   3.310   0.606   3.528
12335TIP3    H287474   3.227   0.703   3.443
12336TIP3   OH287475   2.973   1.295   3.417
12336TIP3    H187476   2.940   1.380   3.454
12336TIP3    H287477   2.902   1.234   3.443
12337TIP3   OH287478   3.705   0.640   3.478
12337TIP3    H187479   3.653   0.604   3.403
12337TIP3    H287480   3.717   0.732   3.446
12338TIP3   OH287481   2.084   0.922   3.287
12338TIP3    H187482   2.145   0.981   3.336
12338TIP3    H287483   1.997   0.949   3.321
12339TIP3   OH287484   3.286   1.328   3.297
12339TIP3    H187485   3.311   1.284   3.381
12339TIP3    H287486   3.189   1.311   3.307
12340TIP3   OH287487   3.721   1.761   3.318
12340TIP3    H187488   3.800   1.820   3.315
12340TIP3    H287489   3.658   1.827   3.354
12341TIP3   OH287490   2.693   1.431   3.151
12341TIP3    H187491   2.708   1.356   3.091
12341TIP3    H287492   2.653   1.388   3.229
12342TIP3   OH287493   2.574   1.382   3.392
12342TIP3    H187494   2.599   1.335   3.472
12342TIP3    H287495   2.586   1.475   3.423
12343TIP3   OH287496   2.220   1.112   3.436
12343TIP3    H187497   2.158   1.145   3.500
12343TIP3    H287498   2.279   1.186   3.414
12344TIP3   OH287499   2.851   1.555   3.467
12344TIP3    H187500   2.768   1.606   3.471
12344TIP3    H287501   2.904   1.606   3.403
12345TIP3   OH287502   2.592   1.656   3.470
12345TIP3    H187503   2.601   1.735   3.412
12345TIP3    H287504   2.569   1.696   3.554
12346TIP3   OH287505   2.457   0.328   3.420
12346TIP3    H187506   2.450   0.416   3.460
12346TIP3    H287507   2.545   0.302   3.450
12347TIP3   OH287508   2.284   1.374   3.331
12347TIP3    H187509   2.350   1.438   3.360
12347TIP3    H287510   2.335   1.327   3.262
12348TIP3   OH287511   2.117   0.640   3.243
12348TIP3    H187512   2.117   0.735   3.264
12348TIP3    H287513   2.027   0.621   3.216
12349TIP3   OH287514   2.893   1.619   3.170
12349TIP3    H187515   2.823   1.552   3.181
12349TIP3    H287516   2.961   1.565   3.127
12350TIP3   OH287517   3.322   1.611   3.168
12350TIP3    H187518   3.339   1.541   3.235
12350TIP3    H287519   3.404   1.637   3.120
12351TIP3   OH287520   2.439   1.186   3.165
12351TIP3    H187521   2.456   1.110   3.224
12351TIP3    H287522   2.514   1.176   3.103
12352TIP3   OH287523   2.989   1.296   3.142
12352TIP3    H187524   2.956   1.307   3.233
12352TIP3    H287525   2.964   1.202   3.126
12353TIP3   OH287526   2.559   0.987   3.398
12353TIP3    H187527   2.513   0.937   3.467
12353TIP3    H287528   2.587   0.919   3.334
12354TIP3   OH287529   2.668   0.813   3.220
12354TIP3    H187530   2.654   0.792   3.127
12354TIP3    H287531   2.766   0.817   3.230
12355TIP3   OH287532   3.604   1.044   3.174
12355TIP3    H187533   3.584   1.003   3.087
12355TIP3    H287534   3.611   1.138   3.146
12356TIP3   OH287535   2.654   1.882   3.334
12356TIP3    H187536   2.752   1.889   3.337
12356TIP3    H287537   2.637   1.943   3.261
12357TIP3   OH287538   2.008   1.340   3.278
12357TIP3    H187539   2.103   1.348   3.299
12357TIP3    H287540   2.012   1.272   3.206
12358TIP3   OH287541   3.718   0.925   3.390
12358TIP3    H187542   3.668   0.961   3.314
12358TIP3    H287543   3.714   0.997   3.454
12359TIP3   OH287544   3.560   0.651   3.243
12359TIP3    H187545   3.565   0.715   3.172
12359TIP3    H287546   3.539   0.568   3.196
12360TIP3   OH287547   3.482   0.395   3.156
12360TIP3    H187548   3.544   0.351   3.218
12360TIP3    H287549   3.397   0.350   3.175
12361TIP3   OH287550   3.690   0.283   3.311
12361TIP3    H187551   3.728   0.207   3.262
12361TIP3    H287552   3.762   0.347   3.319
12362TIP3   OH287553   2.054   0.093   3.416
12362TIP3    H187554   2.092   0.160   3.358
12362TIP3    H287555   1.986   0.143   3.463
12363TIP3   OH287556   2.228   0.276   3.263
12363TIP3    H187557   2.281   0.215   3.210
12363TIP3    H287558   2.292   0.307   3.330
12364TIP3   OH287559   2.920   1.805   3.353
12364TIP3    H187560   3.011   1.831   3.331
12364TIP3    H287561   2.901   1.753   3.270
12365TIP3   OH287562   2.214   1.777   3.211
12365TIP3    H187563   2.188   1.799   3.302
12365TIP3    H287564   2.290   1.716   3.224
12366TIP3   OH287565   4.830   0.795   3.279
12366TIP3    H187566   4.901   0.799   3.346
12366TIP3    H287567   4.866   0.726   3.221
12367TIP3   OH287568   5.058   0.881   3.441
12367TIP3    H187569   5.114   0.903   3.516
12367TIP3    H287570   5.100   0.933   3.370
12368TIP3   OH287571   5.429   0.064   3.434
12368TIP3    H187572   5.335   0.068   3.452
12368TIP3    H287573   5.451   0.145   3.386
12369TIP3   OH287574   5.545   1.497   3.253
12369TIP3    H187575   5.560   1.589   3.282
12369TIP3    H287576   5.635   1.463   3.265
12370TIP3   OH287577   5.087   1.770   3.332
12370TIP3    H187578   5.128   1.695   3.284
12370TIP3    H287579   5.092   1.739   3.423
12371TIP3   OH287580   5.204   0.983   3.210
12371TIP3    H187581   5.208   0.966   3.115
12371TIP3    H287582   5.287   1.030   3.227
12372TIP3   OH287583   4.764   0.373   3.272
12372TIP3    H187584   4.733   0.375   3.363
12372TIP3    H287585   4.734   0.286   3.241
12373TIP3   OH287586   4.443   0.410   3.179
12373TIP3    H187587   4.401   0.377   3.261
12373TIP3    H287588   4.374   0.461   3.134
12374TIP3   OH287589   3.897   0.456   3.424
12374TIP3    H187590   3.950   0.522   3.375
12374TIP3    H287591   3.833   0.518   3.465
12375TIP3   OH287592   4.315   0.689   3.327
12375TIP3    H187593   4.258   0.661   3.254
12375TIP3    H287594   4.394   0.716   3.278
12376TIP3   OH287595   5.032   0.430   3.332
12376TIP3    H187596   4.937   0.446   3.321
12376TIP3    H287597   5.064   0.512   3.373
12377TIP3   OH287598   5.104   0.624   3.500
12377TIP3    H187599   5.195   0.608   3.529
12377TIP3    H287600   5.112   0.705   3.448
12378TIP3   OH287601   4.856   1.295   3.417
12378TIP3    H187602   4.824   1.380   3.456
12378TIP3    H287603   4.787   1.234   3.443
12379TIP3   OH287604   5.594   0.639   3.477
12379TIP3    H187605   5.538   0.606   3.403
12379TIP3    H287606   5.602   0.732   3.449
12380TIP3   OH287607   3.970   0.923   3.287
12380TIP3    H187608   4.031   0.980   3.339
12380TIP3    H287609   3.882   0.949   3.320
12381TIP3   OH287610   5.168   1.322   3.297
12381TIP3    H187611   5.201   1.286   3.381
12381TIP3    H287612   5.072   1.309   3.310
12382TIP3   OH287613   5.610   1.762   3.319
12382TIP3    H187614   5.687   1.823   3.315
12382TIP3    H287615   5.542   1.824   3.353
12383TIP3   OH287616   4.582   1.432   3.149
12383TIP3    H187617   4.592   1.355   3.091
12383TIP3    H287618   4.539   1.390   3.227
12384TIP3   OH287619   4.461   1.383   3.392
12384TIP3    H187620   4.485   1.335   3.472
12384TIP3    H287621   4.471   1.475   3.423
12385TIP3   OH287622   4.106   1.112   3.436
12385TIP3    H187623   4.043   1.145   3.500
12385TIP3    H287624   4.163   1.187   3.413
12386TIP3   OH287625   4.737   1.555   3.468
12386TIP3    H187626   4.654   1.606   3.469
12386TIP3    H287627   4.791   1.607   3.406
12387TIP3   OH287628   4.479   1.656   3.468
12387TIP3    H187629   4.486   1.735   3.408
12387TIP3    H287630   4.454   1.697   3.551
12388TIP3   OH287631   4.342   0.327   3.421
12388TIP3    H187632   4.335   0.416   3.461
12388TIP3    H287633   4.431   0.304   3.451
12389TIP3   OH287634   4.171   1.371   3.335
12389TIP3    H187635   4.234   1.440   3.358
12389TIP3    H287636   4.219   1.328   3.262
12390TIP3   OH287637   4.004   0.640   3.242
12390TIP3    H187638   4.002   0.735   3.265
12390TIP3    H287639   3.913   0.622   3.218
12391TIP3   OH287640   4.780   1.618   3.161
12391TIP3    H187641   4.711   1.552   3.184
12391TIP3    H287642   4.852   1.559   3.133
12392TIP3   OH287643   5.236   1.594   3.176
12392TIP3    H187644   5.265   1.518   3.228
12392TIP3    H287645   5.314   1.616   3.123
12393TIP3   OH287646   4.324   1.185   3.163
12393TIP3    H187647   4.342   1.110   3.222
12393TIP3    H287648   4.399   1.175   3.101
12394TIP3   OH287649   4.872   1.297   3.143
12394TIP3    H187650   4.842   1.307   3.235
12394TIP3    H287651   4.849   1.203   3.126
12395TIP3   OH287652   4.446   0.987   3.398
12395TIP3    H187653   4.398   0.937   3.467
12395TIP3    H287654   4.473   0.919   3.334
12396TIP3   OH287655   4.554   0.806   3.223
12396TIP3    H187656   4.539   0.801   3.126
12396TIP3    H287657   4.651   0.818   3.230
12397TIP3   OH287658   5.490   1.045   3.170
12397TIP3    H187659   5.469   1.004   3.085
12397TIP3    H287660   5.496   1.140   3.147
12398TIP3   OH287661   4.541   1.883   3.335
12398TIP3    H187662   4.638   1.890   3.337
12398TIP3    H287663   4.521   1.940   3.259
12399TIP3   OH287664   3.893   1.339   3.277
12399TIP3    H187665   3.988   1.348   3.299
12399TIP3    H287666   3.899   1.272   3.206
12400TIP3   OH287667   5.609   0.925   3.385
12400TIP3    H187668   5.551   0.964   3.316
12400TIP3    H287669   5.592   0.991   3.457
12401TIP3   OH287670   5.444   0.649   3.245
12401TIP3    H187671   5.452   0.716   3.177
12401TIP3    H287672   5.427   0.567   3.194
12402TIP3   OH287673   5.366   0.395   3.158
12402TIP3    H187674   5.430   0.351   3.217
12402TIP3    H287675   5.283   0.348   3.175
12403TIP3   OH287676   5.576   0.282   3.311
12403TIP3    H187677   5.614   0.208   3.260
12403TIP3    H287678   5.648   0.346   3.318
12404TIP3   OH287679   3.942   0.093   3.412
12404TIP3    H187680   3.977   0.167   3.362
12404TIP3    H287681   3.872   0.139   3.463
12405TIP3   OH287682   4.113   0.271   3.264
12405TIP3    H187683   4.173   0.219   3.211
12405TIP3    H287684   4.174   0.308   3.332
12406TIP3   OH287685   4.807   1.803   3.354
12406TIP3    H187686   4.897   1.831   3.331
12406TIP3    H287687   4.786   1.753   3.271
12407TIP3   OH287688   4.096   1.774   3.214
12407TIP3    H187689   4.075   1.799   3.304
12407TIP3    H287690   4.177   1.719   3.222
12408TIP3   OH287691   6.715   0.795   3.280
12408TIP3    H187692   6.787   0.799   3.346
12408TIP3    H287693   6.752   0.726   3.222
12409TIP3   OH287694   6.944   0.882   3.440
12409TIP3    H187695   6.999   0.903   3.515
12409TIP3    H287696   6.986   0.932   3.367
12410TIP3   OH287697   7.315   0.064   3.435
12410TIP3    H187698   7.221   0.068   3.452
12410TIP3    H287699   7.337   0.145   3.385
12411TIP3   OH287700   7.430   1.494   3.256
12411TIP3    H187701   7.444   1.587   3.281
12411TIP3    H287702   7.522   1.464   3.264
12412TIP3   OH287703   6.973   1.771   3.333
12412TIP3    H187704   7.014   1.695   3.284
12412TIP3    H287705   6.978   1.739   3.424
12413TIP3   OH287706   7.092   0.984   3.217
12413TIP3    H187707   7.088   0.966   3.120
12413TIP3    H287708   7.176   1.031   3.223
12414TIP3   OH287709   6.652   0.372   3.273
12414TIP3    H187710   6.618   0.375   3.363
12414TIP3    H287711   6.617   0.286   3.241
12415TIP3   OH287712   6.331   0.419   3.184
12415TIP3    H187713   6.286   0.375   3.259
12415TIP3    H287714   6.258   0.456   3.132
12416TIP3   OH287715   5.783   0.457   3.427
12416TIP3    H187716   5.836   0.522   3.375
12416TIP3    H287717   5.718   0.519   3.466
12417TIP3   OH287718   6.199   0.689   3.327
12417TIP3    H187719   6.143   0.659   3.253
12417TIP3    H287720   6.279   0.715   3.280
12418TIP3   OH287721   6.917   0.430   3.333
12418TIP3    H187722   6.822   0.446   3.323
12418TIP3    H287723   6.950   0.512   3.374
12419TIP3   OH287724   6.990   0.627   3.501
12419TIP3    H187725   7.080   0.606   3.528
12419TIP3    H287726   6.998   0.704   3.443
12420TIP3   OH287727   6.741   1.295   3.415
12420TIP3    H187728   6.712   1.380   3.457
12420TIP3    H287729   6.672   1.234   3.443
12421TIP3   OH287730   7.475   0.641   3.479
12421TIP3    H187731   7.424   0.604   3.403
12421TIP3    H287732   7.488   0.732   3.446
12422TIP3   OH287733   5.856   0.924   3.284
12422TIP3    H187734   5.916   0.981   3.339
12422TIP3    H287735   5.768   0.948   3.322
12423TIP3   OH287736   7.053   1.323   3.298
12423TIP3    H187737   7.084   1.286   3.382
12423TIP3    H287738   6.956   1.309   3.308
12424TIP3   OH287739   7.495   1.762   3.320
12424TIP3    H187740   7.571   1.824   3.316
12424TIP3    H287741   7.427   1.824   3.353
12425TIP3   OH287742   6.464   1.433   3.147
12425TIP3    H187743   6.480   1.356   3.091
12425TIP3    H287744   6.425   1.390   3.227
12426TIP3   OH287745   6.348   1.384   3.390
12426TIP3    H187746   6.369   1.335   3.470
12426TIP3    H287747   6.356   1.475   3.425
12427TIP3   OH287748   5.993   1.112   3.437
12427TIP3    H187749   5.928   1.144   3.499
12427TIP3    H287750   6.049   1.187   3.415
12428TIP3   OH287751   6.622   1.555   3.467
12428TIP3    H187752   6.539   1.606   3.471
12428TIP3    H287753   6.677   1.607   3.406
12429TIP3   OH287754   6.362   1.656   3.467
12429TIP3    H187755   6.372   1.737   3.412
12429TIP3    H287756   6.341   1.694   3.554
12430TIP3   OH287757   6.228   0.327   3.422
12430TIP3    H187758   6.222   0.416   3.460
12430TIP3    H287759   6.317   0.301   3.448
12431TIP3   OH287760   6.055   1.372   3.331
12431TIP3    H187761   6.120   1.437   3.362
12431TIP3    H287762   6.107   1.327   3.262
12432TIP3   OH287763   5.889   0.640   3.246
12432TIP3    H187764   5.888   0.736   3.264
12432TIP3    H287765   5.800   0.620   3.216
12433TIP3   OH287766   6.663   1.618   3.161
12433TIP3    H187767   6.598   1.549   3.185
12433TIP3    H287768   6.738   1.561   3.135
12434TIP3   OH287769   7.121   1.593   3.175
12434TIP3    H187770   7.151   1.518   3.229
12434TIP3    H287771   7.201   1.616   3.125
12435TIP3   OH287772   6.212   1.186   3.164
12435TIP3    H187773   6.226   1.109   3.223
12435TIP3    H287774   6.282   1.174   3.099
12436TIP3   OH287775   6.755   1.298   3.141
12436TIP3    H187776   6.731   1.306   3.235
12436TIP3    H287777   6.736   1.202   3.125
12437TIP3   OH287778   6.331   0.987   3.397
12437TIP3    H187779   6.284   0.937   3.467
12437TIP3    H287780   6.358   0.919   3.333
12438TIP3   OH287781   6.439   0.808   3.222
12438TIP3    H187782   6.425   0.796   3.127
12438TIP3    H287783   6.537   0.819   3.228
12439TIP3   OH287784   7.375   1.046   3.172
12439TIP3    H187785   7.354   1.005   3.086
12439TIP3    H287786   7.381   1.141   3.147
12440TIP3   OH287787   6.427   1.880   3.329
12440TIP3    H187788   6.524   1.888   3.344
12440TIP3    H287789   6.412   1.958   3.275
12441TIP3   OH287790   5.782   1.344   3.276
12441TIP3    H187791   5.877   1.350   3.298
12441TIP3    H287792   5.783   1.274   3.208
12442TIP3   OH287793   7.489   0.925   3.389
12442TIP3    H187794   7.439   0.963   3.314
12442TIP3    H287795   7.485   0.997   3.454
12443TIP3   OH287796   7.331   0.651   3.243
12443TIP3    H187797   7.336   0.715   3.171
12443TIP3    H287798   7.310   0.567   3.195
12444TIP3   OH287799   7.252   0.396   3.157
12444TIP3    H187800   7.315   0.351   3.217
12444TIP3    H287801   7.169   0.349   3.175
12445TIP3   OH287802   7.461   0.283   3.311
12445TIP3    H187803   7.500   0.207   3.262
12445TIP3    H287804   7.533   0.347   3.319
12446TIP3   OH287805   5.826   0.093   3.418
12446TIP3    H187806   5.863   0.160   3.358
12446TIP3    H287807   5.756   0.143   3.461
12447TIP3   OH287808   5.999   0.278   3.263
12447TIP3    H187809   6.051   0.214   3.210
12447TIP3    H287810   6.063   0.306   3.332
12448TIP3   OH287811   6.689   1.807   3.350
12448TIP3    H187812   6.783   1.830   3.333
12448TIP3    H287813   6.675   1.751   3.271
12449TIP3   OH287814   5.991   1.780   3.211
12449TIP3    H187815   5.957   1.798   3.301
12449TIP3    H287816   6.059   1.713   3.226
12450TIP3   OH287817   7.667   0.458   3.428
12450TIP3    H187818   7.721   0.522   3.377
12450TIP3    H287819   7.602   0.520   3.466
12451TIP3   OH287820   8.086   0.685   3.326
12451TIP3    H187821   8.024   0.663   3.253
12451TIP3    H287822   8.160   0.721   3.279
12452TIP3   OH287823   7.742   0.924   3.284
12452TIP3    H187824   7.802   0.980   3.338
12452TIP3    H287825   7.654   0.948   3.319
12453TIP3   OH287826   7.882   1.110   3.440
12453TIP3    H187827   7.814   1.143   3.499
12453TIP3    H287828   7.931   1.189   3.414
12454TIP3   OH287829  -0.039   0.309   3.427
12454TIP3    H187830  -0.046   0.402   3.454
12454TIP3    H287831   0.056   0.306   3.445
12455TIP3   OH287832   7.943   1.372   3.329
12455TIP3    H187833   8.007   1.437   3.360
12455TIP3    H287834   7.994   1.326   3.260
12456TIP3   OH287835   7.775   0.641   3.242
12456TIP3    H187836   7.772   0.736   3.265
12456TIP3    H287837   7.685   0.621   3.217
12457TIP3   OH287838   8.096   1.183   3.165
12457TIP3    H187839   8.108   1.107   3.223
12457TIP3    H287840   8.163   1.169   3.096
12458TIP3   OH287841   7.667   1.341   3.277
12458TIP3    H187842   7.762   1.348   3.298
12458TIP3    H287843   7.670   1.273   3.206
12459TIP3   OH287844   7.709   0.093   3.418
12459TIP3    H187845   7.749   0.158   3.359
12459TIP3    H287846   7.642   0.145   3.463
12460TIP3   OH287847   7.890   0.278   3.261
12460TIP3    H187848   7.941   0.213   3.210
12460TIP3    H287849   7.952   0.305   3.330
12461TIP3   OH287850   7.885   1.778   3.205
12461TIP3    H187851   7.844   1.802   3.292
12461TIP3    H287852   7.948   1.712   3.235
12462TIP3   OH287853   1.061   2.683   3.277
12462TIP3    H187854   1.128   2.681   3.349
12462TIP3    H287855   1.094   2.611   3.223
12463TIP3   OH287856   1.289   2.769   3.438
12463TIP3    H187857   1.342   2.785   3.516
12463TIP3    H287858   1.332   2.819   3.366
12464TIP3   OH287859   1.658   1.943   3.431
12464TIP3    H187860   1.565   1.954   3.453
12464TIP3    H287861   1.679   2.029   3.389
12465TIP3   OH287862   1.777   3.387   3.258
12465TIP3    H187863   1.791   3.479   3.283
12465TIP3    H287864   1.867   3.350   3.266
12466TIP3   OH287865   1.313   3.654   3.333
12466TIP3    H187866   1.357   3.582   3.283
12466TIP3    H287867   1.321   3.623   3.424
12467TIP3   OH287868   1.438   2.867   3.215
12467TIP3    H187869   1.432   2.857   3.117
12467TIP3    H287870   1.519   2.920   3.220
12468TIP3   OH287871   0.986   2.264   3.269
12468TIP3    H187872   0.965   2.264   3.364
12468TIP3    H287873   0.963   2.173   3.243
12469TIP3   OH287874   0.675   2.302   3.182
12469TIP3    H187875   0.629   2.260   3.258
12469TIP3    H287876   0.603   2.339   3.131
12470TIP3   OH287877   0.148   2.372   3.449
12470TIP3    H187878   0.185   2.416   3.371
12470TIP3    H287879   0.064   2.415   3.458
12471TIP3   OH287880   0.542   2.577   3.325
12471TIP3    H187881   0.485   2.543   3.255
12471TIP3    H287882   0.623   2.601   3.278
12472TIP3   OH287883   1.261   2.316   3.328
12472TIP3    H187884   1.165   2.331   3.327
12472TIP3    H287885   1.293   2.397   3.376
12473TIP3   OH287886   1.354   2.506   3.475
12473TIP3    H187887   1.430   2.499   3.532
12473TIP3    H287888   1.343   2.597   3.445
12474TIP3   OH287889   1.084   3.181   3.416
12474TIP3    H187890   1.053   3.264   3.457
12474TIP3    H287891   1.016   3.119   3.443
12475TIP3   OH287892   1.820   2.524   3.478
12475TIP3    H187893   1.767   2.490   3.403
12475TIP3    H287894   1.831   2.616   3.446
12476TIP3   OH287895   0.195   2.805   3.287
12476TIP3    H187896   0.258   2.863   3.336
12476TIP3    H287897   0.111   2.837   3.322
12477TIP3   OH287898   1.395   3.207   3.300
12477TIP3    H187899   1.427   3.169   3.382
12477TIP3    H287900   1.299   3.195   3.308
12478TIP3   OH287901   1.839   3.648   3.319
12478TIP3    H187902   1.915   3.709   3.314
12478TIP3    H287903   1.771   3.710   3.353
12479TIP3   OH287904   0.810   3.318   3.149
12479TIP3    H187905   0.820   3.242   3.090
12479TIP3    H287906   0.767   3.275   3.227
12480TIP3   OH287907   0.687   3.268   3.392
12480TIP3    H187908   0.713   3.220   3.472
12480TIP3    H287909   0.699   3.360   3.424
12481TIP3   OH287910   0.332   2.997   3.434
12481TIP3    H187911   0.272   3.030   3.501
12481TIP3    H287912   0.393   3.071   3.414
12482TIP3   OH287913   0.965   3.440   3.469
12482TIP3    H187914   0.883   3.492   3.469
12482TIP3    H287915   1.019   3.491   3.407
12483TIP3   OH287916   0.707   3.541   3.468
12483TIP3    H187917   0.714   3.620   3.409
12483TIP3    H287918   0.683   3.581   3.553
12484TIP3   OH287919   0.573   2.215   3.422
12484TIP3    H187920   0.566   2.302   3.463
12484TIP3    H287921   0.662   2.191   3.450
12485TIP3   OH287922   0.398   3.258   3.332
12485TIP3    H187923   0.463   3.324   3.360
12485TIP3    H287924   0.450   3.212   3.263
12486TIP3   OH287925   0.233   2.526   3.239
12486TIP3    H187926   0.231   2.622   3.261
12486TIP3    H287927   0.144   2.502   3.213
12487TIP3   OH287928   1.010   3.503   3.161
12487TIP3    H187929   0.941   3.437   3.184
12487TIP3    H287930   1.082   3.445   3.132
12488TIP3   OH287931   1.465   3.478   3.172
12488TIP3    H187932   1.494   3.403   3.228
12488TIP3    H287933   1.544   3.502   3.124
12489TIP3   OH287934   0.552   3.068   3.163
12489TIP3    H187935   0.572   2.994   3.222
12489TIP3    H287936   0.628   3.062   3.101
12490TIP3   OH287937   1.095   3.185   3.141
12490TIP3    H187938   1.073   3.192   3.236
12490TIP3    H287939   1.079   3.088   3.126
12491TIP3   OH287940   0.673   2.871   3.396
12491TIP3    H187941   0.628   2.822   3.467
12491TIP3    H287942   0.704   2.804   3.333
12492TIP3   OH287943   0.781   2.692   3.223
12492TIP3    H187944   0.769   2.688   3.125
12492TIP3    H287945   0.879   2.704   3.232
12493TIP3   OH287946   1.722   2.927   3.171
12493TIP3    H187947   1.695   2.893   3.085
12493TIP3    H287948   1.721   3.024   3.149
12494TIP3   OH287949   0.769   3.768   3.334
12494TIP3    H187950   0.866   3.775   3.337
12494TIP3    H287951   0.750   3.827   3.260
12495TIP3   OH287952   0.128   3.225   3.284
12495TIP3    H187953   0.224   3.238   3.301
12495TIP3    H287954   0.134   3.164   3.210
12496TIP3   OH287955   1.831   2.811   3.389
12496TIP3    H187956   1.781   2.849   3.313
12496TIP3    H287957   1.829   2.883   3.454
12497TIP3   OH287958   1.673   2.537   3.241
12497TIP3    H187959   1.678   2.602   3.170
12497TIP3    H287960   1.653   2.453   3.194
12498TIP3   OH287961   1.597   2.279   3.156
12498TIP3    H187962   1.656   2.238   3.221
12498TIP3    H287963   1.511   2.238   3.176
12499TIP3   OH287964   1.804   2.164   3.311
12499TIP3    H187965   1.847   2.092   3.261
12499TIP3    H287966   1.874   2.231   3.319
12500TIP3   OH287967   0.158   1.970   3.413
12500TIP3    H187968   0.207   2.034   3.361
12500TIP3    H287969   0.099   2.023   3.466
12501TIP3   OH287970   0.344   2.168   3.263
12501TIP3    H187971   0.391   2.101   3.209
12501TIP3    H287972   0.409   2.188   3.333
12502TIP3   OH287973   1.034   3.690   3.352
12502TIP3    H187974   1.126   3.715   3.332
12502TIP3    H287975   1.016   3.638   3.270
12503TIP3   OH287976   0.330   3.661   3.211
12503TIP3    H187977   0.302   3.685   3.301
12503TIP3    H287978   0.407   3.603   3.227
12504TIP3   OH287979   2.944   2.680   3.281
12504TIP3    H187980   3.016   2.684   3.346
12504TIP3    H287981   2.980   2.613   3.221
12505TIP3   OH287982   3.173   2.767   3.439
12505TIP3    H187983   3.228   2.788   3.515
12505TIP3    H287984   3.215   2.818   3.367
12506TIP3   OH287985   3.543   1.942   3.429
12506TIP3    H187986   3.451   1.955   3.453
12506TIP3    H287987   3.565   2.029   3.390
12507TIP3   OH287988   3.658   3.380   3.254
12507TIP3    H187989   3.671   3.473   3.281
12507TIP3    H287990   3.750   3.350   3.264
12508TIP3   OH287991   3.203   3.657   3.333
12508TIP3    H187992   3.242   3.581   3.283
12508TIP3    H287993   3.206   3.623   3.423
12509TIP3   OH287994   3.321   2.869   3.217
12509TIP3    H187995   3.317   2.854   3.120
12509TIP3    H287996   3.405   2.916   3.224
12510TIP3   OH287997   2.876   2.261   3.271
12510TIP3    H187998   2.848   2.261   3.363
12510TIP3    H287999   2.849   2.173   3.240
12511TIP3   OH288000   2.559   2.302   3.181
12511TIP3    H188001   2.515   2.263   3.260
12511TIP3    H288002   2.486   2.343   3.134
12512TIP3   OH288003   2.011   2.341   3.426
12512TIP3    H188004   2.063   2.407   3.376
12512TIP3    H288005   1.947   2.404   3.466
12513TIP3   OH288006   2.429   2.574   3.326
12513TIP3    H188007   2.372   2.545   3.253
12513TIP3    H288008   2.508   2.602   3.278
12514TIP3   OH288009   3.147   2.317   3.332
12514TIP3    H188010   3.051   2.331   3.323
12514TIP3    H288011   3.178   2.400   3.374
12515TIP3   OH288012   3.218   2.512   3.502
12515TIP3    H188013   3.309   2.492   3.528
12515TIP3    H288014   3.227   2.590   3.444
12516TIP3   OH288015   2.971   3.180   3.419
12516TIP3    H188016   2.940   3.265   3.455
12516TIP3    H288017   2.901   3.119   3.443
12517TIP3   OH288018   3.706   2.525   3.478
12517TIP3    H188019   3.653   2.491   3.403
12517TIP3    H288020   3.717   2.617   3.446
12518TIP3   OH288021   2.085   2.805   3.290
12518TIP3    H188022   2.146   2.866   3.337
12518TIP3    H288023   1.997   2.835   3.320
12519TIP3   OH288024   3.282   3.208   3.299
12519TIP3    H188025   3.312   3.172   3.383
12519TIP3    H288026   3.185   3.197   3.306
12520TIP3   OH288027   3.725   3.648   3.320
12520TIP3    H188028   3.801   3.709   3.315
12520TIP3    H288029   3.657   3.710   3.354
12521TIP3   OH288030   2.693   3.318   3.147
12521TIP3    H188031   2.709   3.241   3.090
12521TIP3    H288032   2.654   3.275   3.227
12522TIP3   OH288033   2.576   3.268   3.392
12522TIP3    H188034   2.599   3.221   3.473
12522TIP3    H288035   2.586   3.361   3.423
12523TIP3   OH288036   2.219   2.998   3.435
12523TIP3    H188037   2.159   3.029   3.503
12523TIP3    H288038   2.278   3.072   3.414
12524TIP3   OH288039   2.851   3.440   3.467
12524TIP3    H188040   2.768   3.492   3.470
12524TIP3    H288041   2.905   3.492   3.405
12525TIP3   OH288042   2.592   3.541   3.470
12525TIP3    H188043   2.600   3.620   3.410
12525TIP3    H288044   2.569   3.582   3.554
12526TIP3   OH288045   2.458   2.214   3.419
12526TIP3    H188046   2.449   2.301   3.461
12526TIP3    H288047   2.546   2.190   3.449
12527TIP3   OH288048   2.284   3.259   3.333
12527TIP3    H188049   2.350   3.324   3.360
12527TIP3    H288050   2.334   3.212   3.263
12528TIP3   OH288051   2.118   2.525   3.244
12528TIP3    H188052   2.117   2.621   3.263
12528TIP3    H288053   2.028   2.507   3.215
12529TIP3   OH288054   2.895   3.505   3.163
12529TIP3    H188055   2.826   3.438   3.184
12529TIP3    H288056   2.965   3.446   3.132
12530TIP3   OH288057   3.353   3.485   3.181
12530TIP3    H188058   3.376   3.402   3.225
12530TIP3    H288059   3.427   3.500   3.122
12531TIP3   OH288060   2.438   3.072   3.168
12531TIP3    H188061   2.456   2.995   3.224
12531TIP3    H288062   2.512   3.063   3.104
12532TIP3   OH288063   2.983   3.183   3.146
12532TIP3    H188064   2.957   3.192   3.238
12532TIP3    H288065   2.963   3.088   3.126
12533TIP3   OH288066   2.561   2.871   3.395
12533TIP3    H188067   2.514   2.823   3.465
12533TIP3    H288068   2.587   2.802   3.331
12534TIP3   OH288069   2.669   2.688   3.224
12534TIP3    H188070   2.653   2.688   3.127
12534TIP3    H288071   2.765   2.705   3.232
12535TIP3   OH288072   3.602   2.932   3.172
12535TIP3    H188073   3.585   2.891   3.086
12535TIP3    H288074   3.608   3.027   3.147
12536TIP3   OH288075   2.655   3.767   3.333
12536TIP3    H188076   2.752   3.775   3.337
12536TIP3    H288077   2.636   3.827   3.260
12537TIP3   OH288078   2.007   3.227   3.275
12537TIP3    H188079   2.102   3.234   3.298
12537TIP3    H288080   2.012   3.157   3.205
12538TIP3   OH288081   3.718   2.811   3.389
12538TIP3    H188082   3.667   2.848   3.314
12538TIP3    H288083   3.714   2.883   3.454
12539TIP3   OH288084   3.558   2.537   3.242
12539TIP3    H188085   3.565   2.601   3.171
12539TIP3    H288086   3.539   2.453   3.195
12540TIP3   OH288087   3.482   2.279   3.155
12540TIP3    H188088   3.542   2.238   3.220
12540TIP3    H288089   3.396   2.238   3.176
12541TIP3   OH288090   3.688   2.166   3.309
12541TIP3    H188091   3.731   2.092   3.263
12541TIP3    H288092   3.759   2.231   3.320
12542TIP3   OH288093   2.045   1.972   3.414
12542TIP3    H188094   2.094   2.036   3.362
12542TIP3    H288095   1.986   2.028   3.463
12543TIP3   OH288096   2.231   2.166   3.262
12543TIP3    H188097   2.279   2.098   3.212
12543TIP3    H288098   2.293   2.190   3.334
12544TIP3   OH288099   2.920   3.690   3.353
12544TIP3    H188100   3.011   3.716   3.332
12544TIP3    H288101   2.902   3.637   3.270
12545TIP3   OH288102   2.214   3.661   3.211
12545TIP3    H188103   2.188   3.685   3.301
12545TIP3    H288104   2.291   3.602   3.225
12546TIP3   OH288105   4.830   2.681   3.279
12546TIP3    H188106   4.901   2.685   3.346
12546TIP3    H288107   4.866   2.612   3.221
12547TIP3   OH288108   5.059   2.767   3.440
12547TIP3    H188109   5.114   2.788   3.515
12547TIP3    H288110   5.100   2.818   3.367
12548TIP3   OH288111   5.431   1.944   3.432
12548TIP3    H188112   5.337   1.953   3.452
12548TIP3    H288113   5.451   2.028   3.388
12549TIP3   OH288114   5.547   3.381   3.251
12549TIP3    H188115   5.558   3.472   3.284
12549TIP3    H288116   5.638   3.348   3.267
12550TIP3   OH288117   5.084   3.656   3.334
12550TIP3    H188118   5.127   3.584   3.283
12550TIP3    H288119   5.093   3.623   3.424
12551TIP3   OH288120   5.205   2.870   3.217
12551TIP3    H188121   5.202   2.852   3.120
12551TIP3    H288122   5.290   2.916   3.223
12552TIP3   OH288123   4.763   2.262   3.273
12552TIP3    H188124   4.733   2.261   3.365
12552TIP3    H288125   4.734   2.175   3.241
12553TIP3   OH288126   4.445   2.301   3.185
12553TIP3    H188127   4.398   2.261   3.261
12553TIP3    H288128   4.375   2.342   3.132
12554TIP3   OH288129   3.896   2.342   3.425
12554TIP3    H188130   3.949   2.407   3.375
12554TIP3    H288131   3.832   2.404   3.466
12555TIP3   OH288132   4.314   2.576   3.327
12555TIP3    H188133   4.258   2.546   3.253
12555TIP3    H288134   4.394   2.602   3.278
12556TIP3   OH288135   5.033   2.317   3.332
12556TIP3    H188136   4.937   2.331   3.323
12556TIP3    H288137   5.064   2.399   3.374
12557TIP3   OH288138   5.104   2.512   3.501
12557TIP3    H188139   5.195   2.492   3.528
12557TIP3    H288140   5.113   2.590   3.444
12558TIP3   OH288141   4.857   3.181   3.417
12558TIP3    H188142   4.825   3.265   3.456
12558TIP3    H288143   4.787   3.119   3.443
12559TIP3   OH288144   5.592   2.524   3.478
12559TIP3    H188145   5.538   2.490   3.403
12559TIP3    H288146   5.602   2.616   3.446
12560TIP3   OH288147   3.970   2.808   3.287
12560TIP3    H188148   4.031   2.866   3.338
12560TIP3    H288149   3.882   2.835   3.320
12561TIP3   OH288150   5.168   3.207   3.299
12561TIP3    H188151   5.198   3.172   3.383
12561TIP3    H288152   5.072   3.197   3.309
12562TIP3   OH288153   5.610   3.649   3.316
12562TIP3    H188154   5.687   3.709   3.316
12562TIP3    H288155   5.543   3.709   3.355
12563TIP3   OH288156   4.581   3.318   3.148
12563TIP3    H188157   4.591   3.241   3.090
12563TIP3    H288158   4.539   3.275   3.227
12564TIP3   OH288159   4.461   3.268   3.392
12564TIP3    H188160   4.485   3.220   3.472
12564TIP3    H288161   4.471   3.361   3.424
12565TIP3   OH288162   4.105   2.998   3.436
12565TIP3    H188163   4.043   3.031   3.500
12565TIP3    H288164   4.164   3.072   3.414
12566TIP3   OH288165   4.736   3.440   3.469
12566TIP3    H188166   4.654   3.492   3.469
12566TIP3    H288167   4.791   3.491   3.407
12567TIP3   OH288168   4.479   3.542   3.468
12567TIP3    H188169   4.486   3.621   3.409
12567TIP3    H288170   4.455   3.581   3.552
12568TIP3   OH288171   4.343   2.213   3.423
12568TIP3    H188172   4.335   2.301   3.462
12568TIP3    H288173   4.432   2.190   3.450
12569TIP3   OH288174   4.169   3.260   3.331
12569TIP3    H188175   4.236   3.324   3.360
12569TIP3    H288176   4.220   3.212   3.263
12570TIP3   OH288177   4.003   2.526   3.244
12570TIP3    H188178   4.002   2.621   3.264
12570TIP3    H288179   3.913   2.507   3.216
12571TIP3   OH288180   4.780   3.504   3.159
12571TIP3    H188181   4.712   3.437   3.185
12571TIP3    H288182   4.853   3.446   3.134
12572TIP3   OH288183   5.235   3.479   3.181
12572TIP3    H188184   5.265   3.401   3.230
12572TIP3    H288185   5.310   3.500   3.125
12573TIP3   OH288186   4.325   3.071   3.163
12573TIP3    H188187   4.342   2.995   3.222
12573TIP3    H288188   4.399   3.061   3.101
12574TIP3   OH288189   4.872   3.183   3.142
12574TIP3    H188190   4.843   3.192   3.234
12574TIP3    H288191   4.849   3.088   3.126
12575TIP3   OH288192   4.446   2.872   3.398
12575TIP3    H188193   4.398   2.822   3.466
12575TIP3    H288194   4.473   2.804   3.333
12576TIP3   OH288195   4.554   2.692   3.223
12576TIP3    H188196   4.539   2.687   3.126
12576TIP3    H288197   4.651   2.704   3.230
12577TIP3   OH288198   5.489   2.931   3.173
12577TIP3    H188199   5.469   2.890   3.087
12577TIP3    H288200   5.495   3.026   3.149
12578TIP3   OH288201   4.540   3.768   3.333
12578TIP3    H188202   4.637   3.775   3.337
12578TIP3    H288203   4.521   3.828   3.260
12579TIP3   OH288204   3.893   3.225   3.278
12579TIP3    H188205   3.989   3.234   3.298
12579TIP3    H288206   3.898   3.158   3.206
12580TIP3   OH288207   5.603   2.812   3.391
12580TIP3    H188208   5.554   2.848   3.313
12580TIP3    H288209   5.598   2.884   3.454
12581TIP3   OH288210   5.444   2.536   3.244
12581TIP3    H188211   5.451   2.600   3.172
12581TIP3    H288212   5.426   2.453   3.195
12582TIP3   OH288213   5.367   2.279   3.155
12582TIP3    H188214   5.427   2.238   3.221
12582TIP3    H288215   5.282   2.238   3.176
12583TIP3   OH288216   5.574   2.166   3.310
12583TIP3    H188217   5.617   2.093   3.262
12583TIP3    H288218   5.646   2.231   3.318
12584TIP3   OH288219   3.930   1.972   3.414
12584TIP3    H188220   3.980   2.035   3.361
12584TIP3    H288221   3.872   2.028   3.465
12585TIP3   OH288222   4.117   2.167   3.259
12585TIP3    H188223   4.164   2.096   3.213
12585TIP3    H288224   4.178   2.190   3.332
12586TIP3   OH288225   4.806   3.690   3.353
12586TIP3    H188226   4.897   3.716   3.331
12586TIP3    H288227   4.787   3.638   3.271
12587TIP3   OH288228   4.100   3.661   3.211
12587TIP3    H188229   4.073   3.685   3.301
12587TIP3    H288230   4.176   3.602   3.225
12588TIP3   OH288231   6.715   2.680   3.280
12588TIP3    H188232   6.787   2.685   3.346
12588TIP3    H288233   6.751   2.612   3.221
12589TIP3   OH288234   6.944   2.769   3.440
12589TIP3    H188235   7.000   2.786   3.514
12589TIP3    H288236   6.984   2.817   3.365
12590TIP3   OH288237   7.316   1.944   3.432
12590TIP3    H188238   7.222   1.953   3.452
12590TIP3    H288239   7.337   2.028   3.388
12591TIP3   OH288240   7.430   3.380   3.256
12591TIP3    H188241   7.445   3.473   3.282
12591TIP3    H288242   7.522   3.349   3.264
12592TIP3   OH288243   6.973   3.656   3.332
12592TIP3    H188244   7.014   3.581   3.283
12592TIP3    H288245   6.978   3.624   3.423
12593TIP3   OH288246   7.092   2.872   3.218
12593TIP3    H188247   7.087   2.849   3.122
12593TIP3    H288248   7.178   2.915   3.221
12594TIP3   OH288249   6.648   2.258   3.273
12594TIP3    H188250   6.620   2.261   3.365
12594TIP3    H288251   6.619   2.172   3.242
12595TIP3   OH288252   6.330   2.296   3.179
12595TIP3    H188253   6.285   2.265   3.260
12595TIP3    H288254   6.260   2.343   3.131
12596TIP3   OH288255   5.783   2.341   3.424
12596TIP3    H188256   5.834   2.407   3.373
12596TIP3    H288257   5.718   2.403   3.464
12597TIP3   OH288258   6.199   2.577   3.326
12597TIP3    H188259   6.142   2.542   3.255
12597TIP3    H288260   6.280   2.601   3.278
12598TIP3   OH288261   6.919   2.318   3.332
12598TIP3    H188262   6.823   2.331   3.323
12598TIP3    H288263   6.950   2.400   3.375
12599TIP3   OH288264   6.990   2.515   3.504
12599TIP3    H188265   7.081   2.490   3.526
12599TIP3    H288266   6.999   2.588   3.441
12600TIP3   OH288267   6.741   3.180   3.417
12600TIP3    H188268   6.711   3.265   3.456
12600TIP3    H288269   6.672   3.119   3.443
12601TIP3   OH288270   7.474   2.526   3.480
12601TIP3    H188271   7.423   2.490   3.404
12601TIP3    H288272   7.490   2.616   3.444
12602TIP3   OH288273   5.855   2.805   3.293
12602TIP3    H188274   5.916   2.869   3.334
12602TIP3    H288275   5.767   2.836   3.320
12603TIP3   OH288276   7.054   3.206   3.299
12603TIP3    H188277   7.083   3.172   3.383
12603TIP3    H288278   6.957   3.196   3.307
12604TIP3   OH288279   7.496   3.648   3.319
12604TIP3    H188280   7.572   3.709   3.315
12604TIP3    H288281   7.428   3.710   3.353
12605TIP3   OH288282   6.467   3.317   3.149
12605TIP3    H188283   6.477   3.241   3.090
12605TIP3    H288284   6.424   3.275   3.228
12606TIP3   OH288285   6.347   3.268   3.392
12606TIP3    H188286   6.370   3.220   3.472
12606TIP3    H288287   6.357   3.361   3.424
12607TIP3   OH288288   5.995   2.996   3.442
12607TIP3    H188289   5.926   3.034   3.497
12607TIP3    H288290   6.049   3.071   3.412
12608TIP3   OH288291   6.623   3.441   3.468
12608TIP3    H188292   6.540   3.492   3.469
12608TIP3    H288293   6.676   3.492   3.406
12609TIP3   OH288294   6.364   3.541   3.468
12609TIP3    H188295   6.371   3.620   3.409
12609TIP3    H288296   6.340   3.582   3.553
12610TIP3   OH288297   6.230   2.212   3.419
12610TIP3    H188298   6.219   2.299   3.461
12610TIP3    H288299   6.318   2.190   3.452
12611TIP3   OH288300   6.055   3.260   3.331
12611TIP3    H188301   6.122   3.323   3.359
12611TIP3    H288302   6.105   3.212   3.262
12612TIP3   OH288303   5.888   2.525   3.246
12612TIP3    H188304   5.886   2.621   3.264
12612TIP3    H288305   5.800   2.506   3.215
12613TIP3   OH288306   6.667   3.504   3.162
12613TIP3    H188307   6.597   3.438   3.183
12613TIP3    H288308   6.738   3.445   3.132
12614TIP3   OH288309   7.120   3.479   3.175
12614TIP3    H188310   7.151   3.404   3.229
12614TIP3    H288311   7.200   3.502   3.123
12615TIP3   OH288312   6.210   3.068   3.163
12615TIP3    H188313   6.228   2.995   3.224
12615TIP3    H288314   6.285   3.062   3.101
12616TIP3   OH288315   6.756   3.183   3.142
12616TIP3    H188316   6.730   3.192   3.235
12616TIP3    H288317   6.735   3.088   3.126
12617TIP3   OH288318   6.329   2.871   3.396
12617TIP3    H188319   6.286   2.822   3.467
12617TIP3    H288320   6.359   2.804   3.331
12618TIP3   OH288321   6.439   2.697   3.218
12618TIP3    H188322   6.427   2.679   3.124
12618TIP3    H288323   6.537   2.703   3.230
12619TIP3   OH288324   7.371   2.931   3.176
12619TIP3    H188325   7.358   2.889   3.089
12619TIP3    H288326   7.382   3.025   3.150
12620TIP3   OH288327   6.426   3.768   3.335
12620TIP3    H188328   6.523   3.775   3.336
12620TIP3    H288329   6.407   3.826   3.259
12621TIP3   OH288330   5.779   3.225   3.279
12621TIP3    H188331   5.875   3.235   3.298
12621TIP3    H288332   5.784   3.158   3.207
12622TIP3   OH288333   7.485   2.812   3.392
12622TIP3    H188334   7.441   2.848   3.312
12622TIP3    H288335   7.488   2.886   3.453
12623TIP3   OH288336   7.327   2.536   3.245
12623TIP3    H188337   7.336   2.599   3.173
12623TIP3    H288338   7.312   2.453   3.194
12624TIP3   OH288339   7.253   2.278   3.155
12624TIP3    H188340   7.313   2.237   3.220
12624TIP3    H288341   7.167   2.238   3.176
12625TIP3   OH288342   7.460   2.163   3.313
12625TIP3    H188343   7.503   2.092   3.260
12625TIP3    H288344   7.530   2.230   3.318
12626TIP3   OH288345   5.816   1.971   3.414
12626TIP3    H188346   5.864   2.038   3.362
12626TIP3    H288347   5.757   2.027   3.464
12627TIP3   OH288348   6.001   2.164   3.264
12627TIP3    H188349   6.050   2.100   3.211
12627TIP3    H288350   6.064   2.192   3.333
12628TIP3   OH288351   6.692   3.689   3.353
12628TIP3    H188352   6.782   3.717   3.330
12628TIP3    H288353   6.672   3.639   3.271
12629TIP3   OH288354   5.982   3.660   3.209
12629TIP3    H188355   5.960   3.686   3.300
12629TIP3    H288356   6.060   3.603   3.223
12630TIP3   OH288357   7.667   2.342   3.428
12630TIP3    H188358   7.721   2.405   3.377
12630TIP3    H288359   7.603   2.405   3.467
12631TIP3   OH288360   8.085   2.575   3.326
12631TIP3    H188361   8.026   2.547   3.253
12631TIP3    H288362   8.162   2.603   3.278
12632TIP3   OH288363   7.742   2.810   3.285
12632TIP3    H188364   7.802   2.868   3.336
12632TIP3    H288365   7.654   2.834   3.319
12633TIP3   OH288366   7.882   2.996   3.441
12633TIP3    H188367   7.814   3.029   3.500
12633TIP3    H288368   7.932   3.074   3.414
12634TIP3   OH288369  -0.041   2.199   3.427
12634TIP3    H188370  -0.043   2.292   3.454
12634TIP3    H288371   0.055   2.188   3.440
12635TIP3   OH288372   7.942   3.260   3.331
12635TIP3    H188373   8.007   3.325   3.358
12635TIP3    H288374   7.992   3.211   3.262
12636TIP3   OH288375   7.777   2.525   3.249
12636TIP3    H188376   7.773   2.622   3.261
12636TIP3    H288377   7.688   2.507   3.213
12637TIP3   OH288378   8.067   3.068   3.178
12637TIP3    H188379   8.097   2.994   3.232
12637TIP3    H288380   8.146   3.070   3.122
12638TIP3   OH288381   7.667   3.227   3.280
12638TIP3    H188382   7.762   3.237   3.299
12638TIP3    H288383   7.670   3.160   3.208
12639TIP3   OH288384   7.701   1.970   3.409
12639TIP3    H188385   7.750   2.039   3.363
12639TIP3    H288386   7.645   2.026   3.464
12640TIP3   OH288387   7.887   2.164   3.263
12640TIP3    H188388   7.941   2.102   3.212
12640TIP3    H288389   7.951   2.194   3.331
12641TIP3   OH288390   7.877   3.661   3.209
12641TIP3    H188391   7.846   3.688   3.298
12641TIP3    H288392   7.950   3.601   3.229
12642TIP3   OH288393   1.059   4.566   3.279
12642TIP3    H188394   1.131   4.570   3.346
12642TIP3    H288395   1.094   4.498   3.221
12643TIP3   OH288396   1.288   4.653   3.439
12643TIP3    H188397   1.342   4.674   3.515
12643TIP3    H288398   1.329   4.704   3.367
12644TIP3   OH288399   1.660   3.829   3.430
12644TIP3    H188400   1.566   3.838   3.451
12644TIP3    H288401   1.680   3.914   3.388
12645TIP3   OH288402   1.773   5.265   3.258
12645TIP3    H188403   1.787   5.359   3.280
12645TIP3    H288404   1.865   5.235   3.263
12646TIP3   OH288405   1.317   5.542   3.331
12646TIP3    H188406   1.357   5.466   3.282
12646TIP3    H288407   1.321   5.510   3.423
12647TIP3   OH288408   1.434   4.758   3.216
12647TIP3    H188409   1.431   4.739   3.119
12647TIP3    H288410   1.519   4.801   3.224
12648TIP3   OH288411   0.990   4.148   3.273
12648TIP3    H188412   0.961   4.146   3.365
12648TIP3    H288413   0.962   4.060   3.240
12649TIP3   OH288414   0.676   4.185   3.182
12649TIP3    H188415   0.629   4.148   3.260
12649TIP3    H288416   0.604   4.228   3.133
12650TIP3   OH288417   0.148   4.256   3.448
12650TIP3    H188418   0.183   4.303   3.370
12650TIP3    H288419   0.065   4.300   3.463
12651TIP3   OH288420   0.541   4.461   3.326
12651TIP3    H188421   0.486   4.430   3.253
12651TIP3    H288422   0.622   4.487   3.279
12652TIP3   OH288423   1.261   4.203   3.332
12652TIP3    H188424   1.166   4.217   3.323
12652TIP3    H288425   1.293   4.285   3.375
12653TIP3   OH288426   1.333   4.398   3.502
12653TIP3    H188427   1.423   4.378   3.528
12653TIP3    H288428   1.341   4.475   3.444
12654TIP3   OH288429   1.085   5.066   3.417
12654TIP3    H188430   1.054   5.151   3.456
12654TIP3    H288431   1.015   5.005   3.443
12655TIP3   OH288432   1.821   4.410   3.478
12655TIP3    H188433   1.767   4.376   3.403
12655TIP3    H288434   1.831   4.502   3.446
12656TIP3   OH288435   0.195   4.693   3.288
12656TIP3    H188436   0.260   4.750   3.337
12656TIP3    H288437   0.112   4.723   3.323
12657TIP3   OH288438   1.395   5.092   3.298
12657TIP3    H188439   1.426   5.057   3.382
12657TIP3    H288440   1.299   5.081   3.309
12658TIP3   OH288441   1.838   5.533   3.320
12658TIP3    H188442   1.915   5.594   3.314
12658TIP3    H288443   1.771   5.596   3.353
12659TIP3   OH288444   0.809   5.204   3.148
12659TIP3    H188445   0.823   5.126   3.092
12659TIP3    H288446   0.767   5.162   3.226
12660TIP3   OH288447   0.688   5.155   3.392
12660TIP3    H188448   0.713   5.106   3.471
12660TIP3    H288449   0.699   5.246   3.424
12661TIP3   OH288450   0.333   4.883   3.434
12661TIP3    H188451   0.272   4.915   3.501
12661TIP3    H288452   0.393   4.957   3.414
12662TIP3   OH288453   0.966   5.326   3.468
12662TIP3    H188454   0.883   5.377   3.469
12662TIP3    H288455   1.019   5.378   3.405
12663TIP3   OH288456   0.707   5.426   3.469
12663TIP3    H188457   0.715   5.506   3.411
12663TIP3    H288458   0.683   5.467   3.553
12664TIP3   OH288459   0.571   4.099   3.421
12664TIP3    H188460   0.563   4.187   3.462
12664TIP3    H288461   0.660   4.075   3.449
12665TIP3   OH288462   0.398   5.144   3.333
12665TIP3    H188463   0.462   5.211   3.360
12665TIP3    H288464   0.449   5.099   3.262
12666TIP3   OH288465   0.233   4.413   3.245
12666TIP3    H188466   0.231   4.509   3.262
12666TIP3    H288467   0.147   4.387   3.211
12667TIP3   OH288468   1.009   5.389   3.160
12667TIP3    H188469   0.941   5.323   3.184
12667TIP3    H288470   1.081   5.331   3.132
12668TIP3   OH288471   1.465   5.365   3.179
12668TIP3    H188472   1.495   5.288   3.229
12668TIP3    H288473   1.541   5.388   3.123
12669TIP3   OH288474   0.553   4.956   3.164
12669TIP3    H188475   0.571   4.880   3.222
12669TIP3    H288476   0.627   4.947   3.101
12670TIP3   OH288477   1.100   5.068   3.143
12670TIP3    H188478   1.071   5.078   3.235
12670TIP3    H288479   1.077   4.973   3.126
12671TIP3   OH288480   0.675   4.757   3.398
12671TIP3    H188481   0.627   4.708   3.466
12671TIP3    H288482   0.703   4.690   3.333
12672TIP3   OH288483   0.781   4.578   3.222
12672TIP3    H188484   0.768   4.572   3.125
12672TIP3    H288485   0.879   4.589   3.230
12673TIP3   OH288486   1.716   4.816   3.172
12673TIP3    H188487   1.699   4.776   3.086
12673TIP3    H288488   1.725   4.911   3.148
12674TIP3   OH288489   0.769   5.652   3.333
12674TIP3    H188490   0.866   5.660   3.337
12674TIP3    H288491   0.751   5.713   3.260
12675TIP3   OH288492   0.129   5.112   3.283
12675TIP3    H188493   0.224   5.123   3.302
12675TIP3    H288494   0.134   5.049   3.211
12676TIP3   OH288495   1.832   4.697   3.389
12676TIP3    H188496   1.782   4.734   3.314
12676TIP3    H288497   1.828   4.768   3.454
12677TIP3   OH288498   1.673   4.423   3.242
12677TIP3    H188499   1.680   4.486   3.170
12677TIP3    H288500   1.654   4.338   3.196
12678TIP3   OH288501   1.596   4.167   3.157
12678TIP3    H188502   1.656   4.123   3.220
12678TIP3    H288503   1.512   4.124   3.175
12679TIP3   OH288504   1.802   4.054   3.309
12679TIP3    H188505   1.847   3.978   3.266
12679TIP3    H288506   1.874   4.118   3.320
12680TIP3   OH288507   0.160   3.856   3.418
12680TIP3    H188508   0.206   3.920   3.361
12680TIP3    H288509   0.096   3.908   3.465
12681TIP3   OH288510   0.344   4.051   3.264
12681TIP3    H188511   0.393   3.986   3.211
12681TIP3    H288512   0.409   4.075   3.333
12682TIP3   OH288513   1.034   5.576   3.351
12682TIP3    H188514   1.126   5.601   3.332
12682TIP3    H288515   1.016   5.524   3.269
12683TIP3   OH288516   0.332   5.548   3.213
12683TIP3    H188517   0.303   5.570   3.303
12683TIP3    H288518   0.407   5.488   3.227
12684TIP3   OH288519   2.952   4.573   3.277
12684TIP3    H188520   3.016   4.566   3.351
12684TIP3    H288521   2.976   4.496   3.224
12685TIP3   OH288522   3.174   4.654   3.438
12685TIP3    H188523   3.226   4.672   3.517
12685TIP3    H288524   3.219   4.705   3.370
12686TIP3   OH288525   3.545   3.830   3.433
12686TIP3    H188526   3.452   3.839   3.453
12686TIP3    H288527   3.565   3.913   3.387
12687TIP3   OH288528   3.659   5.265   3.255
12687TIP3    H188529   3.673   5.358   3.281
12687TIP3    H288530   3.752   5.235   3.264
12688TIP3   OH288531   3.202   5.542   3.332
12688TIP3    H188532   3.242   5.467   3.283
12688TIP3    H288533   3.206   5.509   3.423
12689TIP3   OH288534   3.332   4.755   3.221
12689TIP3    H188535   3.345   4.733   3.128
12689TIP3    H288536   3.416   4.806   3.233
12690TIP3   OH288537   2.878   4.145   3.275
12690TIP3    H188538   2.846   4.145   3.366
12690TIP3    H288539   2.847   4.059   3.240
12691TIP3   OH288540   2.559   4.185   3.185
12691TIP3    H188541   2.512   4.146   3.261
12691TIP3    H288542   2.488   4.228   3.134
12692TIP3   OH288543   2.011   4.227   3.424
12692TIP3    H188544   2.064   4.293   3.376
12692TIP3    H288545   1.947   4.289   3.466
12693TIP3   OH288546   2.429   4.461   3.326
12693TIP3    H188547   2.373   4.431   3.253
12693TIP3    H288548   2.509   4.488   3.277
12694TIP3   OH288549   3.147   4.204   3.332
12694TIP3    H188550   3.051   4.215   3.324
12694TIP3    H288551   3.178   4.285   3.376
12695TIP3   OH288552   3.218   4.398   3.500
12695TIP3    H188553   3.308   4.377   3.529
12695TIP3    H288554   3.228   4.476   3.444
12696TIP3   OH288555   2.970   5.065   3.415
12696TIP3    H188556   2.941   5.150   3.455
12696TIP3    H288557   2.901   5.005   3.445
12697TIP3   OH288558   3.706   4.410   3.478
12697TIP3    H188559   3.652   4.376   3.404
12697TIP3    H288560   3.717   4.502   3.447
12698TIP3   OH288561   2.084   4.693   3.287
12698TIP3    H188562   2.145   4.752   3.337
12698TIP3    H288563   1.997   4.720   3.320
12699TIP3   OH288564   3.281   5.087   3.296
12699TIP3    H188565   3.313   5.062   3.383
12699TIP3    H288566   3.185   5.085   3.311
12700TIP3   OH288567   3.725   5.534   3.319
12700TIP3    H188568   3.801   5.594   3.315
12700TIP3    H288569   3.657   5.596   3.353
12701TIP3   OH288570   2.697   5.201   3.150
12701TIP3    H188571   2.707   5.126   3.089
12701TIP3    H288572   2.652   5.161   3.228
12702TIP3   OH288573   2.575   5.153   3.392
12702TIP3    H188574   2.599   5.107   3.473
12702TIP3    H288575   2.586   5.246   3.422
12703TIP3   OH288576   2.219   4.883   3.436
12703TIP3    H188577   2.157   4.916   3.501
12703TIP3    H288578   2.278   4.958   3.415
12704TIP3   OH288579   2.853   5.326   3.467
12704TIP3    H188580   2.769   5.377   3.468
12704TIP3    H288581   2.905   5.378   3.403
12705TIP3   OH288582   2.591   5.427   3.471
12705TIP3    H188583   2.600   5.504   3.409
12705TIP3    H288584   2.569   5.470   3.553
12706TIP3   OH288585   2.457   4.099   3.421
12706TIP3    H188586   2.449   4.187   3.462
12706TIP3    H288587   2.546   4.075   3.450
12707TIP3   OH288588   2.284   5.143   3.332
12707TIP3    H188589   2.348   5.211   3.360
12707TIP3    H288590   2.335   5.098   3.262
12708TIP3   OH288591   2.118   4.411   3.244
12708TIP3    H188592   2.116   4.507   3.266
12708TIP3    H288593   2.028   4.392   3.217
12709TIP3   OH288594   2.898   5.389   3.171
12709TIP3    H188595   2.824   5.324   3.181
12709TIP3    H288596   2.964   5.334   3.129
12710TIP3   OH288597   3.349   5.365   3.175
12710TIP3    H188598   3.380   5.290   3.228
12710TIP3    H288599   3.427   5.387   3.122
12711TIP3   OH288600   2.440   4.958   3.165
12711TIP3    H188601   2.456   4.880   3.221
12711TIP3    H288602   2.509   4.946   3.099
12712TIP3   OH288603   2.989   5.065   3.141
12712TIP3    H188604   2.957   5.082   3.232
12712TIP3    H288605   2.955   4.974   3.128
12713TIP3   OH288606   2.560   4.757   3.399
12713TIP3    H188607   2.513   4.708   3.467
12713TIP3    H288608   2.587   4.689   3.334
12714TIP3   OH288609   2.669   4.581   3.220
12714TIP3    H188610   2.654   4.568   3.124
12714TIP3    H288611   2.766   4.589   3.228
12715TIP3   OH288612   3.598   4.817   3.173
12715TIP3    H188613   3.590   4.776   3.084
12715TIP3    H288614   3.612   4.912   3.149
12716TIP3   OH288615   2.655   5.655   3.337
12716TIP3    H188616   2.752   5.660   3.336
12716TIP3    H288617   2.636   5.711   3.260
12717TIP3   OH288618   2.007   5.112   3.275
12717TIP3    H188619   2.102   5.120   3.299
12717TIP3    H288620   2.013   5.042   3.206
12718TIP3   OH288621   3.718   4.696   3.390
12718TIP3    H188622   3.669   4.734   3.314
12718TIP3    H288623   3.714   4.768   3.454
12719TIP3   OH288624   3.554   4.424   3.242
12719TIP3    H188625   3.567   4.486   3.170
12719TIP3    H288626   3.541   4.338   3.196
12720TIP3   OH288627   3.482   4.165   3.155
12720TIP3    H188628   3.541   4.124   3.220
12720TIP3    H288629   3.396   4.124   3.176
12721TIP3   OH288630   3.688   4.051   3.312
12721TIP3    H188631   3.731   3.978   3.262
12721TIP3    H288632   3.760   4.117   3.319
12722TIP3   OH288633   2.047   3.857   3.416
12722TIP3    H188634   2.094   3.922   3.361
12722TIP3    H288635   1.986   3.914   3.463
12723TIP3   OH288636   2.230   4.050   3.264
12723TIP3    H188637   2.279   3.985   3.211
12723TIP3    H288638   2.294   4.077   3.333
12724TIP3   OH288639   2.921   5.578   3.352
12724TIP3    H188640   3.013   5.601   3.331
12724TIP3    H288641   2.901   5.525   3.271
12725TIP3   OH288642   2.211   5.543   3.211
12725TIP3    H188643   2.189   5.571   3.301
12725TIP3    H288644   2.293   5.490   3.223
12726TIP3   OH288645   4.830   4.565   3.283
12726TIP3    H188646   4.904   4.570   3.347
12726TIP3    H288647   4.865   4.500   3.222
12727TIP3   OH288648   5.059   4.653   3.439
12727TIP3    H188649   5.113   4.674   3.515
12727TIP3    H288650   5.100   4.703   3.366
12728TIP3   OH288651   5.431   3.829   3.432
12728TIP3    H188652   5.337   3.837   3.450
12728TIP3    H288653   5.451   3.915   3.389
12729TIP3   OH288654   5.543   5.265   3.255
12729TIP3    H188655   5.557   5.358   3.281
12729TIP3    H288656   5.635   5.235   3.264
12730TIP3   OH288657   5.088   5.541   3.332
12730TIP3    H188658   5.127   5.465   3.284
12730TIP3    H288659   5.091   5.508   3.423
12731TIP3   OH288660   5.207   4.754   3.217
12731TIP3    H188661   5.202   4.738   3.120
12731TIP3    H288662   5.290   4.803   3.224
12732TIP3   OH288663   4.760   4.147   3.277
12732TIP3    H188664   4.731   4.145   3.368
12732TIP3    H288665   4.734   4.061   3.240
12733TIP3   OH288666   4.444   4.189   3.181
12733TIP3    H188667   4.401   4.148   3.259
12733TIP3    H288668   4.370   4.226   3.133
12734TIP3   OH288669   3.898   4.228   3.425
12734TIP3    H188670   3.949   4.294   3.375
12734TIP3    H288671   3.833   4.289   3.465
12735TIP3   OH288672   4.314   4.461   3.325
12735TIP3    H188673   4.256   4.429   3.255
12735TIP3    H288674   4.395   4.487   3.278
12736TIP3   OH288675   5.032   4.203   3.334
12736TIP3    H188676   4.937   4.217   3.322
12736TIP3    H288677   5.064   4.286   3.374
12737TIP3   OH288678   5.104   4.399   3.503
12737TIP3    H188679   5.195   4.378   3.528
12737TIP3    H288680   5.113   4.475   3.443
12738TIP3   OH288681   4.853   5.065   3.412
12738TIP3    H188682   4.832   5.150   3.458
12738TIP3    H288683   4.786   5.005   3.446
12739TIP3   OH288684   5.592   4.410   3.478
12739TIP3    H188685   5.538   4.376   3.403
12739TIP3    H288686   5.602   4.502   3.446
12740TIP3   OH288687   3.970   4.693   3.288
12740TIP3    H188688   4.030   4.753   3.337
12740TIP3    H288689   3.882   4.721   3.320
12741TIP3   OH288690   5.168   5.091   3.296
12741TIP3    H188691   5.196   5.060   3.382
12741TIP3    H288692   5.071   5.083   3.307
12742TIP3   OH288693   5.610   5.534   3.319
12742TIP3    H188694   5.687   5.594   3.315
12742TIP3    H288695   5.543   5.596   3.353
12743TIP3   OH288696   4.576   5.202   3.146
12743TIP3    H188697   4.596   5.123   3.093
12743TIP3    H288698   4.539   5.162   3.227
12744TIP3   OH288699   4.460   5.154   3.393
12744TIP3    H188700   4.487   5.107   3.472
12744TIP3    H288701   4.474   5.246   3.424
12745TIP3   OH288702   4.105   4.883   3.436
12745TIP3    H188703   4.043   4.917   3.500
12745TIP3    H288704   4.164   4.957   3.413
12746TIP3   OH288705   4.729   5.323   3.459
12746TIP3    H188706   4.652   5.381   3.471
12746TIP3    H288707   4.792   5.377   3.409
12747TIP3   OH288708   4.473   5.427   3.469
12747TIP3    H188709   4.486   5.507   3.412
12747TIP3    H288710   4.455   5.467   3.555
12748TIP3   OH288711   4.344   4.100   3.418
12748TIP3    H188712   4.334   4.187   3.462
12748TIP3    H288713   4.431   4.075   3.449
12749TIP3   OH288714   4.170   5.145   3.332
12749TIP3    H188715   4.235   5.209   3.361
12749TIP3    H288716   4.221   5.098   3.263
12750TIP3   OH288717   4.005   4.412   3.244
12750TIP3    H188718   4.002   4.508   3.263
12750TIP3    H288719   3.915   4.392   3.214
12751TIP3   OH288720   4.782   5.390   3.161
12751TIP3    H188721   4.713   5.324   3.184
12751TIP3    H288722   4.852   5.330   3.134
12752TIP3   OH288723   5.238   5.369   3.177
12752TIP3    H188724   5.262   5.289   3.227
12752TIP3    H288725   5.315   5.385   3.121
12753TIP3   OH288726   4.323   4.955   3.165
12753TIP3    H188727   4.342   4.880   3.222
12753TIP3    H288728   4.399   4.948   3.103
12754TIP3   OH288729   4.864   5.069   3.143
12754TIP3    H188730   4.845   5.077   3.238
12754TIP3    H288731   4.849   4.973   3.126
12755TIP3   OH288732   4.444   4.756   3.396
12755TIP3    H188733   4.399   4.709   3.467
12755TIP3    H288734   4.472   4.688   3.332
12756TIP3   OH288735   4.553   4.580   3.220
12756TIP3    H188736   4.541   4.568   3.125
12756TIP3    H288737   4.651   4.590   3.231
12757TIP3   OH288738   5.488   4.818   3.173
12757TIP3    H188739   5.470   4.776   3.087
12757TIP3    H288740   5.493   4.913   3.147
12758TIP3   OH288741   4.540   5.654   3.335
12758TIP3    H188742   4.637   5.660   3.337
12758TIP3    H288743   4.522   5.714   3.261
12759TIP3   OH288744   3.894   5.111   3.277
12759TIP3    H188745   3.989   5.120   3.299
12759TIP3    H288746   3.898   5.043   3.206
12760TIP3   OH288747   5.603   4.697   3.390
12760TIP3    H188748   5.552   4.735   3.315
12760TIP3    H288749   5.600   4.768   3.455
12761TIP3   OH288750   5.445   4.423   3.243
12761TIP3    H188751   5.451   4.486   3.171
12761TIP3    H288752   5.426   4.339   3.196
12762TIP3   OH288753   5.368   4.164   3.155
12762TIP3    H188754   5.427   4.124   3.221
12762TIP3    H288755   5.282   4.123   3.176
12763TIP3   OH288756   5.574   4.052   3.311
12763TIP3    H188757   5.619   3.980   3.264
12763TIP3    H288758   5.644   4.118   3.320
12764TIP3   OH288759   3.931   3.857   3.414
12764TIP3    H188760   3.980   3.922   3.362
12764TIP3    H288761   3.872   3.914   3.463
12765TIP3   OH288762   4.117   4.052   3.262
12765TIP3    H188763   4.165   3.984   3.212
12765TIP3    H288764   4.179   4.076   3.334
12766TIP3   OH288765   4.803   5.580   3.347
12766TIP3    H188766   4.898   5.599   3.334
12766TIP3    H288767   4.789   5.523   3.268
12767TIP3   OH288768   4.103   5.548   3.209
12767TIP3    H188769   4.074   5.571   3.299
12767TIP3    H288770   4.177   5.487   3.225
12768TIP3   OH288771   6.716   4.567   3.280
12768TIP3    H188772   6.788   4.570   3.347
12768TIP3    H288773   6.751   4.498   3.222
12769TIP3   OH288774   6.945   4.652   3.440
12769TIP3    H188775   6.998   4.674   3.517
12769TIP3    H288776   6.985   4.704   3.368
12770TIP3   OH288777   7.316   3.830   3.431
12770TIP3    H188778   7.223   3.839   3.452
12770TIP3    H288779   7.337   3.914   3.387
12771TIP3   OH288780   7.430   5.266   3.256
12771TIP3    H188781   7.444   5.359   3.281
12771TIP3    H288782   7.522   5.235   3.265
12772TIP3   OH288783   6.973   5.542   3.332
12772TIP3    H188784   7.014   5.466   3.284
12772TIP3    H288785   6.977   5.510   3.423
12773TIP3   OH288786   7.091   4.756   3.211
12773TIP3    H188787   7.092   4.738   3.116
12773TIP3    H288788   7.176   4.802   3.224
12774TIP3   OH288789   6.647   4.148   3.276
12774TIP3    H188790   6.617   4.145   3.367
12774TIP3    H288791   6.619   4.061   3.240
12775TIP3   OH288792   6.330   4.184   3.183
12775TIP3    H188793   6.284   4.147   3.261
12775TIP3    H288794   6.259   4.228   3.135
12776TIP3   OH288795   5.781   4.228   3.423
12776TIP3    H188796   5.835   4.294   3.376
12776TIP3    H288797   5.718   4.289   3.466
12777TIP3   OH288798   6.200   4.461   3.327
12777TIP3    H188799   6.144   4.430   3.254
12777TIP3    H288800   6.279   4.487   3.278
12778TIP3   OH288801   6.918   4.202   3.333
12778TIP3    H188802   6.822   4.216   3.324
12778TIP3    H288803   6.950   4.285   3.374
12779TIP3   OH288804   6.990   4.397   3.502
12779TIP3    H188805   7.080   4.377   3.528
12779TIP3    H288806   6.998   4.475   3.444
12780TIP3   OH288807   6.742   5.067   3.418
12780TIP3    H188808   6.710   5.151   3.456
12780TIP3    H288809   6.672   5.005   3.443
12781TIP3   OH288810   7.476   4.411   3.480
12781TIP3    H188811   7.424   4.376   3.405
12781TIP3    H288812   7.489   4.502   3.446
12782TIP3   OH288813   5.856   4.694   3.287
12782TIP3    H188814   5.916   4.752   3.338
12782TIP3    H288815   5.768   4.720   3.320
12783TIP3   OH288816   7.053   5.093   3.299
12783TIP3    H188817   7.084   5.058   3.383
12783TIP3    H288818   6.956   5.081   3.308
12784TIP3   OH288819   7.495   5.534   3.320
12784TIP3    H188820   7.572   5.594   3.314
12784TIP3    H288821   7.428   5.596   3.353
12785TIP3   OH288822   6.468   5.204   3.148
12785TIP3    H188823   6.478   5.127   3.090
12785TIP3    H288824   6.424   5.161   3.226
12786TIP3   OH288825   6.347   5.154   3.392
12786TIP3    H188826   6.370   5.106   3.472
12786TIP3    H288827   6.357   5.246   3.424
12787TIP3   OH288828   5.991   4.883   3.436
12787TIP3    H188829   5.929   4.917   3.500
12787TIP3    H288830   6.050   4.957   3.414
12788TIP3   OH288831   6.623   5.326   3.468
12788TIP3    H188832   6.540   5.377   3.469
12788TIP3    H288833   6.676   5.378   3.406
12789TIP3   OH288834   6.365   5.427   3.468
12789TIP3    H188835   6.371   5.506   3.409
12789TIP3    H288836   6.340   5.467   3.552
12790TIP3   OH288837   6.229   4.099   3.421
12790TIP3    H188838   6.220   4.187   3.462
12790TIP3    H288839   6.317   4.075   3.449
12791TIP3   OH288840   6.055   5.145   3.332
12791TIP3    H188841   6.121   5.209   3.359
12791TIP3    H288842   6.106   5.098   3.263
12792TIP3   OH288843   5.889   4.412   3.244
12792TIP3    H188844   5.887   4.507   3.265
12792TIP3    H288845   5.799   4.392   3.217
12793TIP3   OH288846   6.666   5.389   3.160
12793TIP3    H188847   6.597   5.323   3.184
12793TIP3    H288848   6.738   5.330   3.133
12794TIP3   OH288849   7.121   5.366   3.179
12794TIP3    H188850   7.150   5.289   3.229
12794TIP3    H288851   7.199   5.386   3.124
12795TIP3   OH288852   6.210   4.957   3.164
12795TIP3    H188853   6.227   4.881   3.222
12795TIP3    H288854   6.285   4.947   3.101
12796TIP3   OH288855   6.756   5.069   3.143
12796TIP3    H188856   6.727   5.078   3.236
12796TIP3    H288857   6.734   4.974   3.126
12797TIP3   OH288858   6.332   4.757   3.398
12797TIP3    H188859   6.284   4.708   3.466
12797TIP3    H288860   6.359   4.689   3.333
12798TIP3   OH288861   6.439   4.577   3.222
12798TIP3    H188862   6.425   4.573   3.126
12798TIP3    H288863   6.536   4.589   3.230
12799TIP3   OH288864   7.374   4.817   3.173
12799TIP3    H188865   7.353   4.778   3.088
12799TIP3    H288866   7.380   4.912   3.147
12800TIP3   OH288867   6.425   5.653   3.334
12800TIP3    H188868   6.523   5.661   3.337
12800TIP3    H288869   6.407   5.712   3.259
12801TIP3   OH288870   5.779   5.110   3.278
12801TIP3    H188871   5.874   5.120   3.298
12801TIP3    H288872   5.783   5.044   3.206
12802TIP3   OH288873   7.490   4.697   3.388
12802TIP3    H188874   7.438   4.736   3.314
12802TIP3    H288875   7.486   4.768   3.454
12803TIP3   OH288876   7.327   4.424   3.244
12803TIP3    H188877   7.335   4.485   3.171
12803TIP3    H288878   7.310   4.338   3.198
12804TIP3   OH288879   7.253   4.165   3.156
12804TIP3    H188880   7.312   4.123   3.221
12804TIP3    H288881   7.167   4.123   3.174
12805TIP3   OH288882   7.460   4.049   3.315
12805TIP3    H188883   7.502   3.979   3.261
12805TIP3    H288884   7.530   4.116   3.319
12806TIP3   OH288885   5.816   3.857   3.414
12806TIP3    H188886   5.866   3.922   3.362
12806TIP3    H288887   5.758   3.914   3.464
12807TIP3   OH288888   6.001   4.050   3.264
12807TIP3    H188889   6.051   3.985   3.211
12807TIP3    H288890   6.065   4.077   3.333
12808TIP3   OH288891   6.691   5.575   3.353
12808TIP3    H188892   6.782   5.602   3.332
12808TIP3    H288893   6.672   5.524   3.271
12809TIP3   OH288894   5.985   5.547   3.211
12809TIP3    H188895   5.959   5.570   3.301
12809TIP3    H288896   6.062   5.488   3.225
12810TIP3   OH288897   7.668   4.228   3.428
12810TIP3    H188898   7.721   4.292   3.377
12810TIP3    H288899   7.603   4.290   3.467
12811TIP3   OH288900   8.085   4.465   3.325
12811TIP3    H188901   8.026   4.429   3.257
12811TIP3    H288902   8.165   4.487   3.277
12812TIP3   OH288903   7.741   4.697   3.281
12812TIP3    H188904   7.802   4.750   3.338
12812TIP3    H288905   7.655   4.719   3.322
12813TIP3   OH288906   7.882   4.881   3.441
12813TIP3    H188907   7.814   4.915   3.499
12813TIP3    H288908   7.931   4.960   3.413
12814TIP3   OH288909  -0.040   4.085   3.428
12814TIP3    H188910  -0.042   4.177   3.455
12814TIP3    H288911   0.055   4.074   3.440
12815TIP3   OH288912   7.942   5.144   3.331
12815TIP3    H188913   8.007   5.210   3.358
12815TIP3    H288914   7.992   5.097   3.261
12816TIP3   OH288915   7.777   4.413   3.246
12816TIP3    H188916   7.771   4.509   3.262
12816TIP3    H288917   7.689   4.390   3.214
12817TIP3   OH288918   8.067   4.952   3.178
12817TIP3    H188919   8.098   4.879   3.231
12817TIP3    H288920   8.147   4.957   3.123
12818TIP3   OH288921   7.668   5.114   3.278
12818TIP3    H188922   7.763   5.122   3.299
12818TIP3    H288923   7.671   5.046   3.208
12819TIP3   OH288924   7.701   3.857   3.413
12819TIP3    H188925   7.751   3.922   3.362
12819TIP3    H288926   7.644   3.915   3.464
12820TIP3   OH288927   7.888   4.050   3.264
12820TIP3    H188928   7.939   3.989   3.210
12820TIP3    H288929   7.955   4.079   3.329
12821TIP3   OH288930   7.876   5.547   3.209
12821TIP3    H188931   7.845   5.573   3.297
12821TIP3    H288932   7.950   5.487   3.228
12822TIP3   OH288933   1.059   6.452   3.279
12822TIP3    H188934   1.130   6.456   3.346
12822TIP3    H288935   1.094   6.384   3.220
12823TIP3   OH288936   1.288   6.538   3.439
12823TIP3    H188937   1.342   6.559   3.515
12823TIP3    H288938   1.329   6.589   3.367
12824TIP3   OH288939   1.660   5.715   3.430
12824TIP3    H188940   1.566   5.724   3.451
12824TIP3    H288941   1.680   5.800   3.388
12825TIP3   OH288942   1.773   7.151   3.258
12825TIP3    H188943   1.788   7.244   3.280
12825TIP3    H288944   1.865   7.121   3.263
12826TIP3   OH288945   1.316   7.427   3.332
12826TIP3    H188946   1.357   7.352   3.283
12826TIP3    H288947   1.321   7.395   3.423
12827TIP3   OH288948   1.434   6.642   3.217
12827TIP3    H188949   1.431   6.623   3.120
12827TIP3    H288950   1.519   6.688   3.223
12828TIP3   OH288951   0.991   6.032   3.273
12828TIP3    H188952   0.963   6.032   3.365
12828TIP3    H288953   0.962   5.944   3.242
12829TIP3   OH288954   0.674   6.074   3.182
12829TIP3    H188955   0.630   6.034   3.259
12829TIP3    H288956   0.601   6.111   3.131
12830TIP3   OH288957   0.148   6.141   3.445
12830TIP3    H188958   0.184   6.189   3.368
12830TIP3    H288959   0.065   6.186   3.461
12831TIP3   OH288960   0.542   6.348   3.325
12831TIP3    H188961   0.484   6.314   3.255
12831TIP3    H288962   0.623   6.373   3.279
12832TIP3   OH288963   1.261   6.088   3.333
12832TIP3    H188964   1.166   6.102   3.323
12832TIP3    H288965   1.293   6.170   3.374
12833TIP3   OH288966   1.333   6.284   3.501
12833TIP3    H188967   1.423   6.263   3.528
12833TIP3    H288968   1.342   6.361   3.444
12834TIP3   OH288969   1.084   6.951   3.416
12834TIP3    H188970   1.054   7.036   3.456
12834TIP3    H288971   1.014   6.890   3.443
12835TIP3   OH288972   1.821   6.296   3.478
12835TIP3    H188973   1.767   6.262   3.403
12835TIP3    H288974   1.831   6.388   3.446
12836TIP3   OH288975   0.195   6.577   3.288
12836TIP3    H188976   0.259   6.635   3.337
12836TIP3    H288977   0.111   6.608   3.322
12837TIP3   OH288978   1.396   6.979   3.298
12837TIP3    H188979   1.427   6.944   3.382
12837TIP3    H288980   1.300   6.967   3.309
12838TIP3   OH288981   1.839   7.420   3.321
12838TIP3    H188982   1.916   7.479   3.313
12838TIP3    H288983   1.772   7.482   3.354
12839TIP3   OH288984   0.809   7.088   3.148
12839TIP3    H188985   0.820   7.011   3.091
12839TIP3    H288986   0.767   7.047   3.227
12840TIP3   OH288987   0.688   7.039   3.392
12840TIP3    H188988   0.713   6.992   3.472
12840TIP3    H288989   0.699   7.132   3.424
12841TIP3   OH288990   0.333   6.768   3.435
12841TIP3    H188991   0.272   6.801   3.501
12841TIP3    H288992   0.393   6.842   3.414
12842TIP3   OH288993   0.966   7.212   3.468
12842TIP3    H188994   0.883   7.263   3.469
12842TIP3    H288995   1.020   7.263   3.406
12843TIP3   OH288996   0.707   7.312   3.468
12843TIP3    H188997   0.715   7.392   3.409
12843TIP3    H288998   0.683   7.353   3.552
12844TIP3   OH288999   0.572   5.985   3.423
12844TIP3    H189000   0.564   6.074   3.460
12844TIP3    H289001   0.661   5.960   3.448
12845TIP3   OH289002   0.398   7.029   3.332
12845TIP3    H189003   0.462   7.096   3.360
12845TIP3    H289004   0.450   6.983   3.263
12846TIP3   OH289005   0.233   6.298   3.242
12846TIP3    H189006   0.231   6.393   3.261
12846TIP3    H289007   0.145   6.274   3.213
12847TIP3   OH289008   1.009   7.275   3.160
12847TIP3    H189009   0.940   7.209   3.184
12847TIP3    H289010   1.081   7.216   3.134
12848TIP3   OH289011   1.463   7.250   3.175
12848TIP3    H189012   1.494   7.175   3.229
12848TIP3    H289013   1.543   7.271   3.123
12849TIP3   OH289014   0.552   6.839   3.161
12849TIP3    H189015   0.572   6.767   3.222
12849TIP3    H289016   0.628   6.833   3.101
12850TIP3   OH289017   1.098   6.953   3.140
12850TIP3    H189018   1.073   6.963   3.234
12850TIP3    H289019   1.076   6.857   3.126
12851TIP3   OH289020   0.674   6.642   3.397
12851TIP3    H189021   0.628   6.594   3.467
12851TIP3    H289022   0.702   6.575   3.332
12852TIP3   OH289023   0.781   6.466   3.219
12852TIP3    H189024   0.770   6.455   3.124
12852TIP3    H289025   0.879   6.475   3.230
12853TIP3   OH289026   1.717   6.702   3.172
12853TIP3    H189027   1.698   6.662   3.086
12853TIP3    H289028   1.725   6.797   3.147
12854TIP3   OH289029   0.769   7.537   3.334
12854TIP3    H189030   0.866   7.547   3.336
12854TIP3    H289031   0.750   7.597   3.260
12855TIP3   OH289032   0.128   6.996   3.284
12855TIP3    H189033   0.223   7.009   3.301
12855TIP3    H289034   0.135   6.935   3.210
12856TIP3   OH289035   1.832   6.582   3.390
12856TIP3    H189036   1.782   6.620   3.314
12856TIP3    H289037   1.829   6.654   3.454
12857TIP3   OH289038   1.674   6.307   3.242
12857TIP3    H189039   1.680   6.372   3.171
12857TIP3    H289040   1.654   6.224   3.195
12858TIP3   OH289041   1.596   6.051   3.156
12858TIP3    H189042   1.656   6.009   3.220
12858TIP3    H289043   1.511   6.009   3.176
12859TIP3   OH289044   1.802   5.938   3.311
12859TIP3    H189045   1.845   5.864   3.263
12859TIP3    H289046   1.874   6.002   3.320
12860TIP3   OH289047   0.160   5.741   3.416
12860TIP3    H189048   0.206   5.805   3.361
12860TIP3    H289049   0.099   5.794   3.466
12861TIP3   OH289050   0.345   5.940   3.261
12861TIP3    H189051   0.390   5.870   3.210
12861TIP3    H289052   0.408   5.958   3.334
12862TIP3   OH289053   1.035   7.460   3.353
12862TIP3    H189054   1.126   7.488   3.331
12862TIP3    H289055   1.015   7.410   3.271
12863TIP3   OH289056   0.330   7.432   3.214
12863TIP3    H189057   0.302   7.457   3.304
12863TIP3    H289058   0.407   7.374   3.228
12864TIP3   OH289059   2.942   6.457   3.301
12864TIP3    H189060   3.018   6.464   3.364
12864TIP3    H289061   2.965   6.373   3.262
12865TIP3   OH289062   3.173   6.538   3.437
12865TIP3    H189063   3.226   6.559   3.515
12865TIP3    H289064   3.217   6.591   3.368
12866TIP3   OH289065   3.545   5.715   3.432
12866TIP3    H189066   3.451   5.725   3.452
12866TIP3    H289067   3.565   5.799   3.388
12867TIP3   OH289068   3.658   7.150   3.258
12867TIP3    H189069   3.673   7.244   3.281
12867TIP3    H289070   3.751   7.121   3.263
12868TIP3   OH289071   3.202   7.427   3.332
12868TIP3    H189072   3.243   7.352   3.283
12868TIP3    H289073   3.207   7.395   3.423
12869TIP3   OH289074   3.318   6.640   3.215
12869TIP3    H189075   3.319   6.625   3.118
12869TIP3    H289076   3.403   6.687   3.224
12870TIP3   OH289077   2.876   6.035   3.273
12870TIP3    H189078   2.848   6.031   3.365
12870TIP3    H289079   2.850   5.946   3.241
12871TIP3   OH289080   2.560   6.071   3.181
12871TIP3    H189081   2.515   6.033   3.259
12871TIP3    H289082   2.488   6.114   3.133
12872TIP3   OH289083   2.011   6.113   3.425
12872TIP3    H189084   2.064   6.179   3.375
12872TIP3    H289085   1.947   6.175   3.466
12873TIP3   OH289086   2.427   6.346   3.327
12873TIP3    H189087   2.372   6.317   3.254
12873TIP3    H289088   2.507   6.373   3.278
12874TIP3   OH289089   3.147   6.090   3.330
12874TIP3    H189090   3.050   6.099   3.327
12874TIP3    H289091   3.179   6.170   3.376
12875TIP3   OH289092   3.218   6.283   3.499
12875TIP3    H189093   3.308   6.262   3.530
12875TIP3    H289094   3.230   6.362   3.445
12876TIP3   OH289095   2.970   6.951   3.416
12876TIP3    H189096   2.940   7.036   3.455
12876TIP3    H289097   2.900   6.891   3.444
12877TIP3   OH289098   3.706   6.296   3.478
12877TIP3    H189099   3.652   6.262   3.403
12877TIP3    H289100   3.717   6.388   3.446
12878TIP3   OH289101   2.084   6.579   3.288
12878TIP3    H189102   2.145   6.638   3.337
12878TIP3    H289103   1.997   6.606   3.320
12879TIP3   OH289104   3.281   6.977   3.300
12879TIP3    H189105   3.311   6.942   3.384
12879TIP3    H289106   3.185   6.966   3.309
12880TIP3   OH289107   3.724   7.419   3.320
12880TIP3    H189108   3.801   7.478   3.314
12880TIP3    H289109   3.656   7.482   3.353
12881TIP3   OH289110   2.696   7.089   3.150
12881TIP3    H189111   2.707   7.013   3.091
12881TIP3    H289112   2.653   7.046   3.227
12882TIP3   OH289113   2.576   7.040   3.392
12882TIP3    H189114   2.599   6.992   3.472
12882TIP3    H289115   2.585   7.132   3.424
12883TIP3   OH289116   2.220   6.769   3.436
12883TIP3    H189117   2.158   6.802   3.500
12883TIP3    H289118   2.278   6.843   3.414
12884TIP3   OH289119   2.852   7.212   3.468
12884TIP3    H189120   2.769   7.263   3.469
12884TIP3    H289121   2.905   7.263   3.406
12885TIP3   OH289122   2.593   7.312   3.468
12885TIP3    H189123   2.600   7.391   3.409
12885TIP3    H289124   2.569   7.353   3.553
12886TIP3   OH289125   2.457   5.985   3.422
12886TIP3    H189126   2.449   6.073   3.462
12886TIP3    H289127   2.546   5.961   3.450
12887TIP3   OH289128   2.285   7.029   3.334
12887TIP3    H189129   2.350   7.096   3.359
12887TIP3    H289130   2.333   6.985   3.262
12888TIP3   OH289131   2.118   6.297   3.242
12888TIP3    H189132   2.116   6.392   3.265
12888TIP3    H289133   2.027   6.279   3.217
12889TIP3   OH289134   2.895   7.275   3.161
12889TIP3    H189135   2.826   7.209   3.184
12889TIP3    H289136   2.966   7.217   3.133
12890TIP3   OH289137   3.349   7.249   3.177
12890TIP3    H189138   3.381   7.174   3.228
12890TIP3    H289139   3.426   7.275   3.125
12891TIP3   OH289140   2.439   6.842   3.162
12891TIP3    H189141   2.456   6.767   3.221
12891TIP3    H289142   2.514   6.832   3.101
12892TIP3   OH289143   2.987   6.951   3.142
12892TIP3    H189144   2.957   6.965   3.234
12892TIP3    H289145   2.960   6.858   3.127
12893TIP3   OH289146   2.563   6.642   3.398
12893TIP3    H189147   2.513   6.594   3.466
12893TIP3    H289148   2.586   6.574   3.333
12894TIP3   OH289149   2.667   6.460   3.222
12894TIP3    H189150   2.650   6.459   3.125
12894TIP3    H289151   2.762   6.478   3.233
12895TIP3   OH289152   3.603   6.701   3.172
12895TIP3    H189153   3.584   6.662   3.086
12895TIP3    H289154   3.610   6.796   3.148
12896TIP3   OH289155   2.655   7.537   3.334
12896TIP3    H189156   2.752   7.548   3.336
12896TIP3    H289157   2.635   7.597   3.260
12897TIP3   OH289158   2.007   6.993   3.281
12897TIP3    H189159   2.103   7.005   3.299
12897TIP3    H289160   2.012   6.931   3.205
12898TIP3   OH289161   3.717   6.582   3.389
12898TIP3    H189162   3.666   6.618   3.313
12898TIP3    H289163   3.714   6.654   3.454
12899TIP3   OH289164   3.555   6.308   3.242
12899TIP3    H189165   3.566   6.371   3.171
12899TIP3    H289166   3.540   6.224   3.196
12900TIP3   OH289167   3.480   6.052   3.156
12900TIP3    H189168   3.541   6.010   3.220
12900TIP3    H289169   3.397   6.008   3.177
12901TIP3   OH289170   3.688   5.937   3.311
12901TIP3    H189171   3.731   5.864   3.262
12901TIP3    H289172   3.759   6.002   3.319
12902TIP3   OH289173   2.045   5.743   3.415
12902TIP3    H189174   2.094   5.807   3.362
12902TIP3    H289175   1.986   5.799   3.464
12903TIP3   OH289176   2.231   5.938   3.262
12903TIP3    H189177   2.278   5.869   3.214
12903TIP3    H289178   2.293   5.962   3.333
12904TIP3   OH289179   2.921   7.461   3.353
12904TIP3    H189180   3.011   7.488   3.331
12904TIP3    H289181   2.901   7.410   3.271
12905TIP3   OH289182   2.217   7.435   3.213
12905TIP3    H189183   2.188   7.455   3.303
12905TIP3    H289184   2.290   7.372   3.224
12906TIP3   OH289185   4.830   6.452   3.279
12906TIP3    H189186   4.901   6.456   3.346
12906TIP3    H289187   4.866   6.383   3.221
12907TIP3   OH289188   5.059   6.538   3.439
12907TIP3    H189189   5.114   6.560   3.515
12907TIP3    H289190   5.100   6.589   3.367
12908TIP3   OH289191   5.431   5.715   3.432
12908TIP3    H189192   5.337   5.722   3.452
12908TIP3    H289193   5.450   5.799   3.388
12909TIP3   OH289194   5.544   7.151   3.255
12909TIP3    H189195   5.557   7.244   3.282
12909TIP3    H289196   5.636   7.121   3.264
12910TIP3   OH289197   5.087   7.427   3.332
12910TIP3    H189198   5.128   7.352   3.283
12910TIP3    H289199   5.092   7.395   3.423
12911TIP3   OH289200   5.206   6.641   3.217
12911TIP3    H189201   5.202   6.625   3.120
12911TIP3    H289202   5.290   6.688   3.223
12912TIP3   OH289203   4.761   6.032   3.273
12912TIP3    H189204   4.734   6.032   3.365
12912TIP3    H289205   4.734   5.944   3.242
12913TIP3   OH289206   4.446   6.072   3.186
12913TIP3    H189207   4.399   6.032   3.261
12913TIP3    H289208   4.376   6.112   3.133
12914TIP3   OH289209   3.896   6.113   3.424
12914TIP3    H189210   3.949   6.178   3.375
12914TIP3    H289211   3.832   6.175   3.466
12915TIP3   OH289212   4.314   6.347   3.327
12915TIP3    H189213   4.258   6.316   3.254
12915TIP3    H289214   4.394   6.373   3.278
12916TIP3   OH289215   5.033   6.089   3.330
12916TIP3    H189216   4.937   6.102   3.323
12916TIP3    H289217   5.064   6.171   3.374
12917TIP3   OH289218   5.104   6.283   3.502
12917TIP3    H189219   5.195   6.263   3.528
12917TIP3    H289220   5.113   6.361   3.444
12918TIP3   OH289221   4.857   6.952   3.418
12918TIP3    H189222   4.825   7.036   3.456
12918TIP3    H289223   4.787   6.891   3.443
12919TIP3   OH289224   5.592   6.296   3.478
12919TIP3    H189225   5.538   6.262   3.403
12919TIP3    H289226   5.603   6.388   3.446
12920TIP3   OH289227   3.970   6.579   3.287
12920TIP3    H189228   4.031   6.637   3.339
12920TIP3    H289229   3.882   6.606   3.321
12921TIP3   OH289230   5.168   6.977   3.301
12921TIP3    H189231   5.196   6.941   3.385
12921TIP3    H289232   5.071   6.967   3.308
12922TIP3   OH289233   5.610   7.419   3.319
12922TIP3    H189234   5.686   7.479   3.315
12922TIP3    H289235   5.543   7.481   3.353
12923TIP3   OH289236   4.579   7.090   3.148
12923TIP3    H189237   4.592   7.013   3.091
12923TIP3    H289238   4.538   7.047   3.227
12924TIP3   OH289239   4.462   7.040   3.392
12924TIP3    H189240   4.485   6.992   3.472
12924TIP3    H289241   4.471   7.132   3.424
12925TIP3   OH289242   4.105   6.769   3.436
12925TIP3    H189243   4.043   6.802   3.500
12925TIP3    H289244   4.164   6.843   3.414
12926TIP3   OH289245   4.737   7.212   3.468
12926TIP3    H189246   4.654   7.263   3.470
12926TIP3    H289247   4.791   7.263   3.406
12927TIP3   OH289248   4.479   7.313   3.468
12927TIP3    H189249   4.486   7.391   3.409
12927TIP3    H289250   4.454   7.354   3.552
12928TIP3   OH289251   4.343   5.984   3.421
12928TIP3    H189252   4.335   6.072   3.462
12928TIP3    H289253   4.432   5.961   3.449
12929TIP3   OH289254   4.171   7.029   3.334
12929TIP3    H189255   4.235   7.098   3.357
12929TIP3    H289256   4.219   6.985   3.262
12930TIP3   OH289257   4.004   6.297   3.244
12930TIP3    H189258   4.002   6.393   3.265
12930TIP3    H289259   3.913   6.278   3.217
12931TIP3   OH289260   4.780   7.275   3.159
12931TIP3    H189261   4.712   7.209   3.185
12931TIP3    H289262   4.852   7.214   3.138
12932TIP3   OH289263   5.239   7.252   3.180
12932TIP3    H189264   5.265   7.172   3.227
12932TIP3    H289265   5.313   7.274   3.123
12933TIP3   OH289266   4.325   6.842   3.163
12933TIP3    H189267   4.342   6.766   3.222
12933TIP3    H289268   4.399   6.832   3.101
12934TIP3   OH289269   4.867   6.954   3.143
12934TIP3    H189270   4.843   6.963   3.236
12934TIP3    H289271   4.849   6.859   3.126
12935TIP3   OH289272   4.446   6.643   3.398
12935TIP3    H189273   4.398   6.594   3.466
12935TIP3    H289274   4.473   6.575   3.333
12936TIP3   OH289275   4.554   6.463   3.223
12936TIP3    H189276   4.539   6.458   3.126
12936TIP3    H289277   4.651   6.475   3.230
12937TIP3   OH289278   5.488   6.703   3.172
12937TIP3    H189279   5.469   6.662   3.086
12937TIP3    H289280   5.495   6.797   3.146
12938TIP3   OH289281   4.542   7.538   3.335
12938TIP3    H189282   4.639   7.547   3.336
12938TIP3    H289283   4.520   7.596   3.259
12939TIP3   OH289284   3.892   6.997   3.276
12939TIP3    H189285   3.988   7.006   3.298
12939TIP3    H289286   3.898   6.928   3.206
12940TIP3   OH289287   5.604   6.583   3.389
12940TIP3    H189288   5.553   6.620   3.313
12940TIP3    H289289   5.600   6.654   3.454
12941TIP3   OH289290   5.445   6.307   3.243
12941TIP3    H189291   5.451   6.372   3.171
12941TIP3    H289292   5.425   6.224   3.196
12942TIP3   OH289293   5.367   6.050   3.155
12942TIP3    H189294   5.427   6.009   3.220
12942TIP3    H289295   5.282   6.010   3.176
12943TIP3   OH289296   5.574   5.937   3.310
12943TIP3    H189297   5.617   5.864   3.262
12943TIP3    H289298   5.645   6.002   3.319
12944TIP3   OH289299   3.930   5.743   3.414
12944TIP3    H189300   3.980   5.808   3.362
12944TIP3    H289301   3.872   5.800   3.464
12945TIP3   OH289302   4.115   5.937   3.264
12945TIP3    H189303   4.164   5.871   3.212
12945TIP3    H289304   4.179   5.963   3.333
12946TIP3   OH289305   4.806   7.460   3.352
12946TIP3    H189306   4.897   7.487   3.331
12946TIP3    H289307   4.786   7.410   3.269
12947TIP3   OH289308   4.092   7.419   3.214
12947TIP3    H189309   4.075   7.458   3.300
12947TIP3    H289310   4.179   7.376   3.224
12948TIP3   OH289311   6.715   6.451   3.280
12948TIP3    H189312   6.788   6.456   3.346
12948TIP3    H289313   6.751   6.384   3.221
12949TIP3   OH289314   6.944   6.538   3.440
12949TIP3    H189315   6.999   6.559   3.515
12949TIP3    H289316   6.984   6.590   3.367
12950TIP3   OH289317   7.316   5.715   3.431
12950TIP3    H189318   7.222   5.724   3.452
12950TIP3    H289319   7.336   5.799   3.386
12951TIP3   OH289320   7.429   7.152   3.258
12951TIP3    H189321   7.443   7.246   3.281
12951TIP3    H289322   7.521   7.122   3.264
12952TIP3   OH289323   6.973   7.427   3.331
12952TIP3    H189324   7.014   7.351   3.282
12952TIP3    H289325   6.978   7.395   3.422
12953TIP3   OH289326   7.090   6.643   3.215
12953TIP3    H189327   7.086   6.623   3.119
12953TIP3    H289328   7.175   6.688   3.225
12954TIP3   OH289329   6.648   6.032   3.273
12954TIP3    H189330   6.618   6.031   3.365
12954TIP3    H289331   6.618   5.945   3.240
12955TIP3   OH289332   6.330   6.070   3.180
12955TIP3    H189333   6.286   6.034   3.259
12955TIP3    H289334   6.258   6.116   3.134
12956TIP3   OH289335   5.782   6.113   3.425
12956TIP3    H189336   5.835   6.179   3.376
12956TIP3    H289337   5.718   6.175   3.466
12957TIP3   OH289338   6.200   6.346   3.327
12957TIP3    H189339   6.143   6.316   3.253
12957TIP3    H289340   6.279   6.373   3.278
12958TIP3   OH289341   6.917   6.088   3.334
12958TIP3    H189342   6.822   6.102   3.323
12958TIP3    H289343   6.949   6.171   3.375
12959TIP3   OH289344   6.990   6.283   3.502
12959TIP3    H189345   7.080   6.263   3.528
12959TIP3    H289346   6.998   6.361   3.444
12960TIP3   OH289347   6.742   6.952   3.417
12960TIP3    H189348   6.711   7.036   3.456
12960TIP3    H289349   6.672   6.891   3.443
12961TIP3   OH289350   7.477   6.295   3.478
12961TIP3    H189351   7.423   6.262   3.403
12961TIP3    H289352   7.487   6.387   3.447
12962TIP3   OH289353   5.856   6.579   3.286
12962TIP3    H189354   5.916   6.637   3.337
12962TIP3    H289355   5.768   6.606   3.319
12963TIP3   OH289356   7.052   6.977   3.299
12963TIP3    H189357   7.083   6.943   3.383
12963TIP3    H289358   6.956   6.966   3.309
12964TIP3   OH289359   7.496   7.419   3.320
12964TIP3    H189360   7.572   7.479   3.314
12964TIP3    H289361   7.429   7.482   3.353
12965TIP3   OH289362   6.466   7.088   3.148
12965TIP3    H189363   6.479   7.011   3.090
12965TIP3    H289364   6.424   7.047   3.227
12966TIP3   OH289365   6.347   7.040   3.392
12966TIP3    H189366   6.370   6.992   3.472
12966TIP3    H289367   6.357   7.132   3.424
12967TIP3   OH289368   5.991   6.769   3.436
12967TIP3    H189369   5.929   6.802   3.500
12967TIP3    H289370   6.050   6.843   3.414
12968TIP3   OH289371   6.623   7.212   3.468
12968TIP3    H189372   6.540   7.263   3.469
12968TIP3    H289373   6.676   7.263   3.406
12969TIP3   OH289374   6.365   7.313   3.468
12969TIP3    H189375   6.371   7.392   3.409
12969TIP3    H289376   6.340   7.353   3.552
12970TIP3   OH289377   6.229   5.984   3.421
12970TIP3    H189378   6.220   6.072   3.462
12970TIP3    H289379   6.317   5.961   3.450
12971TIP3   OH289380   6.055   7.030   3.332
12971TIP3    H189381   6.121   7.095   3.359
12971TIP3    H289382   6.105   6.983   3.262
12972TIP3   OH289383   5.887   6.297   3.247
12972TIP3    H189384   5.888   6.393   3.263
12972TIP3    H289385   5.798   6.278   3.216
12973TIP3   OH289386   6.667   7.275   3.160
12973TIP3    H189387   6.598   7.209   3.184
12973TIP3    H289388   6.739   7.215   3.132
12974TIP3   OH289389   7.122   7.252   3.180
12974TIP3    H189390   7.151   7.174   3.229
12974TIP3    H289391   7.197   7.275   3.124
12975TIP3   OH289392   6.210   6.842   3.163
12975TIP3    H189393   6.227   6.767   3.222
12975TIP3    H289394   6.285   6.832   3.101
12976TIP3   OH289395   6.756   6.954   3.144
12976TIP3    H189396   6.728   6.963   3.236
12976TIP3    H289397   6.734   6.859   3.126
12977TIP3   OH289398   6.331   6.643   3.397
12977TIP3    H189399   6.284   6.594   3.467
12977TIP3    H289400   6.358   6.575   3.333
12978TIP3   OH289401   6.439   6.468   3.219
12978TIP3    H189402   6.425   6.451   3.125
12978TIP3    H289403   6.537   6.474   3.229
12979TIP3   OH289404   7.383   6.702   3.167
12979TIP3    H189405   7.351   6.662   3.086
12979TIP3    H289406   7.377   6.799   3.149
12980TIP3   OH289407   6.426   7.538   3.333
12980TIP3    H189408   6.523   7.547   3.337
12980TIP3    H289409   6.407   7.598   3.260
12981TIP3   OH289410   5.778   6.998   3.275
12981TIP3    H189411   5.873   7.006   3.298
12981TIP3    H289412   5.784   6.928   3.207
12982TIP3   OH289413   7.493   6.584   3.385
12982TIP3    H189414   7.436   6.620   3.315
12982TIP3    H289415   7.485   6.652   3.454
12983TIP3   OH289416   7.332   6.308   3.242
12983TIP3    H189417   7.335   6.371   3.170
12983TIP3    H289418   7.311   6.225   3.195
12984TIP3   OH289419   7.253   6.051   3.156
12984TIP3    H189420   7.313   6.008   3.221
12984TIP3    H289421   7.168   6.009   3.175
12985TIP3   OH289422   7.458   5.938   3.307
12985TIP3    H189423   7.503   5.863   3.264
12985TIP3    H289424   7.529   6.002   3.319
12986TIP3   OH289425   5.816   5.743   3.414
12986TIP3    H189426   5.866   5.807   3.362
12986TIP3    H289427   5.758   5.800   3.464
12987TIP3   OH289428   6.001   5.936   3.264
12987TIP3    H189429   6.051   5.871   3.211
12987TIP3    H289430   6.065   5.962   3.333
12988TIP3   OH289431   6.692   7.460   3.353
12988TIP3    H189432   6.782   7.488   3.331
12988TIP3    H289433   6.673   7.410   3.270
12989TIP3   OH289434   5.985   7.430   3.211
12989TIP3    H189435   5.959   7.456   3.301
12989TIP3    H289436   6.063   7.374   3.225
12990TIP3   OH289437   7.665   6.112   3.425
12990TIP3    H189438   7.721   6.178   3.378
12990TIP3    H289439   7.603   6.175   3.467
12991TIP3   OH289440   8.084   6.348   3.326
12991TIP3    H189441   8.028   6.314   3.254
12991TIP3    H289442   8.161   6.375   3.279
12992TIP3   OH289443   7.740   6.593   3.273
12992TIP3    H189444   7.801   6.634   3.339
12992TIP3    H289445   7.655   6.601   3.323
12993TIP3   OH289446   7.879   6.767   3.437
12993TIP3    H189447   7.815   6.800   3.501
12993TIP3    H289448   7.932   6.844   3.415
12994TIP3   OH289449  -0.041   5.970   3.428
12994TIP3    H189450  -0.042   6.063   3.455
12994TIP3    H289451   0.055   5.960   3.440
12995TIP3   OH289452   7.942   7.029   3.330
12995TIP3    H189453   8.006   7.096   3.358
12995TIP3    H289454   7.994   6.983   3.262
12996TIP3   OH289455   7.776   6.296   3.243
12996TIP3    H189456   7.773   6.391   3.265
12996TIP3    H289457   7.685   6.276   3.217
12997TIP3   OH289458   8.065   6.837   3.175
12997TIP3    H189459   8.099   6.766   3.232
12997TIP3    H289460   8.147   6.843   3.123
12998TIP3   OH289461   7.667   7.003   3.281
12998TIP3    H189462   7.762   7.010   3.301
12998TIP3    H289463   7.669   6.935   3.210
12999TIP3   OH289464   7.700   5.742   3.411
12999TIP3    H189465   7.750   5.808   3.362
12999TIP3    H289466   7.645   5.798   3.466
13000TIP3   OH289467   7.889   5.938   3.260
13000TIP3    H189468   7.941   5.871   3.213
13000TIP3    H289469   7.952   5.964   3.330
13001TIP3   OH289470   7.876   7.430   3.208
13001TIP3    H189471   7.845   7.459   3.296
13001TIP3    H289472   7.951   7.373   3.230
13002TIP3   OH289473   1.658   7.600   3.433
13002TIP3    H189474   1.565   7.612   3.453
13002TIP3    H289475   1.679   7.684   3.389
13003TIP3   OH289476   0.995   7.916   3.279
13003TIP3    H189477   0.961   7.915   3.367
13003TIP3    H289478   0.962   7.834   3.240
13004TIP3   OH289479   0.675   7.959   3.184
13004TIP3    H189480   0.630   7.918   3.261
13004TIP3    H289481   0.604   7.996   3.132
13005TIP3   OH289482   0.146   8.005   3.439
13005TIP3    H189483   0.183   8.070   3.377
13005TIP3    H289484   0.073   8.061   3.468
13006TIP3   OH289485   1.263   7.978   3.336
13006TIP3    H189486   1.167   7.989   3.319
13006TIP3    H289487   1.292   8.063   3.368
13007TIP3   OH289488   0.573   7.872   3.422
13007TIP3    H189489   0.565   7.960   3.464
13007TIP3    H289490   0.660   7.844   3.450
13008TIP3   OH289491   1.597   7.929   3.152
13008TIP3    H189492   1.657   7.898   3.222
13008TIP3    H289493   1.510   7.896   3.178
13009TIP3   OH289494   1.801   7.821   3.310
13009TIP3    H189495   1.847   7.750   3.262
13009TIP3    H289496   1.872   7.888   3.322
13010TIP3   OH289497   0.162   7.629   3.417
13010TIP3    H189498   0.206   7.694   3.362
13010TIP3    H289499   0.097   7.680   3.466
13011TIP3   OH289500   0.346   7.827   3.259
13011TIP3    H189501   0.392   7.756   3.212
13011TIP3    H289502   0.407   7.846   3.333
13012TIP3   OH289503   3.544   7.599   3.431
13012TIP3    H189504   3.451   7.612   3.452
13012TIP3    H289505   3.565   7.685   3.390
13013TIP3   OH289506   2.880   7.916   3.277
13013TIP3    H189507   2.847   7.915   3.366
13013TIP3    H289508   2.847   7.832   3.240
13014TIP3   OH289509   2.558   7.959   3.183
13014TIP3    H189510   2.515   7.918   3.260
13014TIP3    H289511   2.486   7.998   3.133
13015TIP3   OH289512   2.005   7.988   3.422
13015TIP3    H189513   2.058   8.060   3.382
13015TIP3    H289514   1.946   8.051   3.467
13016TIP3   OH289515   3.148   7.978   3.336
13016TIP3    H189516   3.053   7.989   3.319
13016TIP3    H289517   3.177   8.063   3.368
13017TIP3   OH289518   2.459   7.872   3.422
13017TIP3    H189519   2.450   7.959   3.465
13017TIP3    H289520   2.547   7.845   3.451
13018TIP3   OH289521   3.480   7.931   3.152
13018TIP3    H189522   3.540   7.897   3.220
13018TIP3    H289523   3.394   7.895   3.176
13019TIP3   OH289524   3.688   7.824   3.308
13019TIP3    H189525   3.732   7.750   3.263
13019TIP3    H289526   3.759   7.889   3.322
13020TIP3   OH289527   2.046   7.630   3.414
13020TIP3    H189528   2.095   7.694   3.362
13020TIP3    H289529   1.987   7.686   3.464
13021TIP3   OH289530   2.232   7.822   3.260
13021TIP3    H189531   2.279   7.753   3.210
13021TIP3    H289532   2.295   7.843   3.332
13022TIP3   OH289533   5.430   7.599   3.431
13022TIP3    H189534   5.337   7.612   3.452
13022TIP3    H289535   5.451   7.684   3.389
13023TIP3   OH289536   4.764   7.917   3.276
13023TIP3    H189537   4.731   7.917   3.365
13023TIP3    H289538   4.731   7.833   3.240
13024TIP3   OH289539   4.446   7.963   3.186
13024TIP3    H189540   4.400   7.915   3.257
13024TIP3    H289541   4.376   7.994   3.129
13025TIP3   OH289542   3.892   7.989   3.419
13025TIP3    H189543   3.943   8.065   3.387
13025TIP3    H289544   3.831   8.047   3.467
13026TIP3   OH289545   5.033   7.978   3.336
13026TIP3    H189546   4.938   7.990   3.319
13026TIP3    H289547   5.063   8.063   3.368
13027TIP3   OH289548   4.343   7.875   3.422
13027TIP3    H189549   4.338   7.960   3.468
13027TIP3    H289550   4.431   7.843   3.449
13028TIP3   OH289551   5.367   7.935   3.155
13028TIP3    H189552   5.428   7.897   3.221
13028TIP3    H289553   5.282   7.894   3.176
13029TIP3   OH289554   5.572   7.822   3.312
13029TIP3    H189555   5.617   7.752   3.260
13029TIP3    H289556   5.642   7.888   3.321
13030TIP3   OH289557   3.932   7.631   3.412
13030TIP3    H189558   3.982   7.694   3.360
13030TIP3    H289559   3.873   7.685   3.465
13031TIP3   OH289560   4.118   7.827   3.260
13031TIP3    H189561   4.163   7.753   3.211
13031TIP3    H289562   4.182   7.838   3.334
13032TIP3   OH289563   7.316   7.599   3.430
13032TIP3    H189564   7.223   7.612   3.451
13032TIP3    H289565   7.337   7.684   3.388
13033TIP3   OH289566   6.652   7.916   3.276
13033TIP3    H189567   6.617   7.917   3.365
13033TIP3    H289568   6.618   7.832   3.240
13034TIP3   OH289569   6.329   7.956   3.182
13034TIP3    H189570   6.285   7.919   3.261
13034TIP3    H289571   6.258   8.001   3.135
13035TIP3   OH289572   5.776   7.988   3.422
13035TIP3    H189573   5.829   8.060   3.382
13035TIP3    H289574   5.717   8.051   3.467
13036TIP3   OH289575   6.918   7.979   3.336
13036TIP3    H189576   6.823   7.990   3.317
13036TIP3    H289577   6.949   8.063   3.369
13037TIP3   OH289578   6.230   7.873   3.419
13037TIP3    H189579   6.221   7.959   3.464
13037TIP3    H289580   6.317   7.845   3.450
13038TIP3   OH289581   7.250   7.935   3.155
13038TIP3    H189582   7.314   7.898   3.219
13038TIP3    H289583   7.166   7.894   3.176
13039TIP3   OH289584   7.458   7.821   3.311
13039TIP3    H189585   7.503   7.752   3.260
13039TIP3    H289586   7.528   7.888   3.321
13040TIP3   OH289587   5.817   7.630   3.414
13040TIP3    H189588   5.866   7.695   3.362
13040TIP3    H289589   5.758   7.686   3.463
13041TIP3   OH289590   6.003   7.822   3.262
13041TIP3    H189591   6.052   7.755   3.210
13041TIP3    H289592   6.067   7.845   3.332
13042TIP3   OH289593   7.662   7.988   3.425
13042TIP3    H189594   7.715   8.058   3.383
13042TIP3    H289595   7.602   8.052   3.466
13043TIP3   OH289596  -0.045   7.850   3.432
13043TIP3    H189597  -0.047   7.944   3.456
13043TIP3    H289598   0.053   7.845   3.440
13044TIP3   OH289599   7.701   7.628   3.411
13044TIP3    H189600   7.751   7.695   3.361
13044TIP3    H289601   7.645   7.685   3.464
13045TIP3   OH289602   7.890   7.823   3.263
13045TIP3    H189603   7.938   7.759   3.209
13045TIP3    H289604   7.956   7.846   3.331
13046TIP3   OH289605   1.190   1.019   4.194
13046TIP3    H189606   1.189   1.117   4.189
13046TIP3    H289607   1.117   0.996   4.133
13047TIP3   OH289608   1.075   0.945   4.543
13047TIP3    H189609   1.074   0.880   4.615
13047TIP3    H289610   1.041   0.895   4.468
13048TIP3   OH289611   0.312   0.909   4.694
13048TIP3    H189612   0.318   0.844   4.768
13048TIP3    H289613   0.382   0.971   4.720
13049TIP3   OH289614   1.444   1.240   4.372
13049TIP3    H189615   1.402   1.168   4.421
13049TIP3    H289616   1.446   1.311   4.439
13050TIP3   OH289617   0.399   1.354   4.546
13050TIP3    H189618   0.372   1.266   4.516
13050TIP3    H289619   0.496   1.342   4.555
13051TIP3   OH289620   0.099   0.743   4.043
13051TIP3    H189621   0.042   0.808   4.088
13051TIP3    H289622   0.032   0.680   4.019
13052TIP3   OH289623   0.153   0.930   4.317
13052TIP3    H189624   0.171   0.845   4.361
13052TIP3    H289625   0.218   0.939   4.247
13053TIP3   OH289626   1.155   1.755   4.395
13053TIP3    H189627   1.220   1.686   4.366
13053TIP3    H289628   1.135   1.723   4.483
13054TIP3   OH289629   0.912   1.186   4.591
13054TIP3    H189630   0.946   1.123   4.526
13054TIP3    H289631   0.993   1.201   4.643
13055TIP3   OH289632   1.777   0.344   4.666
13055TIP3    H189633   1.789   0.408   4.740
13055TIP3    H289634   1.827   0.391   4.598
13056TIP3   OH289635   1.229   0.633   4.622
13056TIP3    H189636   1.246   0.537   4.623
13056TIP3    H289637   1.219   0.646   4.526
13057TIP3   OH289638   0.541   0.442   4.345
13057TIP3    H189639   0.553   0.525   4.294
13057TIP3    H289640   0.504   0.383   4.274
13058TIP3   OH289641   1.314   0.449   4.181
13058TIP3    H189642   1.380   0.417   4.247
13058TIP3    H289643   1.370   0.506   4.126
13059TIP3   OH289644   0.223   0.685   4.413
13059TIP3    H189645   0.278   0.621   4.460
13059TIP3    H289646   0.219   0.648   4.323
13060TIP3   OH289647   0.719   0.837   4.349
13060TIP3    H189648   0.786   0.779   4.389
13060TIP3    H289649   0.667   0.772   4.298
13061TIP3   OH289650   1.818   0.495   4.888
13061TIP3    H189651   1.751   0.566   4.878
13061TIP3    H289652   1.817   0.478   4.983
13062TIP3   OH289653   0.426   0.343   4.751
13062TIP3    H189654   0.393   0.396   4.674
13062TIP3    H289655   0.351   0.362   4.815
13063TIP3   OH289656   1.161   1.278   4.104
13063TIP3    H189657   1.132   1.249   4.016
13063TIP3    H289658   1.131   1.371   4.109
13064TIP3   OH289659   0.684   1.095   4.773
13064TIP3    H189660   0.613   1.159   4.795
13064TIP3    H289661   0.753   1.156   4.743
13065TIP3   OH289662   1.495   0.383   4.380
13065TIP3    H189663   1.472   0.306   4.433
13065TIP3    H289664   1.563   0.427   4.435
13066TIP3   OH289665   0.387   0.512   4.551
13066TIP3    H189666   0.447   0.585   4.581
13066TIP3    H289667   0.438   0.476   4.475
13067TIP3   OH289668   0.525   1.295   4.853
13067TIP3    H189669   0.524   1.387   4.820
13067TIP3    H289670   0.436   1.289   4.896
13068TIP3   OH289671   0.135   1.259   3.933
13068TIP3    H189672   0.112   1.286   3.844
13068TIP3    H289673   0.143   1.343   3.984
13069TIP3   OH289674   1.497   1.423   4.607
13069TIP3    H189675   1.401   1.434   4.622
13069TIP3    H289676   1.524   1.515   4.590
13070TIP3   OH289677   1.530   0.253   4.754
13070TIP3    H189678   1.456   0.314   4.739
13070TIP3    H289679   1.600   0.294   4.699
13071TIP3   OH289680   0.825   0.068   4.474
13071TIP3    H189681   0.825  -0.028   4.489
13071TIP3    H289682   0.744   0.094   4.518
13072TIP3   OH289683   1.323   1.602   4.268
13072TIP3    H189684   1.366   1.530   4.217
13072TIP3    H289685   1.366   1.681   4.229
13073TIP3   OH289686   1.444   1.395   4.119
13073TIP3    H189687   1.414   1.326   4.058
13073TIP3    H289688   1.447   1.345   4.203
13074TIP3   OH289689   1.610   1.253   4.970
13074TIP3    H189690   1.618   1.191   4.895
13074TIP3    H289691   1.626   1.340   4.928
13075TIP3   OH289692   1.055   0.944   3.944
13075TIP3    H189693   0.984   1.001   3.907
13075TIP3    H289694   1.125   0.953   3.877
13076TIP3   OH289695   1.061   0.795   3.653
13076TIP3    H189696   1.135   0.797   3.716
13076TIP3    H289697   1.093   0.732   3.588
13077TIP3   OH289698   1.795   0.883   4.772
13077TIP3    H189699   1.730   0.956   4.779
13077TIP3    H289700   1.844   0.908   4.692
13078TIP3   OH289701   1.399   0.963   4.037
13078TIP3    H189702   1.326   0.989   4.098
13078TIP3    H289703   1.447   0.897   4.092
13079TIP3   OH289704   1.389   0.780   4.948
13079TIP3    H189705   1.393   0.860   5.001
13079TIP3    H289706   1.328   0.811   4.878
13080TIP3   OH289707   0.562   1.031   4.229
13080TIP3    H189708   0.527   0.991   4.145
13080TIP3    H289709   0.622   0.961   4.262
13081TIP3   OH289710   0.692   1.370   4.497
13081TIP3    H189711   0.692   1.317   4.417
13081TIP3    H289712   0.770   1.335   4.544
13082TIP3   OH289713   0.595   0.903   4.596
13082TIP3    H189714   0.649   0.915   4.515
13082TIP3    H289715   0.630   0.972   4.656
13083TIP3   OH289716   1.237   1.461   4.668
13083TIP3    H189717   1.206   1.526   4.731
13083TIP3    H289718   1.210   1.376   4.709
13084TIP3   OH289719   0.684   1.342   5.073
13084TIP3    H189720   0.652   1.427   5.109
13084TIP3    H289721   0.624   1.330   4.996
13085TIP3   OH289722   1.289   0.882   3.804
13085TIP3    H189723   1.341   0.902   3.886
13085TIP3    H289724   1.326   0.939   3.736
13086TIP3   OH289725   0.381   0.965   4.984
13086TIP3    H189726   0.388   1.031   5.053
13086TIP3    H289727   0.290   0.975   4.955
13087TIP3   OH289728   1.062   1.560   4.147
13087TIP3    H189729   1.102   1.584   4.232
13087TIP3    H289730   1.001   1.632   4.132
13088TIP3   OH289731   0.508   1.544   5.155
13088TIP3    H189732   0.514   1.545   5.055
13088TIP3    H289733   0.413   1.542   5.164
13089TIP3   OH289734   1.659   0.056   3.798
13089TIP3    H189735   1.565   0.071   3.821
13089TIP3    H289736   1.682   0.139   3.750
13090TIP3   OH289737   0.458   0.932   3.990
13090TIP3    H189738   0.430   1.011   3.939
13090TIP3    H289739   0.391   0.867   3.969
13091TIP3   OH289740   1.770   1.492   3.633
13091TIP3    H189741   1.784   1.588   3.643
13091TIP3    H289742   1.863   1.463   3.623
13092TIP3   OH289743   0.110   1.151   4.863
13092TIP3    H189744   0.033   1.173   4.804
13092TIP3    H289745   0.072   1.072   4.904
13093TIP3   OH289746   0.048   1.456   4.552
13093TIP3    H189747   0.142   1.432   4.559
13093TIP3    H289748   0.040   1.529   4.615
13094TIP3   OH289749   1.875   1.517   5.072
13094TIP3    H189750   1.869   1.427   5.107
13094TIP3    H289751   1.807   1.556   5.130
13095TIP3   OH289752   0.964   1.471   5.015
13095TIP3    H189753   0.970   1.557   5.063
13095TIP3    H289754   0.874   1.440   5.034
13096TIP3   OH289755   1.008   1.855   4.006
13096TIP3    H189756   1.025   1.864   3.914
13096TIP3    H289757   1.011   1.951   4.030
13097TIP3   OH289758   0.369   1.736   4.170
13097TIP3    H189759   0.386   1.695   4.260
13097TIP3    H289760   0.285   1.693   4.151
13098TIP3   OH289761   1.305   1.766   3.691
13098TIP3    H189762   1.357   1.693   3.648
13098TIP3    H289763   1.321   1.742   3.785
13099TIP3   OH289764   1.281   1.759   3.967
13099TIP3    H189765   1.189   1.770   3.996
13099TIP3    H289766   1.310   1.688   4.027
13100TIP3   OH289767   0.292   1.310   4.980
13100TIP3    H189768   0.311   1.270   5.064
13100TIP3    H289769   0.209   1.267   4.947
13101TIP3   OH289770   0.560   0.145   4.548
13101TIP3    H189771   0.466   0.139   4.515
13101TIP3    H289772   0.556   0.239   4.570
13102TIP3   OH289773   1.031   0.170   4.917
13102TIP3    H189774   1.080   0.102   4.964
13102TIP3    H289775   0.944   0.127   4.905
13103TIP3   OH289776   1.341   0.501   4.989
13103TIP3    H189777   1.310   0.487   5.080
13103TIP3    H289778   1.344   0.598   4.975
13104TIP3   OH289779   0.992   0.376   3.642
13104TIP3    H189780   0.961   0.373   3.735
13104TIP3    H289781   0.964   0.288   3.614
13105TIP3   OH289782   0.570   0.650   4.692
13105TIP3    H189783   0.499   0.652   4.759
13105TIP3    H289784   0.569   0.743   4.658
13106TIP3   OH289785   0.571   0.664   4.183
13106TIP3    H189786   0.476   0.640   4.168
13106TIP3    H289787   0.609   0.635   4.098
13107TIP3   OH289788   1.122   0.713   4.057
13107TIP3    H189789   1.081   0.796   4.023
13107TIP3    H289790   1.190   0.696   3.990
13108TIP3   OH289791   1.225   0.662   4.343
13108TIP3    H189792   1.197   0.719   4.268
13108TIP3    H289793   1.235   0.577   4.295
13109TIP3   OH289794   0.337   0.678   4.865
13109TIP3    H189795   0.343   0.717   4.954
13109TIP3    H289796   0.291   0.595   4.885
13110TIP3   OH289797   0.069   0.399   4.210
13110TIP3    H189798   0.081   0.378   4.306
13110TIP3    H289799   0.084   0.314   4.165
13111TIP3   OH289800   0.145   0.479   3.814
13111TIP3    H189801   0.184   0.524   3.737
13111TIP3    H289802   0.066   0.533   3.826
13112TIP3   OH289803   1.148   0.820   4.803
13112TIP3    H189804   1.183   0.754   4.740
13112TIP3    H289805   1.098   0.765   4.866
13113TIP3   OH289806   0.825   0.418   4.282
13113TIP3    H189807   0.733   0.421   4.311
13113TIP3    H289808   0.876   0.402   4.363
13114TIP3   OH289809   0.310   0.574   4.165
13114TIP3    H189810   0.222   0.589   4.127
13114TIP3    H289811   0.335   0.487   4.129
13115TIP3   OH289812   0.670   0.577   3.929
13115TIP3    H189813   0.765   0.590   3.949
13115TIP3    H289814   0.646   0.646   3.865
13116TIP3   OH289815   1.266   0.336   4.607
13116TIP3    H189816   1.196   0.346   4.675
13116TIP3    H289817   1.216   0.315   4.527
13117TIP3   OH289818   0.543   0.693   3.691
13117TIP3    H189819   0.487   0.662   3.618
13117TIP3    H289820   0.623   0.720   3.644
13118TIP3   OH289821   0.454   0.309   4.114
13118TIP3    H189822   0.424   0.217   4.113
13118TIP3    H289823   0.533   0.303   4.059
13119TIP3   OH289824   0.815   0.521   4.715
13119TIP3    H189825   0.737   0.580   4.719
13119TIP3    H289826   0.875   0.561   4.782
13120TIP3   OH289827   0.877   1.147   3.885
13120TIP3    H189828   0.797   1.102   3.850
13120TIP3    H289829   0.854   1.160   3.979
13121TIP3   OH289830   1.596   1.066   4.763
13121TIP3    H189831   1.651   1.117   4.701
13121TIP3    H289832   1.509   1.074   4.717
13122TIP3   OH289833   1.262   0.430   3.698
13122TIP3    H189834   1.168   0.446   3.683
13122TIP3    H289835   1.293   0.516   3.731
13123TIP3   OH289836   1.026   1.177   5.001
13123TIP3    H189837   0.991   1.134   5.079
13123TIP3    H289838   1.001   1.270   5.014
13124TIP3   OH289839   1.334   0.622   3.867
13124TIP3    H189840   1.424   0.609   3.903
13124TIP3    H289841   1.341   0.703   3.814
13125TIP3   OH289842   0.385   1.086   4.461
13125TIP3    H189843   0.454   1.081   4.394
13125TIP3    H289844   0.394   1.001   4.508
13126TIP3   OH289845   1.085   1.299   3.790
13126TIP3    H189846   1.048   1.382   3.824
13126TIP3    H289847   1.014   1.233   3.805
13127TIP3   OH289848   0.085   0.925   4.987
13127TIP3    H189849   0.107   0.884   5.072
13127TIP3    H289850   0.022   0.864   4.946
13128TIP3   OH289851   1.252   1.419   5.001
13128TIP3    H189852   1.161   1.439   4.976
13128TIP3    H289853   1.254   1.442   5.094
13129TIP3   OH289854   1.818   0.639   3.842
13129TIP3    H189855   1.770   0.603   3.766
13129TIP3    H289856   1.832   0.731   3.812
13130TIP3   OH289857   1.817   1.211   5.119
13130TIP3    H189858   1.733   1.247   5.081
13130TIP3    H289859   1.874   1.220   5.041
13131TIP3   OH289860   1.654   1.520   3.880
13131TIP3    H189861   1.615   1.438   3.914
13131TIP3    H289862   1.682   1.499   3.789
13132TIP3   OH289863   1.373   1.001   4.591
13132TIP3    H189864   1.279   0.979   4.579
13132TIP3    H289865   1.416   0.925   4.547
13133TIP3   OH289866   0.626   1.432   4.193
13133TIP3    H189867   0.674   1.515   4.184
13133TIP3    H289868   0.536   1.458   4.171
13134TIP3   OH289869   0.193   0.916   3.660
13134TIP3    H189870   0.259   0.979   3.693
13134TIP3    H289871   0.110   0.954   3.688
13135TIP3   OH289872   0.767   1.198   4.152
13135TIP3    H189873   0.736   1.291   4.160
13135TIP3    H289874   0.693   1.151   4.197
13136TIP3   OH289875   0.813   1.618   4.792
13136TIP3    H189876   0.854   1.701   4.765
13136TIP3    H289877   0.874   1.586   4.860
13137TIP3   OH289878   0.636   1.704   4.096
13137TIP3    H189879   0.541   1.711   4.120
13137TIP3    H289880   0.668   1.782   4.146
13138TIP3   OH289881   1.165   1.219   4.753
13138TIP3    H189882   1.131   1.201   4.843
13138TIP3    H289883   1.230   1.148   4.740
13139TIP3   OH289884   1.392   1.321   3.667
13139TIP3    H189885   1.423   1.278   3.749
13139TIP3    H289886   1.297   1.308   3.674
13140TIP3   OH289887   1.437   1.677   5.008
13140TIP3    H189888   1.376   1.626   4.953
13140TIP3    H289889   1.465   1.746   4.944
13141TIP3   OH289890   1.845   1.765   3.690
13141TIP3    H189891   1.914   1.828   3.665
13141TIP3    H289892   1.773   1.824   3.719
13142TIP3   OH289893   0.251   0.402   4.941
13142TIP3    H189894   0.161   0.437   4.941
13142TIP3    H289895   0.238   0.317   4.988
13143TIP3   OH289896   1.476   1.187   3.887
13143TIP3    H189897   1.451   1.110   3.942
13143TIP3    H289898   1.570   1.196   3.909
13144TIP3   OH289899   0.208   1.577   4.790
13144TIP3    H189900   0.247   1.489   4.785
13144TIP3    H289901   0.245   1.613   4.872
13145TIP3   OH289902   0.687   1.390   3.756
13145TIP3    H189903   0.712   1.332   3.830
13145TIP3    H289904   0.694   1.480   3.792
13146TIP3   OH289905   0.335   1.114   3.803
13146TIP3    H189906   0.269   1.152   3.865
13146TIP3    H289907   0.393   1.189   3.783
13147TIP3   OH289908   1.125   0.388   4.834
13147TIP3    H189909   1.197   0.387   4.899
13147TIP3    H289910   1.087   0.299   4.849
13148TIP3   OH289911   1.202   0.335   3.949
13148TIP3    H189912   1.222   0.385   3.867
13148TIP3    H289913   1.257   0.381   4.014
13149TIP3   OH289914   0.974   1.562   3.836
13149TIP3    H189915   0.880   1.585   3.828
13149TIP3    H289916   1.023   1.590   3.757
13150TIP3   OH289917   0.921   0.511   4.029
13150TIP3    H189918   1.000   0.569   4.032
13150TIP3    H289919   0.895   0.500   4.123
13151TIP3   OH289920   0.985   0.619   4.942
13151TIP3    H189921   0.983   0.669   5.024
13151TIP3    H289922   1.038   0.538   4.956
13152TIP3   OH289923   1.010   0.217   4.122
13152TIP3    H189924   0.976   0.284   4.183
13152TIP3    H289925   1.076   0.273   4.074
13153TIP3   OH289926   0.714   1.661   3.835
13153TIP3    H189927   0.705   1.741   3.778
13153TIP3    H289928   0.673   1.689   3.921
13154TIP3   OH289929   0.572   0.328   3.788
13154TIP3    H189930   0.567   0.419   3.823
13154TIP3    H289931   0.663   0.305   3.817
13155TIP3   OH289932   1.594   0.407   5.036
13155TIP3    H189933   1.501   0.432   5.021
13155TIP3    H289934   1.624   0.398   4.944
13156TIP3   OH289935   1.457   0.780   4.434
13156TIP3    H189936   1.374   0.736   4.407
13156TIP3    H289937   1.504   0.711   4.486
13157TIP3   OH289938   0.397   1.374   3.692
13157TIP3    H189939   0.462   1.437   3.726
13157TIP3    H289940   0.449   1.327   3.626
13158TIP3   OH289941   1.563   1.706   4.600
13158TIP3    H189942   1.554   1.775   4.532
13158TIP3    H289943   1.659   1.712   4.620
13159TIP3   OH289944   0.309   0.130   4.478
13159TIP3    H189945   0.285   0.130   4.383
13159TIP3    H289946   0.268   0.045   4.503
13160TIP3   OH289947   0.209   1.510   4.097
13160TIP3    H189948   0.123   1.553   4.093
13160TIP3    H289949   0.255   1.558   4.028
13161TIP3   OH289950   1.467   1.598   3.548
13161TIP3    H189951   1.492   1.515   3.593
13161TIP3    H289952   1.543   1.616   3.491
13162TIP3   OH289953   1.361   1.139   4.985
13162TIP3    H189954   1.440   1.197   4.992
13162TIP3    H289955   1.292   1.202   5.009
13163TIP3   OH289956   0.677   0.991   3.770
13163TIP3    H189957   0.625   0.937   3.832
13163TIP3    H289958   0.705   0.923   3.704
13164TIP3   OH289959   0.600   0.769   4.994
13164TIP3    H189960   0.543   0.842   5.024
13164TIP3    H289961   0.641   0.807   4.915
13165TIP3   OH289962   0.781   0.810   3.589
13165TIP3    H189963   0.771   0.796   3.494
13165TIP3    H289964   0.878   0.821   3.599
13166TIP3   OH289965   0.632   0.508   5.103
13166TIP3    H189966   0.655   0.438   5.041
13166TIP3    H289967   0.637   0.590   5.051
13167TIP3   OH289968   0.683   0.345   4.860
13167TIP3    H189969   0.739   0.400   4.798
13167TIP3    H289970   0.593   0.366   4.829
13168TIP3   OH289971   0.837   0.891   4.882
13168TIP3    H189972   0.913   0.878   4.824
13168TIP3    H289973   0.800   0.976   4.852
13169TIP3   OH289974   0.758   0.096   4.897
13169TIP3    H189975   0.748   0.194   4.895
13169TIP3    H289976   0.683   0.052   4.861
13170TIP3   OH289977   0.772   1.883   3.692
13170TIP3    H189978   0.867   1.905   3.687
13170TIP3    H289979   0.742   1.946   3.626
13171TIP3   OH289980   0.125   1.337   3.642
13171TIP3    H189981   0.220   1.349   3.665
13171TIP3    H289982   0.132   1.277   3.568
13172TIP3   OH289983   8.143   1.885   4.135
13172TIP3    H189984   8.068   1.834   4.100
13172TIP3    H289985   8.169   1.821   4.207
13173TIP3   OH289986   0.082   1.694   4.324
13173TIP3    H189987   0.051   1.604   4.342
13173TIP3    H289988   0.110   1.726   4.413
13174TIP3   OH289989   1.835   1.770   4.622
13174TIP3    H189990   1.837   1.787   4.718
13174TIP3    H289991   1.906   1.828   4.592
13175TIP3   OH289992   1.795   1.730   4.909
13175TIP3    H189993   1.746   1.652   4.878
13175TIP3    H289994   1.845   1.687   4.982
13176TIP3   OH289995   1.770   1.133   3.925
13176TIP3    H189996   1.854   1.176   3.947
13176TIP3    H289997   1.767   1.064   3.995
13177TIP3   OH289998   1.804   0.942   4.113
13177TIP3    H189999   1.730   0.893   4.153
13177TIP3    H290000   1.864   0.956   4.189
13178TIP3   OH290001   1.779   1.210   4.609
13178TIP3    H190002   1.862   1.174   4.575
13178TIP3    H290003   1.794   1.306   4.595
13179TIP3   OH290004   1.632   1.502   4.840
13179TIP3    H190005   1.565   1.538   4.900
13179TIP3    H290006   1.579   1.462   4.769
13180TIP3   OH290007   1.832   0.925   3.753
13180TIP3    H190008   1.775   0.960   3.683
13180TIP3    H290009   1.827   0.996   3.819
13181TIP3   OH290010   1.586   0.790   4.170
13181TIP3    H190011   1.571   0.694   4.169
13181TIP3    H290012   1.553   0.813   4.259
13182TIP3   OH290013   0.083   0.995   4.574
13182TIP3    H190014   0.105   0.991   4.479
13182TIP3    H290015   0.172   0.984   4.615
13183TIP3   OH290016   1.677   0.985   5.145
13183TIP3    H190017   1.735   0.911   5.155
13183TIP3    H290018   1.733   1.064   5.132
13184TIP3   OH290019   1.593   0.391   3.518
13184TIP3    H190020   1.655   0.352   3.582
13184TIP3    H290021   1.508   0.349   3.537
13185TIP3   OH290022   1.553   0.548   4.018
13185TIP3    H190023   1.584   0.456   4.030
13185TIP3    H290024   1.633   0.588   3.979
13186TIP3   OH290025   1.617   0.601   4.560
13186TIP3    H190026   1.713   0.627   4.560
13186TIP3    H290027   1.597   0.616   4.654
13187TIP3   OH290028   1.623   0.678   4.840
13187TIP3    H190029   1.536   0.705   4.874
13187TIP3    H290030   1.666   0.763   4.817
13188TIP3   OH290031   1.619   0.275   4.021
13188TIP3    H190032   1.637   0.232   4.107
13188TIP3    H290033   1.556   0.212   3.978
13189TIP3   OH290034   0.164   0.356   4.476
13189TIP3    H190035   0.211   0.275   4.504
13189TIP3    H290036   0.218   0.426   4.516
13190TIP3   OH290037  -0.007   0.681   4.517
13190TIP3    H190038   0.069   0.628   4.487
13190TIP3    H290039   0.046   0.731   4.583
13191TIP3   OH290040   1.804   0.282   3.681
13191TIP3    H190041   1.843   0.211   3.628
13191TIP3    H290042   1.875   0.349   3.677
13192TIP3   OH290043   0.056   0.267   3.990
13192TIP3    H190044  -0.037   0.286   3.963
13192TIP3    H290045   0.097   0.333   3.929
13193TIP3   OH290046   1.506   1.779   4.184
13193TIP3    H190047   1.575   1.748   4.122
13193TIP3    H290048   1.559   1.829   4.249
13194TIP3   OH290049   8.179   0.166   4.831
13194TIP3    H190050   8.112   0.123   4.885
13194TIP3    H290051   8.123   0.214   4.769
13195TIP3   OH290052   0.557   1.563   4.911
13195TIP3    H190053   0.506   1.627   4.855
13195TIP3    H290054   0.630   1.569   4.845
13196TIP3   OH290055   0.975   1.705   5.156
13196TIP3    H190056   0.993   1.679   5.247
13196TIP3    H290057   1.061   1.741   5.129
13197TIP3   OH290058   1.200   1.843   5.079
13197TIP3    H190059   1.272   1.782   5.057
13197TIP3    H290060   1.240   1.877   5.161
13198TIP3   OH290061   1.700   0.103   4.991
13198TIP3    H190062   1.615   0.133   4.956
13198TIP3    H290063   1.717   0.020   4.950
13199TIP3   OH290064   0.284   1.892   4.862
13199TIP3    H190065   0.212   1.941   4.821
13199TIP3    H290066   0.250   1.876   4.951
13200TIP3   OH290067   0.536   1.892   4.787
13200TIP3    H190068   0.444   1.865   4.811
13200TIP3    H290069   0.525   1.905   4.692
13201TIP3   OH290070   1.007   1.844   4.684
13201TIP3    H190071   0.954   1.896   4.622
13201TIP3    H290072   1.013   1.905   4.760
13202TIP3   OH290073   1.234   1.723   4.785
13202TIP3    H190074   1.147   1.751   4.752
13202TIP3    H290075   1.278   1.809   4.779
13203TIP3   OH290076   1.490   1.883   4.813
13203TIP3    H190077   1.483   1.978   4.789
13203TIP3    H290078   1.511   1.845   4.725
13204TIP3   OH290079   0.226   1.754   4.553
13204TIP3    H190080   0.229   1.716   4.643
13204TIP3    H290081   0.313   1.723   4.520
13205TIP3   OH290082   0.438   1.621   4.389
13205TIP3    H190083   0.417   1.541   4.441
13205TIP3    H290084   0.505   1.646   4.459
13206TIP3   OH290085   0.734   1.684   4.494
13206TIP3    H190086   0.713   1.590   4.476
13206TIP3    H290087   0.698   1.681   4.585
13207TIP3   OH290088   1.041   0.246   4.425
13207TIP3    H190089   0.979   0.176   4.450
13207TIP3    H290090   1.101   0.195   4.369
13208TIP3   OH290091   1.541   0.048   4.387
13208TIP3    H190092   1.612   0.114   4.370
13208TIP3    H290093   1.459   0.096   4.403
13209TIP3   OH290094   1.730   0.177   4.257
13209TIP3    H190095   1.791   0.114   4.217
13209TIP3    H290096   1.780   0.261   4.265
13210TIP3   OH290097   0.264   0.150   4.220
13210TIP3    H190098   0.202   0.107   4.162
13210TIP3    H290099   0.325   0.071   4.223
13211TIP3   OH290100   0.154   0.101   3.779
13211TIP3    H190101   0.209   0.160   3.725
13211TIP3    H290102   0.095   0.152   3.834
13212TIP3   OH290103   0.731   0.102   4.188
13212TIP3    H190104   0.821   0.135   4.183
13212TIP3    H290105   0.728   0.075   4.280
13213TIP3   OH290106   1.285   0.101   4.349
13213TIP3    H190107   1.298   0.108   4.254
13213TIP3    H290108   1.266   0.006   4.360
13214TIP3   OH290109   1.419   0.110   3.897
13214TIP3    H190110   1.343   0.169   3.898
13214TIP3    H290111   1.388   0.027   3.937
13215TIP3   OH290112   0.146   1.677   3.884
13215TIP3    H190113   0.085   1.677   3.809
13215TIP3    H290114   0.156   1.772   3.898
13216TIP3   OH290115   0.339   0.270   3.632
13216TIP3    H190116   0.395   0.213   3.579
13216TIP3    H290117   0.407   0.308   3.690
13217TIP3   OH290118   0.840   0.299   3.874
13217TIP3    H190119   0.871   0.243   3.948
13217TIP3    H290120   0.848   0.386   3.920
13218TIP3   OH290121   1.044   1.826   3.674
13218TIP3    H190122   1.144   1.825   3.679
13218TIP3    H290123   1.032   1.750   3.614
13219TIP3   OH290124   1.707   1.758   3.987
13219TIP3    H190125   1.687   1.680   3.930
13219TIP3    H290126   1.698   1.831   3.924
13220TIP3   OH290127   0.267   0.113   5.126
13220TIP3    H190128   0.219   0.065   5.194
13220TIP3    H290129   0.343   0.141   5.175
13221TIP3   OH290130   0.330   1.772   3.578
13221TIP3    H190131   0.303   1.803   3.665
13221TIP3    H290132   0.408   1.719   3.594
13222TIP3   OH290133   3.075   1.020   4.193
13222TIP3    H190134   3.074   1.117   4.189
13222TIP3    H290135   3.003   0.996   4.133
13223TIP3   OH290136   2.961   0.945   4.544
13223TIP3    H190137   2.960   0.880   4.615
13223TIP3    H290138   2.926   0.895   4.468
13224TIP3   OH290139   2.196   0.914   4.700
13224TIP3    H190140   2.206   0.844   4.768
13224TIP3    H290141   2.272   0.970   4.721
13225TIP3   OH290142   3.330   1.240   4.372
13225TIP3    H190143   3.288   1.169   4.421
13225TIP3    H290144   3.332   1.311   4.439
13226TIP3   OH290145   2.289   1.357   4.549
13226TIP3    H190146   2.257   1.271   4.517
13226TIP3    H290147   2.384   1.339   4.554
13227TIP3   OH290148   1.953   0.713   4.096
13227TIP3    H190149   1.910   0.800   4.092
13227TIP3    H290150   1.895   0.660   4.039
13228TIP3   OH290151   2.024   0.936   4.312
13228TIP3    H190152   2.051   0.854   4.358
13228TIP3    H290153   2.094   0.946   4.246
13229TIP3   OH290154   3.042   1.755   4.396
13229TIP3    H190155   3.106   1.686   4.367
13229TIP3    H290156   3.020   1.723   4.483
13230TIP3   OH290157   2.798   1.185   4.590
13230TIP3    H190158   2.833   1.122   4.525
13230TIP3    H290159   2.879   1.201   4.643
13231TIP3   OH290160   3.662   0.344   4.666
13231TIP3    H190161   3.674   0.408   4.740
13231TIP3    H290162   3.713   0.391   4.598
13232TIP3   OH290163   3.115   0.633   4.622
13232TIP3    H190164   3.131   0.537   4.623
13232TIP3    H290165   3.105   0.646   4.526
13233TIP3   OH290166   2.427   0.442   4.344
13233TIP3    H190167   2.437   0.525   4.294
13233TIP3    H290168   2.387   0.382   4.276
13234TIP3   OH290169   3.200   0.449   4.181
13234TIP3    H190170   3.265   0.417   4.247
13234TIP3    H290171   3.256   0.506   4.126
13235TIP3   OH290172   2.089   0.685   4.418
13235TIP3    H190173   2.155   0.628   4.463
13235TIP3    H290174   2.099   0.652   4.327
13236TIP3   OH290175   2.605   0.837   4.349
13236TIP3    H190176   2.672   0.779   4.389
13236TIP3    H290177   2.553   0.772   4.298
13237TIP3   OH290178   3.704   0.496   4.888
13237TIP3    H190179   3.637   0.566   4.878
13237TIP3    H290180   3.703   0.478   4.983
13238TIP3   OH290181   2.318   0.331   4.745
13238TIP3    H190182   2.287   0.389   4.673
13238TIP3    H290183   2.250   0.352   4.813
13239TIP3   OH290184   3.046   1.279   4.103
13239TIP3    H190185   3.017   1.251   4.015
13239TIP3    H290186   3.016   1.372   4.107
13240TIP3   OH290187   2.567   1.095   4.772
13240TIP3    H190188   2.498   1.160   4.795
13240TIP3    H290189   2.639   1.154   4.744
13241TIP3   OH290190   3.381   0.383   4.380
13241TIP3    H190191   3.358   0.306   4.433
13241TIP3    H290192   3.448   0.427   4.435
13242TIP3   OH290193   2.272   0.517   4.548
13242TIP3    H190194   2.336   0.583   4.581
13242TIP3    H290195   2.325   0.474   4.477
13243TIP3   OH290196   2.413   1.296   4.855
13243TIP3    H190197   2.408   1.388   4.821
13243TIP3    H290198   2.324   1.289   4.897
13244TIP3   OH290199   2.019   1.256   3.931
13244TIP3    H190200   1.997   1.290   3.842
13244TIP3    H290201   2.027   1.339   3.983
13245TIP3   OH290202   3.382   1.423   4.607
13245TIP3    H190203   3.286   1.434   4.622
13245TIP3    H290204   3.410   1.515   4.590
13246TIP3   OH290205   3.416   0.253   4.754
13246TIP3    H190206   3.342   0.314   4.739
13246TIP3    H290207   3.486   0.294   4.699
13247TIP3   OH290208   2.709   0.068   4.472
13247TIP3    H190209   2.708  -0.027   4.492
13247TIP3    H290210   2.633   0.097   4.524
13248TIP3   OH290211   3.208   1.602   4.268
13248TIP3    H190212   3.251   1.530   4.217
13248TIP3    H290213   3.251   1.681   4.229
13249TIP3   OH290214   3.330   1.395   4.119
13249TIP3    H190215   3.300   1.325   4.058
13249TIP3    H290216   3.333   1.345   4.203
13250TIP3   OH290217   3.495   1.254   4.969
13250TIP3    H190218   3.504   1.191   4.894
13250TIP3    H290219   3.513   1.340   4.926
13251TIP3   OH290220   2.940   0.944   3.944
13251TIP3    H190221   2.870   1.001   3.907
13251TIP3    H290222   3.011   0.953   3.877
13252TIP3   OH290223   2.947   0.795   3.653
13252TIP3    H190224   3.020   0.797   3.716
13252TIP3    H290225   2.978   0.732   3.587
13253TIP3   OH290226   3.680   0.883   4.773
13253TIP3    H190227   3.615   0.956   4.780
13253TIP3    H290228   3.727   0.907   4.691
13254TIP3   OH290229   3.285   0.962   4.037
13254TIP3    H190230   3.212   0.989   4.098
13254TIP3    H290231   3.333   0.897   4.092
13255TIP3   OH290232   3.275   0.780   4.948
13255TIP3    H190233   3.278   0.860   5.001
13255TIP3    H290234   3.214   0.811   4.878
13256TIP3   OH290235   2.446   1.030   4.228
13256TIP3    H190236   2.415   0.991   4.143
13256TIP3    H290237   2.508   0.961   4.262
13257TIP3   OH290238   2.579   1.369   4.497
13257TIP3    H190239   2.578   1.316   4.417
13257TIP3    H290240   2.657   1.333   4.543
13258TIP3   OH290241   2.480   0.905   4.595
13258TIP3    H190242   2.535   0.915   4.515
13258TIP3    H290243   2.519   0.971   4.657
13259TIP3   OH290244   3.121   1.462   4.666
13259TIP3    H190245   3.091   1.526   4.731
13259TIP3    H290246   3.096   1.376   4.709
13260TIP3   OH290247   2.572   1.344   5.070
13260TIP3    H190248   2.537   1.426   5.111
13260TIP3    H290249   2.509   1.328   4.996
13261TIP3   OH290250   3.174   0.882   3.803
13261TIP3    H190251   3.227   0.902   3.885
13261TIP3    H290252   3.212   0.939   3.736
13262TIP3   OH290253   2.267   0.966   4.982
13262TIP3    H190254   2.274   1.028   5.055
13262TIP3    H290255   2.175   0.974   4.955
13263TIP3   OH290256   2.945   1.557   4.150
13263TIP3    H190257   2.988   1.587   4.231
13263TIP3    H290258   2.888   1.631   4.127
13264TIP3   OH290259   2.394   1.550   5.139
13264TIP3    H190260   2.395   1.543   5.042
13264TIP3    H290261   2.300   1.542   5.161
13265TIP3   OH290262   3.545   0.057   3.797
13265TIP3    H190263   3.450   0.071   3.821
13265TIP3    H290264   3.568   0.139   3.750
13266TIP3   OH290265   2.344   0.932   3.989
13266TIP3    H190266   2.316   1.010   3.937
13266TIP3    H290267   2.277   0.866   3.967
13267TIP3   OH290268   3.655   1.493   3.626
13267TIP3    H190269   3.670   1.587   3.645
13267TIP3    H290270   3.748   1.462   3.625
13268TIP3   OH290271   1.957   1.176   4.875
13268TIP3    H190272   1.909   1.168   4.790
13268TIP3    H290273   1.960   1.082   4.900
13269TIP3   OH290274   1.929   1.449   4.558
13269TIP3    H190275   2.025   1.437   4.556
13269TIP3    H290276   1.921   1.530   4.610
13270TIP3   OH290277   3.760   1.516   5.072
13270TIP3    H190278   3.754   1.427   5.108
13270TIP3    H290279   3.693   1.555   5.131
13271TIP3   OH290280   2.848   1.472   5.012
13271TIP3    H190281   2.855   1.557   5.063
13271TIP3    H290282   2.760   1.438   5.036
13272TIP3   OH290283   2.892   1.847   3.991
13272TIP3    H190284   2.883   1.841   3.895
13272TIP3    H290285   2.895   1.943   4.009
13273TIP3   OH290286   2.256   1.735   4.175
13273TIP3    H190287   2.271   1.694   4.263
13273TIP3    H290288   2.172   1.695   4.151
13274TIP3   OH290289   3.194   1.769   3.690
13274TIP3    H190290   3.239   1.692   3.649
13274TIP3    H290291   3.202   1.744   3.784
13275TIP3   OH290292   3.167   1.762   3.969
13275TIP3    H190293   3.071   1.769   3.988
13275TIP3    H290294   3.192   1.688   4.026
13276TIP3   OH290295   2.182   1.305   4.977
13276TIP3    H190296   2.198   1.270   5.064
13276TIP3    H290297   2.094   1.269   4.950
13277TIP3   OH290298   2.449   0.152   4.569
13277TIP3    H190299   2.358   0.150   4.531
13277TIP3    H290300   2.440   0.236   4.619
13278TIP3   OH290301   2.918   0.169   4.916
13278TIP3    H190302   2.964   0.100   4.965
13278TIP3    H290303   2.829   0.129   4.904
13279TIP3   OH290304   3.227   0.501   4.989
13279TIP3    H190305   3.196   0.487   5.080
13279TIP3    H290306   3.229   0.598   4.975
13280TIP3   OH290307   2.878   0.375   3.643
13280TIP3    H190308   2.847   0.372   3.735
13280TIP3    H290309   2.849   0.289   3.613
13281TIP3   OH290310   2.457   0.650   4.693
13281TIP3    H190311   2.386   0.650   4.759
13281TIP3    H290312   2.454   0.742   4.658
13282TIP3   OH290313   2.456   0.665   4.181
13282TIP3    H190314   2.362   0.639   4.167
13282TIP3    H290315   2.493   0.634   4.096
13283TIP3   OH290316   3.007   0.714   4.058
13283TIP3    H190317   2.967   0.796   4.024
13283TIP3    H290318   3.075   0.696   3.990
13284TIP3   OH290319   3.111   0.662   4.343
13284TIP3    H190320   3.083   0.719   4.268
13284TIP3    H290321   3.121   0.577   4.295
13285TIP3   OH290322   2.220   0.680   4.864
13285TIP3    H190323   2.231   0.716   4.955
13285TIP3    H290324   2.181   0.593   4.883
13286TIP3   OH290325   1.887   0.391   4.260
13286TIP3    H190326   1.955   0.386   4.330
13286TIP3    H290327   1.932   0.351   4.183
13287TIP3   OH290328   2.016   0.463   3.803
13287TIP3    H190329   2.061   0.519   3.738
13287TIP3    H290330   1.945   0.523   3.832
13288TIP3   OH290331   3.034   0.820   4.803
13288TIP3    H190332   3.069   0.754   4.740
13288TIP3    H290333   2.983   0.766   4.866
13289TIP3   OH290334   2.711   0.419   4.282
13289TIP3    H190335   2.618   0.419   4.312
13289TIP3    H290336   2.759   0.402   4.364
13290TIP3   OH290337   2.193   0.574   4.166
13290TIP3    H190338   2.103   0.589   4.129
13290TIP3    H290339   2.220   0.489   4.127
13291TIP3   OH290340   2.556   0.578   3.929
13291TIP3    H190341   2.651   0.590   3.949
13291TIP3    H290342   2.532   0.646   3.864
13292TIP3   OH290343   3.152   0.336   4.607
13292TIP3    H190344   3.082   0.346   4.675
13292TIP3    H290345   3.101   0.315   4.527
13293TIP3   OH290346   2.426   0.693   3.691
13293TIP3    H190347   2.372   0.661   3.617
13293TIP3    H290348   2.508   0.719   3.645
13294TIP3   OH290349   2.839   0.694   4.471
13294TIP3    H190350   2.899   0.640   4.417
13294TIP3    H290351   2.825   0.639   4.549
13295TIP3   OH290352   2.345   0.307   4.117
13295TIP3    H190353   2.312   0.216   4.112
13295TIP3    H290354   2.420   0.303   4.057
13296TIP3   OH290355   2.704   0.524   4.712
13296TIP3    H190356   2.621   0.577   4.720
13296TIP3    H290357   2.759   0.560   4.784
13297TIP3   OH290358   2.763   1.147   3.885
13297TIP3    H190359   2.682   1.102   3.850
13297TIP3    H290360   2.739   1.160   3.979
13298TIP3   OH290361   3.482   1.066   4.763
13298TIP3    H190362   3.537   1.117   4.701
13298TIP3    H290363   3.395   1.074   4.717
13299TIP3   OH290364   3.148   0.430   3.698
13299TIP3    H190365   3.053   0.446   3.683
13299TIP3    H290366   3.179   0.516   3.731
13300TIP3   OH290367   2.912   1.178   5.001
13300TIP3    H190368   2.877   1.134   5.079
13300TIP3    H290369   2.887   1.270   5.014
13301TIP3   OH290370   3.219   0.622   3.867
13301TIP3    H190371   3.309   0.609   3.903
13301TIP3    H290372   3.227   0.703   3.814
13302TIP3   OH290373   2.273   1.088   4.462
13302TIP3    H190374   2.342   1.081   4.393
13302TIP3    H290375   2.279   1.002   4.507
13303TIP3   OH290376   2.973   1.296   3.791
13303TIP3    H190377   2.934   1.381   3.821
13303TIP3    H290378   2.898   1.234   3.805
13304TIP3   OH290379   1.968   0.931   4.989
13304TIP3    H190380   1.994   0.886   5.071
13304TIP3    H290381   1.911   0.867   4.943
13305TIP3   OH290382   3.138   1.419   5.001
13305TIP3    H190383   3.046   1.439   4.976
13305TIP3    H290384   3.139   1.442   5.094
13306TIP3   OH290385   3.704   0.639   3.842
13306TIP3    H190386   3.656   0.603   3.766
13306TIP3    H290387   3.718   0.731   3.812
13307TIP3   OH290388   3.704   1.210   5.117
13307TIP3    H190389   3.618   1.247   5.083
13307TIP3    H290390   3.759   1.221   5.039
13308TIP3   OH290391   3.540   1.520   3.880
13308TIP3    H190392   3.501   1.438   3.914
13308TIP3    H290393   3.567   1.499   3.788
13309TIP3   OH290394   3.259   1.001   4.591
13309TIP3    H190395   3.164   0.979   4.579
13309TIP3    H290396   3.302   0.925   4.547
13310TIP3   OH290397   2.510   1.434   4.200
13310TIP3    H190398   2.560   1.515   4.180
13310TIP3    H290399   2.422   1.457   4.168
13311TIP3   OH290400   2.084   0.922   3.653
13311TIP3    H190401   2.146   0.982   3.696
13311TIP3    H290402   1.997   0.947   3.687
13312TIP3   OH290403   2.652   1.201   4.153
13312TIP3    H190404   2.621   1.293   4.161
13312TIP3    H290405   2.579   1.152   4.197
13313TIP3   OH290406   2.697   1.620   4.791
13313TIP3    H190407   2.742   1.701   4.765
13313TIP3    H290408   2.758   1.585   4.858
13314TIP3   OH290409   2.520   1.700   4.105
13314TIP3    H190410   2.423   1.714   4.119
13314TIP3    H290411   2.556   1.784   4.141
13315TIP3   OH290412   3.050   1.219   4.753
13315TIP3    H190413   3.017   1.201   4.843
13315TIP3    H290414   3.115   1.148   4.740
13316TIP3   OH290415   3.279   1.322   3.666
13316TIP3    H190416   3.310   1.279   3.748
13316TIP3    H290417   3.183   1.308   3.675
13317TIP3   OH290418   3.323   1.677   5.008
13317TIP3    H190419   3.262   1.626   4.953
13317TIP3    H290420   3.351   1.746   4.944
13318TIP3   OH290421   3.730   1.764   3.690
13318TIP3    H190422   3.800   1.828   3.665
13318TIP3    H290423   3.658   1.825   3.719
13319TIP3   OH290424   2.138   0.401   4.942
13319TIP3    H190425   2.047   0.435   4.939
13319TIP3    H290426   2.127   0.315   4.986
13320TIP3   OH290427   3.361   1.187   3.887
13320TIP3    H190428   3.336   1.110   3.942
13320TIP3    H290429   3.456   1.196   3.909
13321TIP3   OH290430   2.100   1.581   4.785
13321TIP3    H190431   2.128   1.488   4.786
13321TIP3    H290432   2.124   1.611   4.874
13322TIP3   OH290433   2.571   1.389   3.756
13322TIP3    H190434   2.600   1.334   3.830
13322TIP3    H290435   2.583   1.480   3.790
13323TIP3   OH290436   2.223   1.113   3.804
13323TIP3    H190437   2.157   1.154   3.864
13323TIP3    H290438   2.280   1.188   3.782
13324TIP3   OH290439   3.013   0.388   4.834
13324TIP3    H190440   3.083   0.386   4.900
13324TIP3    H290441   2.972   0.299   4.849
13325TIP3   OH290442   3.087   0.335   3.949
13325TIP3    H190443   3.107   0.385   3.867
13325TIP3    H290444   3.143   0.381   4.014
13326TIP3   OH290445   2.854   1.555   3.830
13326TIP3    H190446   2.771   1.605   3.835
13326TIP3    H290447   2.907   1.604   3.767
13327TIP3   OH290448   2.807   0.511   4.029
13327TIP3    H190449   2.885   0.569   4.032
13327TIP3    H290450   2.781   0.500   4.123
13328TIP3   OH290451   2.870   0.618   4.942
13328TIP3    H190452   2.869   0.669   5.024
13328TIP3    H290453   2.923   0.539   4.957
13329TIP3   OH290454   2.896   0.217   4.122
13329TIP3    H190455   2.861   0.284   4.183
13329TIP3    H290456   2.961   0.273   4.074
13330TIP3   OH290457   2.589   1.657   3.831
13330TIP3    H190458   2.607   1.739   3.782
13330TIP3    H290459   2.566   1.691   3.920
13331TIP3   OH290460   2.459   0.329   3.790
13331TIP3    H190461   2.452   0.419   3.826
13331TIP3    H290462   2.549   0.305   3.817
13332TIP3   OH290463   3.480   0.407   5.036
13332TIP3    H190464   3.387   0.432   5.021
13332TIP3    H290465   3.510   0.398   4.944
13333TIP3   OH290466   3.342   0.780   4.434
13333TIP3    H190467   3.260   0.736   4.407
13333TIP3    H290468   3.390   0.711   4.486
13334TIP3   OH290469   2.284   1.373   3.694
13334TIP3    H190470   2.349   1.437   3.726
13334TIP3    H290471   2.334   1.328   3.625
13335TIP3   OH290472   3.448   1.706   4.600
13335TIP3    H190473   3.439   1.775   4.532
13335TIP3    H290474   3.544   1.712   4.620
13336TIP3   OH290475   2.193   0.131   4.479
13336TIP3    H190476   2.172   0.130   4.383
13336TIP3    H290477   2.161   0.042   4.505
13337TIP3   OH290478   2.093   1.511   4.096
13337TIP3    H190479   2.008   1.556   4.092
13337TIP3    H290480   2.141   1.557   4.026
13338TIP3   OH290481   3.351   1.594   3.541
13338TIP3    H190482   3.377   1.517   3.596
13338TIP3    H290483   3.432   1.619   3.495
13339TIP3   OH290484   3.247   1.140   4.985
13339TIP3    H190485   3.326   1.197   4.993
13339TIP3    H290486   3.178   1.202   5.009
13340TIP3   OH290487   2.563   0.991   3.770
13340TIP3    H190488   2.511   0.937   3.832
13340TIP3    H290489   2.591   0.923   3.704
13341TIP3   OH290490   2.484   0.769   4.995
13341TIP3    H190491   2.428   0.842   5.025
13341TIP3    H290492   2.526   0.807   4.916
13342TIP3   OH290493   2.667   0.810   3.590
13342TIP3    H190494   2.657   0.796   3.495
13342TIP3    H290495   2.765   0.820   3.600
13343TIP3   OH290496   2.520   0.508   5.104
13343TIP3    H190497   2.538   0.437   5.041
13343TIP3    H290498   2.523   0.589   5.050
13344TIP3   OH290499   2.567   0.343   4.859
13344TIP3    H190500   2.619   0.393   4.792
13344TIP3    H290501   2.479   0.335   4.816
13345TIP3   OH290502   2.723   0.892   4.883
13345TIP3    H190503   2.799   0.878   4.825
13345TIP3    H290504   2.685   0.976   4.852
13346TIP3   OH290505   2.644   0.095   4.900
13346TIP3    H190506   2.629   0.192   4.890
13346TIP3    H290507   2.566   0.060   4.856
13347TIP3   OH290508   2.652   1.881   3.691
13347TIP3    H190509   2.748   1.891   3.704
13347TIP3    H290510   2.633   1.948   3.625
13348TIP3   OH290511   2.010   1.341   3.644
13348TIP3    H190512   2.105   1.349   3.665
13348TIP3    H290513   2.011   1.280   3.569
13349TIP3   OH290514   1.884   1.878   4.141
13349TIP3    H190515   1.813   1.829   4.094
13349TIP3    H290516   1.913   1.812   4.207
13350TIP3   OH290517   1.967   1.691   4.328
13350TIP3    H190518   1.931   1.603   4.348
13350TIP3    H290519   1.989   1.724   4.416
13351TIP3   OH290520   3.721   1.770   4.622
13351TIP3    H190521   3.722   1.786   4.718
13351TIP3    H290522   3.791   1.828   4.592
13352TIP3   OH290523   3.681   1.730   4.910
13352TIP3    H190524   3.632   1.652   4.878
13352TIP3    H290525   3.731   1.687   4.982
13353TIP3   OH290526   3.656   1.133   3.925
13353TIP3    H190527   3.740   1.176   3.947
13353TIP3    H290528   3.653   1.064   3.995
13354TIP3   OH290529   3.690   0.942   4.113
13354TIP3    H190530   3.615   0.893   4.153
13354TIP3    H290531   3.749   0.956   4.189
13355TIP3   OH290532   3.666   1.210   4.611
13355TIP3    H190533   3.747   1.174   4.573
13355TIP3    H290534   3.679   1.306   4.595
13356TIP3   OH290535   3.519   1.502   4.840
13356TIP3    H190536   3.451   1.538   4.900
13356TIP3    H290537   3.465   1.462   4.769
13357TIP3   OH290538   3.718   0.925   3.753
13357TIP3    H190539   3.661   0.960   3.683
13357TIP3    H290540   3.713   0.996   3.820
13358TIP3   OH290541   3.472   0.790   4.170
13358TIP3    H190542   3.457   0.694   4.168
13358TIP3    H290543   3.439   0.813   4.259
13359TIP3   OH290544   1.973   0.999   4.577
13359TIP3    H190545   1.991   0.991   4.481
13359TIP3    H290546   2.062   0.981   4.613
13360TIP3   OH290547   3.563   0.983   5.139
13360TIP3    H190548   3.621   0.911   5.159
13360TIP3    H290549   3.618   1.065   5.135
13361TIP3   OH290550   3.478   0.390   3.517
13361TIP3    H190551   3.541   0.352   3.581
13361TIP3    H290552   3.393   0.350   3.538
13362TIP3   OH290553   3.439   0.548   4.018
13362TIP3    H190554   3.469   0.456   4.030
13362TIP3    H290555   3.518   0.588   3.979
13363TIP3   OH290556   3.503   0.601   4.560
13363TIP3    H190557   3.598   0.627   4.560
13363TIP3    H290558   3.483   0.617   4.654
13364TIP3   OH290559   3.509   0.678   4.840
13364TIP3    H190560   3.421   0.705   4.874
13364TIP3    H290561   3.552   0.764   4.817
13365TIP3   OH290562   3.504   0.275   4.021
13365TIP3    H190563   3.522   0.232   4.107
13365TIP3    H290564   3.442   0.212   3.978
13366TIP3   OH290565   2.051   0.358   4.477
13366TIP3    H190566   2.101   0.277   4.503
13366TIP3    H290567   2.107   0.427   4.515
13367TIP3   OH290568   1.883   0.658   4.582
13367TIP3    H190569   1.939   0.633   4.505
13367TIP3    H290570   1.929   0.738   4.609
13368TIP3   OH290571   3.691   0.282   3.681
13368TIP3    H190572   3.729   0.211   3.627
13368TIP3    H290573   3.761   0.349   3.677
13369TIP3   OH290574   1.920   0.278   3.986
13369TIP3    H190575   1.826   0.300   3.977
13369TIP3    H290576   1.961   0.332   3.915
13370TIP3   OH290577   3.393   1.779   4.184
13370TIP3    H190578   3.461   1.748   4.122
13370TIP3    H290579   3.445   1.829   4.249
13371TIP3   OH290580   1.915   0.156   4.823
13371TIP3    H190581   1.847   0.133   4.887
13371TIP3    H290582   1.870   0.218   4.763
13372TIP3   OH290583   2.426   1.566   4.859
13372TIP3    H190584   2.392   1.654   4.835
13372TIP3    H290585   2.521   1.578   4.834
13373TIP3   OH290586   2.862   1.705   5.157
13373TIP3    H190587   2.880   1.679   5.248
13373TIP3    H290588   2.948   1.742   5.129
13374TIP3   OH290589   3.086   1.843   5.079
13374TIP3    H190590   3.157   1.782   5.057
13374TIP3    H290591   3.126   1.877   5.162
13375TIP3   OH290592   3.586   0.104   4.990
13375TIP3    H190593   3.501   0.133   4.956
13375TIP3    H290594   3.602   0.020   4.950
13376TIP3   OH290595   2.170   1.895   4.863
13376TIP3    H190596   2.095   1.943   4.825
13376TIP3    H290597   2.137   1.876   4.952
13377TIP3   OH290598   2.417   1.853   4.769
13377TIP3    H190599   2.328   1.867   4.811
13377TIP3    H290600   2.410   1.910   4.691
13378TIP3   OH290601   2.888   1.842   4.685
13378TIP3    H190602   2.841   1.898   4.621
13378TIP3    H290603   2.901   1.905   4.759
13379TIP3   OH290604   3.118   1.723   4.784
13379TIP3    H190605   3.031   1.751   4.752
13379TIP3    H290606   3.163   1.809   4.778
13380TIP3   OH290607   3.376   1.883   4.813
13380TIP3    H190608   3.369   1.978   4.789
13380TIP3    H290609   3.396   1.845   4.725
13381TIP3   OH290610   2.116   1.758   4.557
13381TIP3    H190611   2.109   1.715   4.644
13381TIP3    H290612   2.197   1.720   4.518
13382TIP3   OH290613   2.324   1.630   4.421
13382TIP3    H190614   2.307   1.536   4.444
13382TIP3    H290615   2.409   1.645   4.467
13383TIP3   OH290616   2.584   1.678   4.509
13383TIP3    H190617   2.600   1.586   4.483
13383TIP3    H290618   2.589   1.672   4.606
13384TIP3   OH290619   2.927   0.246   4.425
13384TIP3    H190620   2.864   0.177   4.451
13384TIP3    H290621   2.987   0.194   4.369
13385TIP3   OH290622   3.427   0.048   4.387
13385TIP3    H190623   3.497   0.114   4.369
13385TIP3    H290624   3.345   0.096   4.403
13386TIP3   OH290625   3.616   0.177   4.257
13386TIP3    H190626   3.677   0.114   4.217
13386TIP3    H290627   3.666   0.261   4.265
13387TIP3   OH290628   2.154   0.149   4.219
13387TIP3    H190629   2.088   0.110   4.161
13387TIP3    H290630   2.210   0.068   4.225
13388TIP3   OH290631   2.041   0.095   3.778
13388TIP3    H190632   2.092   0.156   3.723
13388TIP3    H290633   1.981   0.149   3.832
13389TIP3   OH290634   2.617   0.101   4.187
13389TIP3    H190635   2.707   0.135   4.182
13389TIP3    H290636   2.614   0.076   4.279
13390TIP3   OH290637   3.170   0.101   4.349
13390TIP3    H190638   3.184   0.108   4.254
13390TIP3    H290639   3.151   0.006   4.360
13391TIP3   OH290640   3.304   0.110   3.897
13391TIP3    H190641   3.228   0.169   3.898
13391TIP3    H290642   3.274   0.027   3.937
13392TIP3   OH290643   2.035   1.677   3.882
13392TIP3    H190644   1.968   1.677   3.811
13392TIP3    H290645   2.038   1.773   3.898
13393TIP3   OH290646   2.226   0.267   3.635
13393TIP3    H190647   2.281   0.214   3.578
13393TIP3    H290648   2.293   0.309   3.691
13394TIP3   OH290649   2.726   0.299   3.874
13394TIP3    H190650   2.757   0.243   3.947
13394TIP3    H290651   2.734   0.386   3.920
13395TIP3   OH290652   2.919   1.809   3.713
13395TIP3    H190653   3.013   1.829   3.699
13395TIP3    H290654   2.903   1.754   3.635
13396TIP3   OH290655   3.592   1.757   3.988
13396TIP3    H190656   3.572   1.680   3.930
13396TIP3    H290657   3.584   1.831   3.924
13397TIP3   OH290658   2.152   0.105   5.129
13397TIP3    H190659   2.105   0.067   5.202
13397TIP3    H290660   2.227   0.146   5.171
13398TIP3   OH290661   2.217   1.773   3.577
13398TIP3    H190662   2.189   1.802   3.665
13398TIP3    H290663   2.295   1.721   3.594
13399TIP3   OH290664   4.961   1.020   4.194
13399TIP3    H190665   4.960   1.117   4.189
13399TIP3    H290666   4.888   0.996   4.133
13400TIP3   OH290667   4.846   0.945   4.544
13400TIP3    H190668   4.845   0.879   4.615
13400TIP3    H290669   4.812   0.895   4.468
13401TIP3   OH290670   4.080   0.917   4.702
13401TIP3    H190671   4.088   0.841   4.766
13401TIP3    H290672   4.161   0.961   4.721
13402TIP3   OH290673   5.215   1.240   4.372
13402TIP3    H190674   5.173   1.169   4.421
13402TIP3    H290675   5.217   1.311   4.439
13403TIP3   OH290676   4.177   1.346   4.565
13403TIP3    H190677   4.143   1.273   4.510
13403TIP3    H290678   4.273   1.343   4.546
13404TIP3   OH290679   3.839   0.713   4.096
13404TIP3    H190680   3.795   0.800   4.092
13404TIP3    H290681   3.781   0.660   4.039
13405TIP3   OH290682   3.912   0.938   4.315
13405TIP3    H190683   3.935   0.852   4.356
13405TIP3    H290684   3.978   0.945   4.245
13406TIP3   OH290685   4.927   1.756   4.396
13406TIP3    H190686   4.992   1.686   4.367
13406TIP3    H290687   4.906   1.723   4.483
13407TIP3   OH290688   4.682   1.183   4.592
13407TIP3    H190689   4.719   1.123   4.525
13407TIP3    H290690   4.764   1.201   4.642
13408TIP3   OH290691   5.548   0.345   4.667
13408TIP3    H190692   5.561   0.409   4.740
13408TIP3    H290693   5.599   0.391   4.598
13409TIP3   OH290694   5.001   0.633   4.622
13409TIP3    H190695   5.017   0.537   4.623
13409TIP3    H290696   4.990   0.646   4.526
13410TIP3   OH290697   4.312   0.442   4.344
13410TIP3    H190698   4.323   0.525   4.294
13410TIP3    H290699   4.273   0.382   4.276
13411TIP3   OH290700   5.085   0.449   4.181
13411TIP3    H190701   5.151   0.417   4.247
13411TIP3    H290702   5.141   0.506   4.126
13412TIP3   OH290703   3.975   0.685   4.418
13412TIP3    H190704   4.041   0.628   4.463
13412TIP3    H290705   3.985   0.651   4.327
13413TIP3   OH290706   4.488   0.838   4.352
13413TIP3    H190707   4.557   0.780   4.389
13413TIP3    H290708   4.439   0.773   4.299
13414TIP3   OH290709   5.593   0.500   4.889
13414TIP3    H190710   5.520   0.564   4.877
13414TIP3    H290711   5.588   0.477   4.983
13415TIP3   OH290712   4.204   0.331   4.745
13415TIP3    H190713   4.173   0.389   4.673
13415TIP3    H290714   4.135   0.352   4.813
13416TIP3   OH290715   4.931   1.279   4.103
13416TIP3    H190716   4.903   1.251   4.015
13416TIP3    H290717   4.901   1.372   4.107
13417TIP3   OH290718   4.448   1.100   4.767
13417TIP3    H190719   4.398   1.171   4.809
13417TIP3    H290720   4.529   1.149   4.743
13418TIP3   OH290721   5.267   0.383   4.380
13418TIP3    H190722   5.243   0.306   4.433
13418TIP3    H290723   5.334   0.427   4.435
13419TIP3   OH290724   4.158   0.516   4.548
13419TIP3    H190725   4.222   0.583   4.581
13419TIP3    H290726   4.211   0.474   4.477
13420TIP3   OH290727   4.302   1.307   4.866
13420TIP3    H190728   4.297   1.399   4.828
13420TIP3    H290729   4.213   1.303   4.911
13421TIP3   OH290730   3.905   1.256   3.931
13421TIP3    H190731   3.883   1.290   3.842
13421TIP3    H290732   3.912   1.340   3.982
13422TIP3   OH290733   5.268   1.423   4.607
13422TIP3    H190734   5.172   1.434   4.622
13422TIP3    H290735   5.295   1.515   4.590
13423TIP3   OH290736   5.302   0.253   4.754
13423TIP3    H190737   5.227   0.314   4.739
13423TIP3    H290738   5.371   0.294   4.699
13424TIP3   OH290739   4.595   0.068   4.472
13424TIP3    H190740   4.593  -0.027   4.492
13424TIP3    H290741   4.518   0.097   4.524
13425TIP3   OH290742   5.094   1.602   4.268
13425TIP3    H190743   5.137   1.530   4.217
13425TIP3    H290744   5.137   1.681   4.229
13426TIP3   OH290745   5.215   1.395   4.119
13426TIP3    H190746   5.187   1.325   4.056
13426TIP3    H290747   5.218   1.345   4.203
13427TIP3   OH290748   5.383   1.253   4.969
13427TIP3    H190749   5.389   1.192   4.893
13427TIP3    H290750   5.396   1.340   4.927
13428TIP3   OH290751   4.826   0.944   3.944
13428TIP3    H190752   4.755   1.001   3.906
13428TIP3    H290753   4.897   0.953   3.878
13429TIP3   OH290754   4.833   0.795   3.654
13429TIP3    H190755   4.907   0.798   3.716
13429TIP3    H290756   4.864   0.732   3.589
13430TIP3   OH290757   5.568   0.885   4.776
13430TIP3    H190758   5.500   0.956   4.777
13430TIP3    H290759   5.614   0.907   4.692
13431TIP3   OH290760   5.169   0.962   4.038
13431TIP3    H190761   5.097   0.989   4.100
13431TIP3    H290762   5.219   0.897   4.091
13432TIP3   OH290763   5.161   0.780   4.949
13432TIP3    H190764   5.161   0.861   5.001
13432TIP3    H290765   5.100   0.810   4.878
13433TIP3   OH290766   4.330   1.030   4.231
13433TIP3    H190767   4.300   0.993   4.145
13433TIP3    H290768   4.394   0.961   4.261
13434TIP3   OH290769   4.459   1.362   4.502
13434TIP3    H190770   4.465   1.318   4.415
13434TIP3    H290771   4.545   1.335   4.541
13435TIP3   OH290772   4.363   0.911   4.596
13435TIP3    H190773   4.420   0.912   4.515
13435TIP3    H290774   4.411   0.969   4.657
13436TIP3   OH290775   5.006   1.461   4.665
13436TIP3    H190776   4.977   1.526   4.730
13436TIP3    H290777   4.982   1.376   4.709
13437TIP3   OH290778   4.459   1.345   5.075
13437TIP3    H190779   4.425   1.428   5.114
13437TIP3    H290780   4.398   1.332   5.000
13438TIP3   OH290781   5.059   0.883   3.804
13438TIP3    H190782   5.114   0.903   3.884
13438TIP3    H290783   5.100   0.938   3.736
13439TIP3   OH290784   4.154   0.981   4.971
13439TIP3    H190785   4.158   1.025   5.057
13439TIP3    H290786   4.058   0.969   4.960
13440TIP3   OH290787   4.830   1.556   4.151
13440TIP3    H190788   4.873   1.587   4.231
13440TIP3    H290789   4.774   1.631   4.127
13441TIP3   OH290790   4.280   1.548   5.138
13441TIP3    H190791   4.281   1.545   5.041
13441TIP3    H290792   4.186   1.542   5.162
13442TIP3   OH290793   5.430   0.057   3.798
13442TIP3    H190794   5.336   0.071   3.821
13442TIP3    H290795   5.454   0.139   3.750
13443TIP3   OH290796   4.229   0.932   3.990
13443TIP3    H190797   4.202   1.010   3.937
13443TIP3    H290798   4.163   0.866   3.967
13444TIP3   OH290799   5.541   1.494   3.633
13444TIP3    H190800   5.556   1.589   3.644
13444TIP3    H290801   5.632   1.461   3.623
13445TIP3   OH290802   3.848   1.174   4.871
13445TIP3    H190803   3.793   1.169   4.791
13445TIP3    H290804   3.843   1.081   4.901
13446TIP3   OH290805   3.816   1.448   4.560
13446TIP3    H190806   3.911   1.440   4.556
13446TIP3    H290807   3.804   1.531   4.608
13447TIP3   OH290808   5.646   1.518   5.072
13447TIP3    H190809   5.640   1.429   5.108
13447TIP3    H290810   5.578   1.555   5.132
13448TIP3   OH290811   4.735   1.473   5.012
13448TIP3    H190812   4.742   1.557   5.063
13448TIP3    H290813   4.647   1.441   5.037
13449TIP3   OH290814   4.777   1.847   3.991
13449TIP3    H190815   4.769   1.841   3.895
13449TIP3    H290816   4.780   1.943   4.009
13450TIP3   OH290817   4.142   1.735   4.175
13450TIP3    H190818   4.157   1.694   4.263
13450TIP3    H290819   4.057   1.695   4.151
13451TIP3   OH290820   5.079   1.768   3.689
13451TIP3    H190821   5.128   1.692   3.648
13451TIP3    H290822   5.088   1.744   3.783
13452TIP3   OH290823   5.052   1.762   3.969
13452TIP3    H190824   4.957   1.769   3.988
13452TIP3    H290825   5.078   1.688   4.026
13453TIP3   OH290826   4.069   1.296   4.972
13453TIP3    H190827   4.081   1.274   5.065
13453TIP3    H290828   3.976   1.270   4.951
13454TIP3   OH290829   4.334   0.153   4.568
13454TIP3    H190830   4.244   0.150   4.531
13454TIP3    H290831   4.325   0.236   4.619
13455TIP3   OH290832   4.804   0.169   4.916
13455TIP3    H190833   4.850   0.100   4.965
13455TIP3    H290834   4.714   0.129   4.904
13456TIP3   OH290835   5.112   0.501   4.989
13456TIP3    H190836   5.081   0.487   5.080
13456TIP3    H290837   5.115   0.598   4.975
13457TIP3   OH290838   4.763   0.376   3.642
13457TIP3    H190839   4.733   0.372   3.735
13457TIP3    H290840   4.735   0.288   3.614
13458TIP3   OH290841   4.343   0.651   4.693
13458TIP3    H190842   4.271   0.648   4.759
13458TIP3    H290843   4.339   0.741   4.657
13459TIP3   OH290844   4.342   0.665   4.181
13459TIP3    H190845   4.248   0.639   4.168
13459TIP3    H290846   4.379   0.634   4.096
13460TIP3   OH290847   4.893   0.713   4.056
13460TIP3    H190848   4.852   0.796   4.023
13460TIP3    H290849   4.961   0.697   3.990
13461TIP3   OH290850   4.997   0.662   4.343
13461TIP3    H190851   4.969   0.719   4.268
13461TIP3    H290852   5.006   0.577   4.295
13462TIP3   OH290853   4.105   0.683   4.864
13462TIP3    H190854   4.117   0.714   4.956
13462TIP3    H290855   4.067   0.595   4.881
13463TIP3   OH290856   3.773   0.391   4.260
13463TIP3    H190857   3.841   0.386   4.330
13463TIP3    H290858   3.818   0.351   4.183
13464TIP3   OH290859   3.901   0.463   3.803
13464TIP3    H190860   3.946   0.519   3.738
13464TIP3    H290861   3.831   0.523   3.832
13465TIP3   OH290862   4.919   0.821   4.803
13465TIP3    H190863   4.954   0.754   4.740
13465TIP3    H290864   4.869   0.765   4.866
13466TIP3   OH290865   4.597   0.419   4.282
13466TIP3    H190866   4.504   0.419   4.312
13466TIP3    H290867   4.645   0.402   4.364
13467TIP3   OH290868   4.078   0.575   4.167
13467TIP3    H190869   3.989   0.589   4.129
13467TIP3    H290870   4.106   0.489   4.129
13468TIP3   OH290871   4.442   0.577   3.929
13468TIP3    H190872   4.537   0.590   3.949
13468TIP3    H290873   4.418   0.646   3.864
13469TIP3   OH290874   5.038   0.336   4.607
13469TIP3    H190875   4.968   0.346   4.675
13469TIP3    H290876   4.987   0.315   4.527
13470TIP3   OH290877   4.312   0.693   3.691
13470TIP3    H190878   4.258   0.661   3.618
13470TIP3    H290879   4.393   0.719   3.645
13471TIP3   OH290880   4.725   0.694   4.471
13471TIP3    H190881   4.784   0.641   4.417
13471TIP3    H290882   4.710   0.639   4.549
13472TIP3   OH290883   4.230   0.307   4.117
13472TIP3    H190884   4.198   0.216   4.112
13472TIP3    H290885   4.306   0.303   4.057
13473TIP3   OH290886   4.589   0.524   4.712
13473TIP3    H190887   4.507   0.577   4.720
13473TIP3    H290888   4.645   0.560   4.784
13474TIP3   OH290889   4.647   1.147   3.885
13474TIP3    H190890   4.567   1.102   3.850
13474TIP3    H290891   4.625   1.160   3.979
13475TIP3   OH290892   5.369   1.066   4.764
13475TIP3    H190893   5.422   1.117   4.700
13475TIP3    H290894   5.282   1.073   4.719
13476TIP3   OH290895   5.033   0.430   3.698
13476TIP3    H190896   4.939   0.446   3.683
13476TIP3    H290897   5.064   0.516   3.732
13477TIP3   OH290898   4.797   1.177   5.001
13477TIP3    H190899   4.763   1.134   5.080
13477TIP3    H290900   4.773   1.270   5.014
13478TIP3   OH290901   5.106   0.623   3.866
13478TIP3    H190902   5.196   0.611   3.902
13478TIP3    H290903   5.114   0.704   3.813
13479TIP3   OH290904   4.166   1.089   4.471
13479TIP3    H190905   4.225   1.080   4.393
13479TIP3    H290906   4.163   0.997   4.502
13480TIP3   OH290907   4.858   1.296   3.791
13480TIP3    H190908   4.820   1.381   3.821
13480TIP3    H290909   4.783   1.234   3.806
13481TIP3   OH290910   3.858   0.931   4.987
13481TIP3    H190911   3.878   0.886   5.071
13481TIP3    H290912   3.796   0.868   4.944
13482TIP3   OH290913   5.024   1.417   5.001
13482TIP3    H190914   4.932   1.439   4.976
13482TIP3    H290915   5.025   1.442   5.094
13483TIP3   OH290916   5.590   0.638   3.842
13483TIP3    H190917   5.541   0.605   3.766
13483TIP3    H290918   5.603   0.732   3.812
13484TIP3   OH290919   5.590   1.203   5.116
13484TIP3    H190920   5.506   1.248   5.084
13484TIP3    H290921   5.645   1.224   5.038
13485TIP3   OH290922   5.425   1.521   3.881
13485TIP3    H190923   5.387   1.438   3.913
13485TIP3    H290924   5.453   1.500   3.789
13486TIP3   OH290925   5.144   1.001   4.591
13486TIP3    H190926   5.050   0.979   4.579
13486TIP3    H290927   5.187   0.925   4.547
13487TIP3   OH290928   4.396   1.434   4.201
13487TIP3    H190929   4.446   1.515   4.180
13487TIP3    H290930   4.308   1.457   4.167
13488TIP3   OH290931   3.969   0.921   3.654
13488TIP3    H190932   4.032   0.982   3.696
13488TIP3    H290933   3.882   0.947   3.687
13489TIP3   OH290934   4.538   1.201   4.153
13489TIP3    H190935   4.506   1.293   4.162
13489TIP3    H290936   4.465   1.152   4.196
13490TIP3   OH290937   4.582   1.619   4.790
13490TIP3    H190938   4.627   1.702   4.766
13490TIP3    H290939   4.643   1.585   4.858
13491TIP3   OH290940   4.405   1.699   4.105
13491TIP3    H190941   4.309   1.714   4.119
13491TIP3    H290942   4.442   1.783   4.140
13492TIP3   OH290943   4.936   1.219   4.753
13492TIP3    H190944   4.902   1.201   4.843
13492TIP3    H290945   5.001   1.148   4.740
13493TIP3   OH290946   5.163   1.326   3.670
13493TIP3    H190947   5.198   1.276   3.746
13493TIP3    H290948   5.069   1.305   3.675
13494TIP3   OH290949   5.208   1.678   5.008
13494TIP3    H190950   5.147   1.626   4.953
13494TIP3    H290951   5.236   1.747   4.944
13495TIP3   OH290952   5.616   1.765   3.690
13495TIP3    H190953   5.685   1.828   3.665
13495TIP3    H290954   5.544   1.825   3.719
13496TIP3   OH290955   4.023   0.401   4.942
13496TIP3    H190956   3.932   0.436   4.939
13496TIP3    H290957   4.012   0.316   4.986
13497TIP3   OH290958   5.245   1.193   3.895
13497TIP3    H190959   5.224   1.109   3.940
13497TIP3    H290960   5.342   1.193   3.903
13498TIP3   OH290961   3.988   1.581   4.786
13498TIP3    H190962   4.012   1.488   4.788
13498TIP3    H290963   4.008   1.613   4.875
13499TIP3   OH290964   4.457   1.389   3.756
13499TIP3    H190965   4.486   1.334   3.830
13499TIP3    H290966   4.468   1.480   3.790
13500TIP3   OH290967   4.109   1.113   3.804
13500TIP3    H190968   4.043   1.154   3.864
13500TIP3    H290969   4.165   1.188   3.782
13501TIP3   OH290970   4.898   0.388   4.834
13501TIP3    H190971   4.968   0.386   4.900
13501TIP3    H290972   4.858   0.299   4.849
13502TIP3   OH290973   4.973   0.335   3.949
13502TIP3    H190974   4.993   0.385   3.867
13502TIP3    H290975   5.028   0.382   4.014
13503TIP3   OH290976   4.739   1.555   3.831
13503TIP3    H190977   4.657   1.605   3.835
13503TIP3    H290978   4.793   1.604   3.767
13504TIP3   OH290979   4.692   0.511   4.029
13504TIP3    H190980   4.771   0.569   4.032
13504TIP3    H290981   4.667   0.500   4.123
13505TIP3   OH290982   4.756   0.619   4.942
13505TIP3    H190983   4.754   0.669   5.024
13505TIP3    H290984   4.809   0.539   4.956
13506TIP3   OH290985   4.781   0.217   4.122
13506TIP3    H190986   4.746   0.284   4.183
13506TIP3    H290987   4.847   0.273   4.074
13507TIP3   OH290988   4.474   1.657   3.831
13507TIP3    H190989   4.493   1.739   3.781
13507TIP3    H290990   4.452   1.691   3.920
13508TIP3   OH290991   4.344   0.329   3.790
13508TIP3    H190992   4.338   0.419   3.825
13508TIP3    H290993   4.435   0.305   3.817
13509TIP3   OH290994   5.367   0.411   5.036
13509TIP3    H190995   5.273   0.432   5.021
13509TIP3    H290996   5.396   0.398   4.944
13510TIP3   OH290997   5.228   0.780   4.435
13510TIP3    H190998   5.145   0.736   4.407
13510TIP3    H290999   5.275   0.711   4.486
13511TIP3   OH291000   4.169   1.374   3.694
13511TIP3    H191001   4.235   1.436   3.726
13511TIP3    H291002   4.220   1.328   3.626
13512TIP3   OH291003   5.334   1.705   4.599
13512TIP3    H191004   5.325   1.775   4.532
13512TIP3    H291005   5.430   1.712   4.620
13513TIP3   OH291006   4.079   0.131   4.479
13513TIP3    H191007   4.057   0.130   4.383
13513TIP3    H291008   4.047   0.042   4.505
13514TIP3   OH291009   3.979   1.511   4.097
13514TIP3    H191010   3.893   1.556   4.092
13514TIP3    H291011   4.027   1.557   4.027
13515TIP3   OH291012   5.239   1.599   3.548
13515TIP3    H191013   5.262   1.515   3.592
13515TIP3    H291014   5.315   1.614   3.491
13516TIP3   OH291015   5.134   1.139   4.987
13516TIP3    H191016   5.211   1.199   4.992
13516TIP3    H291017   5.063   1.201   5.009
13517TIP3   OH291018   4.448   0.991   3.770
13517TIP3    H191019   4.396   0.937   3.832
13517TIP3    H291020   4.477   0.923   3.704
13518TIP3   OH291021   4.368   0.770   4.994
13518TIP3    H191022   4.314   0.843   5.026
13518TIP3    H291023   4.413   0.807   4.916
13519TIP3   OH291024   4.553   0.809   3.589
13519TIP3    H191025   4.543   0.796   3.493
13519TIP3    H291026   4.650   0.821   3.599
13520TIP3   OH291027   4.405   0.508   5.104
13520TIP3    H191028   4.424   0.436   5.041
13520TIP3    H291029   4.408   0.589   5.050
13521TIP3   OH291030   4.452   0.343   4.859
13521TIP3    H191031   4.505   0.393   4.793
13521TIP3    H291032   4.365   0.335   4.816
13522TIP3   OH291033   4.606   0.892   4.879
13522TIP3    H191034   4.685   0.877   4.826
13522TIP3    H291035   4.575   0.978   4.852
13523TIP3   OH291036   4.529   0.095   4.899
13523TIP3    H191037   4.514   0.192   4.890
13523TIP3    H291038   4.452   0.060   4.856
13524TIP3   OH291039   4.537   1.881   3.691
13524TIP3    H191040   4.634   1.892   3.704
13524TIP3    H291041   4.518   1.948   3.625
13525TIP3   OH291042   3.895   1.341   3.644
13525TIP3    H191043   3.991   1.349   3.665
13525TIP3    H291044   3.897   1.280   3.570
13526TIP3   OH291045   3.769   1.877   4.142
13526TIP3    H191046   3.698   1.829   4.094
13526TIP3    H291047   3.798   1.811   4.207
13527TIP3   OH291048   3.853   1.691   4.328
13527TIP3    H191049   3.817   1.603   4.349
13527TIP3    H291050   3.876   1.724   4.417
13528TIP3   OH291051   5.606   1.770   4.622
13528TIP3    H191052   5.609   1.787   4.718
13528TIP3    H291053   5.677   1.828   4.592
13529TIP3   OH291054   5.567   1.729   4.910
13529TIP3    H191055   5.518   1.652   4.878
13529TIP3    H291056   5.617   1.686   4.982
13530TIP3   OH291057   5.540   1.137   3.931
13530TIP3    H191058   5.627   1.175   3.946
13530TIP3    H291059   5.539   1.062   3.994
13531TIP3   OH291060   5.577   0.942   4.114
13531TIP3    H191061   5.500   0.893   4.152
13531TIP3    H291062   5.635   0.956   4.191
13532TIP3   OH291063   5.550   1.211   4.609
13532TIP3    H191064   5.633   1.174   4.575
13532TIP3    H291065   5.565   1.307   4.595
13533TIP3   OH291066   5.404   1.502   4.840
13533TIP3    H191067   5.336   1.538   4.900
13533TIP3    H291068   5.350   1.462   4.769
13534TIP3   OH291069   5.612   0.917   3.762
13534TIP3    H191070   5.553   0.950   3.690
13534TIP3    H291071   5.599   0.994   3.820
13535TIP3   OH291072   5.357   0.790   4.170
13535TIP3    H191073   5.343   0.694   4.169
13535TIP3    H291074   5.325   0.813   4.259
13536TIP3   OH291075   3.859   1.002   4.577
13536TIP3    H191076   3.875   0.990   4.481
13536TIP3    H291077   3.947   0.978   4.612
13537TIP3   OH291078   5.443   0.989   5.142
13537TIP3    H191079   5.487   0.908   5.147
13537TIP3    H291080   5.500   1.069   5.132
13538TIP3   OH291081   5.365   0.391   3.517
13538TIP3    H191082   5.427   0.352   3.581
13538TIP3    H291083   5.280   0.350   3.536
13539TIP3   OH291084   5.325   0.548   4.017
13539TIP3    H191085   5.355   0.456   4.030
13539TIP3    H291086   5.404   0.588   3.979
13540TIP3   OH291087   5.389   0.601   4.561
13540TIP3    H191088   5.484   0.627   4.560
13540TIP3    H291089   5.369   0.616   4.654
13541TIP3   OH291090   5.395   0.678   4.843
13541TIP3    H191091   5.305   0.705   4.872
13541TIP3    H291092   5.436   0.763   4.814
13542TIP3   OH291093   5.390   0.275   4.021
13542TIP3    H191094   5.408   0.232   4.107
13542TIP3    H291095   5.327   0.212   3.978
13543TIP3   OH291096   3.936   0.357   4.477
13543TIP3    H191097   3.986   0.277   4.503
13543TIP3    H291098   3.993   0.426   4.515
13544TIP3   OH291099   3.768   0.657   4.581
13544TIP3    H191100   3.824   0.633   4.505
13544TIP3    H291101   3.814   0.738   4.609
13545TIP3   OH291102   5.576   0.282   3.681
13545TIP3    H191103   5.614   0.211   3.627
13545TIP3    H291104   5.646   0.349   3.677
13546TIP3   OH291105   3.806   0.278   3.986
13546TIP3    H191106   3.711   0.300   3.977
13546TIP3    H291107   3.846   0.332   3.915
13547TIP3   OH291108   5.278   1.779   4.184
13547TIP3    H191109   5.347   1.748   4.122
13547TIP3    H291110   5.330   1.829   4.249
13548TIP3   OH291111   3.801   0.155   4.822
13548TIP3    H191112   3.733   0.133   4.887
13548TIP3    H291113   3.756   0.218   4.763
13549TIP3   OH291114   4.312   1.569   4.855
13549TIP3    H191115   4.279   1.658   4.835
13549TIP3    H291116   4.407   1.583   4.834
13550TIP3   OH291117   4.748   1.701   5.159
13550TIP3    H191118   4.767   1.679   5.250
13550TIP3    H291119   4.832   1.742   5.129
13551TIP3   OH291120   4.972   1.841   5.083
13551TIP3    H191121   5.044   1.783   5.056
13551TIP3    H291122   5.013   1.878   5.163
13552TIP3   OH291123   5.471   0.103   4.991
13552TIP3    H191124   5.386   0.133   4.955
13552TIP3    H291125   5.488   0.020   4.950
13553TIP3   OH291126   4.056   1.897   4.862
13553TIP3    H191127   3.979   1.942   4.825
13553TIP3    H291128   4.024   1.877   4.951
13554TIP3   OH291129   4.301   1.852   4.768
13554TIP3    H191130   4.213   1.867   4.811
13554TIP3    H291131   4.295   1.909   4.690
13555TIP3   OH291132   4.774   1.840   4.681
13555TIP3    H191133   4.728   1.900   4.622
13555TIP3    H291134   4.786   1.900   4.759
13556TIP3   OH291135   5.005   1.722   4.781
13556TIP3    H191136   4.916   1.752   4.754
13556TIP3    H291137   5.048   1.809   4.779
13557TIP3   OH291138   5.262   1.883   4.813
13557TIP3    H191139   5.254   1.978   4.789
13557TIP3    H291140   5.282   1.845   4.725
13558TIP3   OH291141   4.004   1.762   4.558
13558TIP3    H191142   3.995   1.715   4.644
13558TIP3    H291143   4.082   1.719   4.517
13559TIP3   OH291144   4.209   1.629   4.422
13559TIP3    H191145   4.193   1.536   4.443
13559TIP3    H291146   4.295   1.644   4.466
13560TIP3   OH291147   4.468   1.679   4.509
13560TIP3    H191148   4.486   1.588   4.481
13560TIP3    H291149   4.475   1.672   4.605
13561TIP3   OH291150   4.813   0.246   4.424
13561TIP3    H191151   4.749   0.177   4.451
13561TIP3    H291152   4.872   0.194   4.369
13562TIP3   OH291153   5.313   0.048   4.387
13562TIP3    H191154   5.383   0.114   4.370
13562TIP3    H291155   5.230   0.096   4.403
13563TIP3   OH291156   5.501   0.177   4.257
13563TIP3    H191157   5.563   0.114   4.217
13563TIP3    H291158   5.551   0.261   4.265
13564TIP3   OH291159   4.040   0.149   4.219
13564TIP3    H191160   3.974   0.110   4.161
13564TIP3    H291161   4.096   0.068   4.225
13565TIP3   OH291162   3.926   0.094   3.778
13565TIP3    H191163   3.978   0.157   3.724
13565TIP3    H291164   3.867   0.148   3.832
13566TIP3   OH291165   4.502   0.101   4.187
13566TIP3    H191166   4.593   0.135   4.182
13566TIP3    H291167   4.499   0.076   4.279
13567TIP3   OH291168   5.056   0.101   4.349
13567TIP3    H191169   5.069   0.108   4.254
13567TIP3    H291170   5.037   0.006   4.360
13568TIP3   OH291171   5.190   0.110   3.897
13568TIP3    H191172   5.114   0.169   3.898
13568TIP3    H291173   5.159   0.027   3.937
13569TIP3   OH291174   3.921   1.677   3.881
13569TIP3    H191175   3.853   1.677   3.810
13569TIP3    H291176   3.923   1.772   3.897
13570TIP3   OH291177   4.111   0.266   3.634
13570TIP3    H191178   4.168   0.214   3.579
13570TIP3    H291179   4.178   0.309   3.691
13571TIP3   OH291180   4.611   0.299   3.874
13571TIP3    H191181   4.642   0.243   3.947
13571TIP3    H291182   4.619   0.386   3.920
13572TIP3   OH291183   4.804   1.809   3.713
13572TIP3    H191184   4.899   1.829   3.699
13572TIP3    H291185   4.788   1.754   3.635
13573TIP3   OH291186   5.479   1.758   3.987
13573TIP3    H191187   5.458   1.680   3.930
13573TIP3    H291188   5.469   1.831   3.924
13574TIP3   OH291189   4.035   0.110   5.129
13574TIP3    H191190   3.993   0.066   5.202
13574TIP3    H291191   4.115   0.141   5.171
13575TIP3   OH291192   4.105   1.775   3.577
13575TIP3    H191193   4.075   1.803   3.665
13575TIP3    H291194   4.181   1.720   3.595
13576TIP3   OH291195   6.847   1.020   4.194
13576TIP3    H191196   6.846   1.118   4.190
13576TIP3    H291197   6.774   0.996   4.133
13577TIP3   OH291198   6.732   0.945   4.544
13577TIP3    H191199   6.731   0.879   4.614
13577TIP3    H291200   6.697   0.895   4.469
13578TIP3   OH291201   5.965   0.916   4.704
13578TIP3    H191202   5.979   0.842   4.767
13578TIP3    H291203   6.043   0.970   4.720
13579TIP3   OH291204   7.101   1.242   4.371
13579TIP3    H191205   7.060   1.169   4.419
13579TIP3    H291206   7.102   1.310   4.440
13580TIP3   OH291207   6.060   1.357   4.550
13580TIP3    H191208   6.029   1.271   4.517
13580TIP3    H291209   6.156   1.339   4.554
13581TIP3   OH291210   5.724   0.713   4.096
13581TIP3    H191211   5.681   0.800   4.092
13581TIP3    H291212   5.667   0.660   4.040
13582TIP3   OH291213   5.795   0.936   4.312
13582TIP3    H191214   5.822   0.854   4.357
13582TIP3    H291215   5.865   0.946   4.246
13583TIP3   OH291216   6.814   1.756   4.396
13583TIP3    H191217   6.876   1.684   4.368
13583TIP3    H291218   6.791   1.723   4.483
13584TIP3   OH291219   6.569   1.186   4.590
13584TIP3    H191220   6.604   1.123   4.525
13584TIP3    H291221   6.650   1.201   4.644
13585TIP3   OH291222   7.435   0.343   4.666
13585TIP3    H191223   7.445   0.408   4.740
13585TIP3    H291224   7.483   0.393   4.598
13586TIP3   OH291225   6.885   0.632   4.622
13586TIP3    H191226   6.903   0.536   4.622
13586TIP3    H291227   6.876   0.646   4.526
13587TIP3   OH291228   6.198   0.442   4.344
13587TIP3    H191229   6.208   0.525   4.294
13587TIP3    H291230   6.158   0.382   4.276
13588TIP3   OH291231   6.971   0.449   4.181
13588TIP3    H191232   7.036   0.417   4.247
13588TIP3    H291233   7.027   0.506   4.126
13589TIP3   OH291234   5.860   0.685   4.418
13589TIP3    H191235   5.926   0.628   4.463
13589TIP3    H291236   5.870   0.652   4.327
13590TIP3   OH291237   6.376   0.837   4.349
13590TIP3    H191238   6.443   0.779   4.389
13590TIP3    H291239   6.324   0.772   4.298
13591TIP3   OH291240   7.476   0.496   4.888
13591TIP3    H191241   7.408   0.566   4.878
13591TIP3    H291242   7.474   0.478   4.983
13592TIP3   OH291243   6.089   0.331   4.745
13592TIP3    H191244   6.058   0.389   4.673
13592TIP3    H291245   6.021   0.352   4.813
13593TIP3   OH291246   6.818   1.279   4.103
13593TIP3    H191247   6.788   1.251   4.015
13593TIP3    H291248   6.787   1.372   4.107
13594TIP3   OH291249   6.338   1.095   4.772
13594TIP3    H191250   6.269   1.160   4.795
13594TIP3    H291251   6.410   1.154   4.744
13595TIP3   OH291252   7.153   0.383   4.380
13595TIP3    H191253   7.129   0.306   4.433
13595TIP3    H291254   7.219   0.427   4.435
13596TIP3   OH291255   6.044   0.517   4.548
13596TIP3    H191256   6.108   0.583   4.581
13596TIP3    H291257   6.097   0.474   4.477
13597TIP3   OH291258   6.184   1.296   4.854
13597TIP3    H191259   6.180   1.388   4.821
13597TIP3    H291260   6.096   1.289   4.897
13598TIP3   OH291261   5.794   1.257   3.931
13598TIP3    H191262   5.767   1.289   3.843
13598TIP3    H291263   5.798   1.340   3.983
13599TIP3   OH291264   7.152   1.423   4.601
13599TIP3    H191265   7.057   1.433   4.624
13599TIP3    H291266   7.180   1.517   4.593
13600TIP3   OH291267   7.189   0.253   4.754
13600TIP3    H191268   7.114   0.314   4.739
13600TIP3    H291269   7.257   0.294   4.698
13601TIP3   OH291270   6.481   0.068   4.472
13601TIP3    H191271   6.479  -0.027   4.492
13601TIP3    H291272   6.404   0.097   4.524
13602TIP3   OH291273   6.987   1.602   4.273
13602TIP3    H191274   7.018   1.529   4.215
13602TIP3    H291275   7.017   1.682   4.225
13603TIP3   OH291276   7.103   1.396   4.121
13603TIP3    H191277   7.071   1.328   4.058
13603TIP3    H291278   7.102   1.343   4.203
13604TIP3   OH291279   7.269   1.254   4.969
13604TIP3    H191280   7.273   1.190   4.895
13604TIP3    H291281   7.281   1.340   4.927
13605TIP3   OH291282   6.712   0.944   3.944
13605TIP3    H191283   6.641   1.001   3.907
13605TIP3    H291284   6.782   0.953   3.877
13606TIP3   OH291285   6.718   0.795   3.653
13606TIP3    H191286   6.791   0.797   3.716
13606TIP3    H291287   6.750   0.732   3.589
13607TIP3   OH291288   7.451   0.883   4.773
13607TIP3    H191289   7.386   0.956   4.780
13607TIP3    H291290   7.498   0.909   4.692
13608TIP3   OH291291   7.056   0.963   4.037
13608TIP3    H191292   6.983   0.989   4.098
13608TIP3    H291293   7.104   0.897   4.092
13609TIP3   OH291294   7.045   0.778   4.948
13609TIP3    H191295   7.051   0.859   5.000
13609TIP3    H291296   6.986   0.813   4.879
13610TIP3   OH291297   6.217   1.030   4.228
13610TIP3    H191298   6.186   0.991   4.143
13610TIP3    H291299   6.279   0.961   4.262
13611TIP3   OH291300   6.350   1.369   4.497
13611TIP3    H191301   6.349   1.316   4.417
13611TIP3    H291302   6.428   1.333   4.543
13612TIP3   OH291303   6.251   0.905   4.595
13612TIP3    H191304   6.306   0.915   4.515
13612TIP3    H291305   6.290   0.971   4.657
13613TIP3   OH291306   6.891   1.462   4.665
13613TIP3    H191307   6.865   1.525   4.734
13613TIP3    H291308   6.868   1.377   4.708
13614TIP3   OH291309   6.341   1.344   5.071
13614TIP3    H191310   6.309   1.427   5.111
13614TIP3    H291311   6.280   1.328   4.996
13615TIP3   OH291312   6.946   0.882   3.804
13615TIP3    H191313   6.998   0.902   3.885
13615TIP3    H291314   6.983   0.939   3.736
13616TIP3   OH291315   6.035   0.962   4.987
13616TIP3    H191316   6.047   1.031   5.052
13616TIP3    H291317   5.947   0.977   4.952
13617TIP3   OH291318   6.717   1.557   4.149
13617TIP3    H191319   6.757   1.587   4.232
13617TIP3    H291320   6.658   1.631   4.127
13618TIP3   OH291321   6.166   1.550   5.139
13618TIP3    H191322   6.167   1.543   5.042
13618TIP3    H291323   6.072   1.542   5.161
13619TIP3   OH291324   7.316   0.056   3.798
13619TIP3    H191325   7.221   0.070   3.821
13619TIP3    H291326   7.339   0.139   3.750
13620TIP3   OH291327   6.115   0.932   3.990
13620TIP3    H191328   6.087   1.010   3.938
13620TIP3    H291329   6.049   0.866   3.967
13621TIP3   OH291330   7.427   1.492   3.633
13621TIP3    H191331   7.441   1.588   3.643
13621TIP3    H291332   7.519   1.463   3.624
13622TIP3   OH291333   5.728   1.176   4.876
13622TIP3    H191334   5.680   1.170   4.790
13622TIP3    H291335   5.731   1.081   4.898
13623TIP3   OH291336   5.700   1.449   4.558
13623TIP3    H191337   5.796   1.437   4.556
13623TIP3    H291338   5.692   1.530   4.610
13624TIP3   OH291339   7.531   1.517   5.070
13624TIP3    H191340   7.529   1.428   5.109
13624TIP3    H291341   7.464   1.554   5.131
13625TIP3   OH291342   6.613   1.474   5.008
13625TIP3    H191343   6.628   1.555   5.063
13625TIP3    H291344   6.528   1.438   5.038
13626TIP3   OH291345   6.663   1.848   3.991
13626TIP3    H191346   6.654   1.841   3.894
13626TIP3    H291347   6.665   1.944   4.008
13627TIP3   OH291348   6.028   1.735   4.174
13627TIP3    H191349   6.042   1.694   4.263
13627TIP3    H291350   5.943   1.695   4.151
13628TIP3   OH291351   6.965   1.768   3.690
13628TIP3    H191352   7.013   1.692   3.648
13628TIP3    H291353   6.974   1.744   3.784
13629TIP3   OH291354   6.939   1.763   3.971
13629TIP3    H191355   6.843   1.770   3.987
13629TIP3    H291356   6.961   1.686   4.025
13630TIP3   OH291357   5.953   1.304   4.977
13630TIP3    H191358   5.969   1.271   5.065
13630TIP3    H291359   5.865   1.270   4.949
13631TIP3   OH291360   6.220   0.153   4.569
13631TIP3    H191361   6.130   0.150   4.531
13631TIP3    H291362   6.211   0.236   4.619
13632TIP3   OH291363   6.689   0.169   4.916
13632TIP3    H191364   6.735   0.100   4.965
13632TIP3    H291365   6.600   0.129   4.904
13633TIP3   OH291366   6.998   0.500   4.989
13633TIP3    H191367   6.967   0.487   5.080
13633TIP3    H291368   7.001   0.596   4.974
13634TIP3   OH291369   6.649   0.376   3.642
13634TIP3    H191370   6.618   0.372   3.735
13634TIP3    H291371   6.620   0.288   3.614
13635TIP3   OH291372   6.228   0.650   4.693
13635TIP3    H191373   6.157   0.650   4.759
13635TIP3    H291374   6.226   0.743   4.659
13636TIP3   OH291375   6.227   0.665   4.181
13636TIP3    H191376   6.133   0.639   4.167
13636TIP3    H291377   6.265   0.634   4.096
13637TIP3   OH291378   6.778   0.713   4.057
13637TIP3    H191379   6.738   0.796   4.023
13637TIP3    H291380   6.847   0.696   3.990
13638TIP3   OH291381   6.882   0.662   4.342
13638TIP3    H191382   6.854   0.719   4.268
13638TIP3    H291383   6.892   0.577   4.295
13639TIP3   OH291384   5.988   0.682   4.865
13639TIP3    H191385   6.005   0.714   4.955
13639TIP3    H291386   5.953   0.592   4.882
13640TIP3   OH291387   5.659   0.391   4.260
13640TIP3    H191388   5.726   0.386   4.330
13640TIP3    H291389   5.704   0.351   4.183
13641TIP3   OH291390   5.787   0.462   3.803
13641TIP3    H191391   5.832   0.518   3.738
13641TIP3    H291392   5.717   0.523   3.832
13642TIP3   OH291393   6.802   0.819   4.800
13642TIP3    H191394   6.840   0.752   4.740
13642TIP3    H291395   6.755   0.766   4.866
13643TIP3   OH291396   6.482   0.419   4.282
13643TIP3    H191397   6.389   0.419   4.312
13643TIP3    H291398   6.531   0.401   4.364
13644TIP3   OH291399   5.964   0.574   4.166
13644TIP3    H191400   5.874   0.589   4.129
13644TIP3    H291401   5.991   0.489   4.127
13645TIP3   OH291402   6.327   0.578   3.929
13645TIP3    H191403   6.422   0.590   3.949
13645TIP3    H291404   6.304   0.646   3.864
13646TIP3   OH291405   6.923   0.335   4.607
13646TIP3    H191406   6.853   0.346   4.675
13646TIP3    H291407   6.873   0.315   4.527
13647TIP3   OH291408   6.197   0.693   3.691
13647TIP3    H191409   6.143   0.661   3.617
13647TIP3    H291410   6.279   0.719   3.645
13648TIP3   OH291411   6.610   0.694   4.471
13648TIP3    H191412   6.670   0.640   4.417
13648TIP3    H291413   6.596   0.639   4.549
13649TIP3   OH291414   6.116   0.307   4.117
13649TIP3    H191415   6.083   0.216   4.112
13649TIP3    H291416   6.191   0.303   4.057
13650TIP3   OH291417   6.475   0.524   4.712
13650TIP3    H191418   6.392   0.577   4.720
13650TIP3    H291419   6.530   0.560   4.784
13651TIP3   OH291420   6.534   1.147   3.885
13651TIP3    H191421   6.454   1.102   3.850
13651TIP3    H291422   6.511   1.160   3.979
13652TIP3   OH291423   7.256   1.065   4.760
13652TIP3    H191424   7.309   1.118   4.698
13652TIP3    H291425   7.166   1.075   4.721
13653TIP3   OH291426   6.919   0.430   3.698
13653TIP3    H191427   6.824   0.446   3.683
13653TIP3    H291428   6.950   0.516   3.731
13654TIP3   OH291429   6.654   1.172   4.989
13654TIP3    H191430   6.654   1.135   5.078
13654TIP3    H291431   6.663   1.265   5.014
13655TIP3   OH291432   6.990   0.623   3.867
13655TIP3    H191433   7.080   0.609   3.903
13655TIP3    H291434   6.998   0.703   3.814
13656TIP3   OH291435   6.044   1.088   4.462
13656TIP3    H191436   6.113   1.081   4.393
13656TIP3    H291437   6.050   1.002   4.507
13657TIP3   OH291438   6.744   1.296   3.791
13657TIP3    H191439   6.706   1.381   3.821
13657TIP3    H291440   6.669   1.234   3.805
13658TIP3   OH291441   5.730   0.931   4.998
13658TIP3    H191442   5.783   0.879   5.060
13658TIP3    H291443   5.687   0.867   4.937
13659TIP3   OH291444   6.895   1.496   4.980
13659TIP3    H191445   6.814   1.443   4.969
13659TIP3    H291446   6.917   1.448   5.063
13660TIP3   OH291447   7.475   0.639   3.842
13660TIP3    H191448   7.427   0.603   3.766
13660TIP3    H291449   7.489   0.731   3.812
13661TIP3   OH291450   7.477   1.210   5.117
13661TIP3    H191451   7.390   1.246   5.084
13661TIP3    H291452   7.531   1.220   5.037
13662TIP3   OH291453   7.311   1.520   3.882
13662TIP3    H191454   7.272   1.437   3.912
13662TIP3    H291455   7.339   1.501   3.789
13663TIP3   OH291456   7.029   1.002   4.591
13663TIP3    H191457   6.935   0.979   4.579
13663TIP3    H291458   7.073   0.926   4.548
13664TIP3   OH291459   6.281   1.434   4.200
13664TIP3    H191460   6.331   1.515   4.180
13664TIP3    H291461   6.194   1.457   4.168
13665TIP3   OH291462   5.857   0.921   3.653
13665TIP3    H191463   5.916   0.984   3.696
13665TIP3    H291464   5.768   0.946   3.684
13666TIP3   OH291465   6.423   1.200   4.153
13666TIP3    H191466   6.392   1.293   4.161
13666TIP3    H291467   6.351   1.152   4.197
13667TIP3   OH291468   6.469   1.619   4.792
13667TIP3    H191469   6.514   1.700   4.766
13667TIP3    H291470   6.531   1.584   4.859
13668TIP3   OH291471   6.292   1.700   4.106
13668TIP3    H191472   6.195   1.712   4.120
13668TIP3    H291473   6.327   1.784   4.141
13669TIP3   OH291474   6.822   1.219   4.754
13669TIP3    H191475   6.789   1.202   4.844
13669TIP3    H291476   6.886   1.148   4.740
13670TIP3   OH291477   7.049   1.321   3.667
13670TIP3    H191478   7.079   1.278   3.750
13670TIP3    H291479   6.953   1.308   3.674
13671TIP3   OH291480   7.099   1.679   5.007
13671TIP3    H191481   7.032   1.625   4.959
13671TIP3    H291482   7.121   1.746   4.940
13672TIP3   OH291483   7.502   1.764   3.691
13672TIP3    H191484   7.571   1.828   3.665
13672TIP3    H291485   7.430   1.824   3.719
13673TIP3   OH291486   5.910   0.400   4.941
13673TIP3    H191487   5.819   0.434   4.937
13673TIP3    H291488   5.898   0.315   4.986
13674TIP3   OH291489   7.133   1.187   3.887
13674TIP3    H191490   7.108   1.110   3.942
13674TIP3    H291491   7.227   1.196   3.909
13675TIP3   OH291492   5.871   1.581   4.785
13675TIP3    H191493   5.899   1.488   4.786
13675TIP3    H291494   5.895   1.611   4.874
13676TIP3   OH291495   6.342   1.389   3.756
13676TIP3    H191496   6.371   1.334   3.830
13676TIP3    H291497   6.354   1.480   3.790
13677TIP3   OH291498   5.994   1.113   3.804
13677TIP3    H191499   5.927   1.153   3.863
13677TIP3    H291500   6.051   1.188   3.782
13678TIP3   OH291501   6.784   0.388   4.834
13678TIP3    H191502   6.854   0.386   4.900
13678TIP3    H291503   6.744   0.299   4.849
13679TIP3   OH291504   6.859   0.335   3.949
13679TIP3    H191505   6.878   0.385   3.867
13679TIP3    H291506   6.914   0.381   4.014
13680TIP3   OH291507   6.625   1.555   3.830
13680TIP3    H191508   6.542   1.605   3.835
13680TIP3    H291509   6.678   1.604   3.767
13681TIP3   OH291510   6.578   0.511   4.029
13681TIP3    H191511   6.657   0.569   4.032
13681TIP3    H291512   6.552   0.500   4.123
13682TIP3   OH291513   6.642   0.618   4.942
13682TIP3    H191514   6.641   0.669   5.024
13682TIP3    H291515   6.695   0.539   4.957
13683TIP3   OH291516   6.667   0.217   4.122
13683TIP3    H191517   6.632   0.284   4.183
13683TIP3    H291518   6.732   0.273   4.074
13684TIP3   OH291519   6.360   1.657   3.831
13684TIP3    H191520   6.378   1.739   3.781
13684TIP3    H291521   6.337   1.691   3.920
13685TIP3   OH291522   6.230   0.329   3.790
13685TIP3    H191523   6.224   0.419   3.826
13685TIP3    H291524   6.321   0.305   3.817
13686TIP3   OH291525   7.252   0.408   5.036
13686TIP3    H191526   7.159   0.432   5.021
13686TIP3    H291527   7.281   0.398   4.944
13687TIP3   OH291528   7.113   0.780   4.435
13687TIP3    H191529   7.031   0.736   4.406
13687TIP3    H291530   7.161   0.711   4.486
13688TIP3   OH291531   6.055   1.373   3.694
13688TIP3    H191532   6.120   1.437   3.726
13688TIP3    H291533   6.105   1.328   3.625
13689TIP3   OH291534   7.222   1.700   4.591
13689TIP3    H191535   7.208   1.779   4.537
13689TIP3    H291536   7.313   1.713   4.625
13690TIP3   OH291537   5.965   0.131   4.479
13690TIP3    H191538   5.943   0.130   4.383
13690TIP3    H291539   5.932   0.042   4.505
13691TIP3   OH291540   5.864   1.511   4.097
13691TIP3    H191541   5.779   1.556   4.092
13691TIP3    H291542   5.912   1.557   4.026
13692TIP3   OH291543   7.123   1.598   3.547
13692TIP3    H191544   7.148   1.516   3.593
13692TIP3    H291545   7.200   1.616   3.491
13693TIP3   OH291546   7.047   1.096   4.942
13693TIP3    H191547   7.095   1.170   4.984
13693TIP3    H291548   6.962   1.136   4.970
13694TIP3   OH291549   6.334   0.991   3.770
13694TIP3    H191550   6.282   0.937   3.832
13694TIP3    H291551   6.362   0.923   3.704
13695TIP3   OH291552   6.256   0.768   4.994
13695TIP3    H191553   6.201   0.842   5.025
13695TIP3    H291554   6.298   0.807   4.915
13696TIP3   OH291555   6.439   0.809   3.589
13696TIP3    H191556   6.428   0.796   3.494
13696TIP3    H291557   6.536   0.821   3.599
13697TIP3   OH291558   6.291   0.508   5.104
13697TIP3    H191559   6.309   0.437   5.041
13697TIP3    H291560   6.294   0.589   5.049
13698TIP3   OH291561   6.338   0.343   4.859
13698TIP3    H191562   6.390   0.393   4.793
13698TIP3    H291563   6.250   0.335   4.816
13699TIP3   OH291564   6.493   0.891   4.881
13699TIP3    H191565   6.571   0.879   4.825
13699TIP3    H291566   6.458   0.977   4.853
13700TIP3   OH291567   6.415   0.095   4.899
13700TIP3    H191568   6.400   0.192   4.890
13700TIP3    H291569   6.337   0.060   4.856
13701TIP3   OH291570   6.423   1.879   3.687
13701TIP3    H191571   6.519   1.891   3.704
13701TIP3    H291572   6.404   1.950   3.627
13702TIP3   OH291573   5.782   1.344   3.643
13702TIP3    H191574   5.877   1.347   3.665
13702TIP3    H291575   5.778   1.279   3.572
13703TIP3   OH291576   5.656   1.878   4.141
13703TIP3    H191577   5.584   1.829   4.094
13703TIP3    H291578   5.684   1.812   4.207
13704TIP3   OH291579   5.738   1.691   4.328
13704TIP3    H191580   5.702   1.603   4.349
13704TIP3    H291581   5.761   1.724   4.416
13705TIP3   OH291582   7.484   1.778   4.618
13705TIP3    H191583   7.493   1.786   4.715
13705TIP3    H291584   7.565   1.825   4.594
13706TIP3   OH291585   7.453   1.730   4.910
13706TIP3    H191586   7.403   1.652   4.880
13706TIP3    H291587   7.503   1.686   4.982
13707TIP3   OH291588   7.427   1.133   3.925
13707TIP3    H191589   7.511   1.176   3.947
13707TIP3    H291590   7.424   1.064   3.995
13708TIP3   OH291591   7.461   0.942   4.112
13708TIP3    H191592   7.386   0.892   4.153
13708TIP3    H291593   7.521   0.957   4.189
13709TIP3   OH291594   7.434   1.211   4.607
13709TIP3    H191595   7.518   1.174   4.574
13709TIP3    H291596   7.451   1.307   4.597
13710TIP3   OH291597   7.290   1.505   4.836
13710TIP3    H191598   7.223   1.537   4.900
13710TIP3    H291599   7.235   1.459   4.770
13711TIP3   OH291600   7.489   0.925   3.752
13711TIP3    H191601   7.433   0.960   3.683
13711TIP3    H291602   7.484   0.996   3.819
13712TIP3   OH291603   7.243   0.790   4.170
13712TIP3    H191604   7.228   0.694   4.169
13712TIP3    H291605   7.210   0.813   4.259
13713TIP3   OH291606   5.744   0.998   4.576
13713TIP3    H191607   5.762   0.991   4.480
13713TIP3    H291608   5.833   0.981   4.613
13714TIP3   OH291609   7.335   0.984   5.138
13714TIP3    H191610   7.393   0.912   5.158
13714TIP3    H291611   7.388   1.066   5.135
13715TIP3   OH291612   7.251   0.389   3.517
13715TIP3    H191613   7.312   0.352   3.582
13715TIP3    H291614   7.166   0.350   3.537
13716TIP3   OH291615   7.210   0.548   4.017
13716TIP3    H191616   7.240   0.456   4.030
13716TIP3    H291617   7.289   0.588   3.979
13717TIP3   OH291618   7.274   0.601   4.560
13717TIP3    H191619   7.370   0.627   4.559
13717TIP3    H291620   7.254   0.618   4.654
13718TIP3   OH291621   7.280   0.678   4.840
13718TIP3    H191622   7.192   0.706   4.874
13718TIP3    H291623   7.323   0.763   4.817
13719TIP3   OH291624   7.275   0.275   4.021
13719TIP3    H191625   7.293   0.232   4.107
13719TIP3    H291626   7.213   0.212   3.978
13720TIP3   OH291627   5.822   0.358   4.477
13720TIP3    H191628   5.872   0.277   4.503
13720TIP3    H291629   5.878   0.427   4.515
13721TIP3   OH291630   5.654   0.658   4.582
13721TIP3    H191631   5.710   0.633   4.505
13721TIP3    H291632   5.701   0.738   4.609
13722TIP3   OH291633   7.462   0.282   3.682
13722TIP3    H191634   7.500   0.211   3.627
13722TIP3    H291635   7.531   0.349   3.677
13723TIP3   OH291636   5.692   0.278   3.986
13723TIP3    H191637   5.597   0.300   3.977
13723TIP3    H291638   5.732   0.332   3.915
13724TIP3   OH291639   7.163   1.776   4.183
13724TIP3    H191640   7.225   1.756   4.109
13724TIP3    H291641   7.206   1.843   4.239
13725TIP3   OH291642   5.687   0.156   4.822
13725TIP3    H191643   5.619   0.133   4.887
13725TIP3    H291644   5.641   0.218   4.763
13726TIP3   OH291645   6.198   1.566   4.859
13726TIP3    H191646   6.164   1.654   4.835
13726TIP3    H291647   6.292   1.578   4.834
13727TIP3   OH291648   6.632   1.710   5.159
13727TIP3    H191649   6.653   1.677   5.247
13727TIP3    H291650   6.720   1.738   5.128
13728TIP3   OH291651   6.858   1.845   5.079
13728TIP3    H191652   6.926   1.779   5.058
13728TIP3    H291653   6.897   1.877   5.162
13729TIP3   OH291654   7.357   0.103   4.991
13729TIP3    H191655   7.272   0.133   4.955
13729TIP3    H291656   7.374   0.020   4.949
13730TIP3   OH291657   5.941   1.895   4.863
13730TIP3    H191658   5.866   1.943   4.825
13730TIP3    H291659   5.908   1.876   4.952
13731TIP3   OH291660   6.188   1.853   4.769
13731TIP3    H191661   6.100   1.868   4.811
13731TIP3    H291662   6.181   1.910   4.690
13732TIP3   OH291663   6.659   1.843   4.685
13732TIP3    H191664   6.612   1.899   4.621
13732TIP3    H291665   6.672   1.905   4.760
13733TIP3   OH291666   6.891   1.727   4.778
13733TIP3    H191667   6.801   1.753   4.752
13733TIP3    H291668   6.934   1.813   4.778
13734TIP3   OH291669   7.149   1.881   4.812
13734TIP3    H191670   7.138   1.976   4.790
13734TIP3    H291671   7.167   1.844   4.725
13735TIP3   OH291672   5.887   1.758   4.557
13735TIP3    H191673   5.880   1.715   4.644
13735TIP3    H291674   5.968   1.720   4.518
13736TIP3   OH291675   6.095   1.629   4.421
13736TIP3    H191676   6.078   1.536   4.444
13736TIP3    H291677   6.180   1.645   4.467
13737TIP3   OH291678   6.354   1.678   4.509
13737TIP3    H191679   6.371   1.586   4.483
13737TIP3    H291680   6.360   1.672   4.606
13738TIP3   OH291681   6.699   0.246   4.424
13738TIP3    H191682   6.635   0.177   4.451
13738TIP3    H291683   6.758   0.194   4.368
13739TIP3   OH291684   7.198   0.048   4.387
13739TIP3    H191685   7.269   0.114   4.370
13739TIP3    H291686   7.116   0.097   4.403
13740TIP3   OH291687   7.388   0.176   4.259
13740TIP3    H191688   7.447   0.113   4.215
13740TIP3    H291689   7.436   0.262   4.264
13741TIP3   OH291690   5.926   0.149   4.219
13741TIP3    H191691   5.859   0.110   4.161
13741TIP3    H291692   5.981   0.068   4.225
13742TIP3   OH291693   5.812   0.095   3.778
13742TIP3    H191694   5.863   0.156   3.723
13742TIP3    H291695   5.752   0.149   3.832
13743TIP3   OH291696   6.388   0.101   4.187
13743TIP3    H191697   6.478   0.135   4.182
13743TIP3    H291698   6.385   0.076   4.279
13744TIP3   OH291699   6.942   0.101   4.349
13744TIP3    H191700   6.955   0.108   4.254
13744TIP3    H291701   6.922   0.006   4.360
13745TIP3   OH291702   7.076   0.110   3.897
13745TIP3    H191703   7.000   0.169   3.898
13745TIP3    H291704   7.045   0.027   3.937
13746TIP3   OH291705   5.807   1.677   3.881
13746TIP3    H191706   5.739   1.677   3.811
13746TIP3    H291707   5.809   1.773   3.898
13747TIP3   OH291708   5.997   0.266   3.635
13747TIP3    H191709   6.052   0.214   3.578
13747TIP3    H291710   6.065   0.309   3.691
13748TIP3   OH291711   6.497   0.299   3.874
13748TIP3    H191712   6.528   0.243   3.947
13748TIP3    H291713   6.505   0.386   3.920
13749TIP3   OH291714   6.690   1.809   3.712
13749TIP3    H191715   6.784   1.830   3.698
13749TIP3    H291716   6.674   1.754   3.635
13750TIP3   OH291717   7.360   1.757   3.992
13750TIP3    H191718   7.344   1.681   3.930
13750TIP3    H291719   7.356   1.830   3.926
13751TIP3   OH291720   5.921   0.109   5.129
13751TIP3    H191721   5.879   0.065   5.203
13751TIP3    H291722   6.000   0.141   5.171
13752TIP3   OH291723   5.990   1.774   3.576
13752TIP3    H191724   5.960   1.802   3.663
13752TIP3    H291725   6.066   1.719   3.596
13753TIP3   OH291726   7.943   1.354   4.554
13753TIP3    H191727   7.915   1.269   4.517
13753TIP3    H291728   8.040   1.340   4.557
13754TIP3   OH291729   7.611   0.711   4.094
13754TIP3    H191730   7.569   0.800   4.093
13754TIP3    H291731   7.550   0.661   4.038
13755TIP3   OH291732   7.683   0.939   4.311
13755TIP3    H191733   7.707   0.857   4.359
13755TIP3    H291734   7.756   0.946   4.247
13756TIP3   OH291735   8.029   0.457   4.360
13756TIP3    H191736   8.084   0.531   4.319
13756TIP3    H291737   8.061   0.390   4.299
13757TIP3   OH291738   7.747   0.684   4.417
13757TIP3    H191739   7.817   0.632   4.464
13757TIP3    H291740   7.756   0.652   4.326
13758TIP3   OH291741   7.969   0.327   4.744
13758TIP3    H191742   7.942   0.389   4.674
13758TIP3    H291743   7.905   0.351   4.815
13759TIP3   OH291744   7.921   0.525   4.572
13759TIP3    H191745   7.992   0.591   4.587
13759TIP3    H291746   7.971   0.482   4.497
13760TIP3   OH291747   8.051   1.305   4.844
13760TIP3    H191748   8.057   1.400   4.825
13760TIP3    H291749   7.970   1.301   4.899
13761TIP3   OH291750   7.679   1.257   3.931
13761TIP3    H191751   7.653   1.291   3.843
13761TIP3    H291752   7.685   1.340   3.983
13762TIP3   OH291753   8.084   1.033   4.229
13762TIP3    H191754   8.070   0.996   4.139
13762TIP3    H291755   8.157   0.977   4.263
13763TIP3   OH291756   7.923   0.964   4.986
13763TIP3    H191757   7.929   1.032   5.053
13763TIP3    H291758   7.831   0.973   4.955
13764TIP3   OH291759   8.048   1.557   5.139
13764TIP3    H191760   8.055   1.538   5.043
13764TIP3    H291761   7.956   1.539   5.162
13765TIP3   OH291762   8.002   0.931   3.992
13765TIP3    H191763   7.975   1.010   3.940
13765TIP3    H291764   7.932   0.870   3.968
13766TIP3   OH291765   7.615   1.175   4.873
13766TIP3    H191766   7.566   1.168   4.789
13766TIP3    H291767   7.614   1.082   4.900
13767TIP3   OH291768   7.588   1.453   4.555
13767TIP3    H191769   7.683   1.437   4.558
13767TIP3    H291770   7.580   1.530   4.612
13768TIP3   OH291771   7.910   1.736   4.174
13768TIP3    H191772   7.928   1.693   4.260
13768TIP3    H291773   7.828   1.691   4.150
13769TIP3   OH291774   7.831   1.309   4.981
13769TIP3    H191775   7.855   1.269   5.064
13769TIP3    H291776   7.748   1.265   4.950
13770TIP3   OH291777   8.102   0.154   4.560
13770TIP3    H191778   8.009   0.147   4.534
13770TIP3    H291779   8.099   0.236   4.614
13771TIP3   OH291780   8.112   0.666   4.762
13771TIP3    H191781   8.018   0.644   4.775
13771TIP3    H291782   8.100   0.719   4.681
13772TIP3   OH291783   8.083   0.651   4.208
13772TIP3    H191784   7.995   0.638   4.169
13772TIP3    H291785   8.145   0.629   4.137
13773TIP3   OH291786   7.875   0.683   4.870
13773TIP3    H191787   7.882   0.719   4.959
13773TIP3    H291788   7.837   0.594   4.883
13774TIP3   OH291789   7.545   0.392   4.260
13774TIP3    H191790   7.608   0.386   4.333
13774TIP3    H291791   7.586   0.351   4.181
13775TIP3   OH291792   7.677   0.465   3.807
13775TIP3    H191793   7.715   0.518   3.735
13775TIP3    H291794   7.602   0.523   3.830
13776TIP3   OH291795   7.836   0.563   4.174
13776TIP3    H191796   7.756   0.593   4.126
13776TIP3    H291797   7.878   0.498   4.116
13777TIP3   OH291798   8.087   0.687   3.691
13777TIP3    H191799   8.026   0.663   3.619
13777TIP3    H291800   8.164   0.719   3.642
13778TIP3   OH291801   7.977   0.305   4.096
13778TIP3    H191802   7.964   0.208   4.104
13778TIP3    H291803   8.075   0.307   4.084
13779TIP3   OH291804   7.929   1.085   4.460
13779TIP3    H191805   8.001   1.080   4.394
13779TIP3    H291806   7.939   1.001   4.508
13780TIP3   OH291807   7.625   0.931   4.989
13780TIP3    H191808   7.652   0.886   5.070
13780TIP3    H291809   7.565   0.868   4.944
13781TIP3   OH291810   7.741   0.923   3.650
13781TIP3    H191811   7.803   0.982   3.696
13781TIP3    H291812   7.654   0.947   3.686
13782TIP3   OH291813   7.795   0.401   4.944
13782TIP3    H191814   7.704   0.435   4.939
13782TIP3    H291815   7.783   0.314   4.985
13783TIP3   OH291816   7.758   1.582   4.785
13783TIP3    H191817   7.784   1.488   4.787
13783TIP3    H291818   7.782   1.612   4.874
13784TIP3   OH291819   7.880   1.113   3.803
13784TIP3    H191820   7.814   1.153   3.864
13784TIP3    H291821   7.933   1.191   3.782
13785TIP3   OH291822  -0.050   0.321   3.775
13785TIP3    H191823  -0.045   0.412   3.808
13785TIP3    H291824   0.044   0.299   3.789
13786TIP3   OH291825   7.943   1.368   3.696
13786TIP3    H191826   8.003   1.438   3.725
13786TIP3    H291827   7.994   1.329   3.624
13787TIP3   OH291828   7.848   0.136   4.475
13787TIP3    H191829   7.829   0.121   4.381
13787TIP3    H291830   7.824   0.046   4.509
13788TIP3   OH291831   7.749   1.513   4.097
13788TIP3    H191832   7.664   1.558   4.087
13788TIP3    H291833   7.801   1.556   4.028
13789TIP3   OH291834   7.669   1.341   3.644
13789TIP3    H191835   7.764   1.348   3.666
13789TIP3    H291836   7.669   1.280   3.569
13790TIP3   OH291837   7.535   1.879   4.145
13790TIP3    H191838   7.473   1.829   4.089
13790TIP3    H291839   7.576   1.812   4.203
13791TIP3   OH291840   7.613   1.692   4.329
13791TIP3    H191841   7.597   1.599   4.350
13791TIP3    H291842   7.652   1.724   4.414
13792TIP3   OH291843   7.628   0.996   4.576
13792TIP3    H191844   7.649   0.990   4.480
13792TIP3    H291845   7.717   0.980   4.613
13793TIP3   OH291846   7.714   0.360   4.468
13793TIP3    H191847   7.757   0.278   4.505
13793TIP3    H291848   7.761   0.428   4.521
13794TIP3   OH291849   7.540   0.657   4.581
13794TIP3    H191850   7.598   0.635   4.505
13794TIP3    H291851   7.586   0.738   4.609
13795TIP3   OH291852   7.581   0.282   3.990
13795TIP3    H191853   7.485   0.299   3.976
13795TIP3    H291854   7.618   0.331   3.914
13796TIP3   OH291855   7.573   0.154   4.821
13796TIP3    H191856   7.506   0.133   4.886
13796TIP3    H291857   7.527   0.218   4.763
13797TIP3   OH291858   8.089   1.568   4.863
13797TIP3    H191859   8.051   1.654   4.837
13797TIP3    H291860   8.182   1.582   4.833
13798TIP3   OH291861   7.828   1.895   4.863
13798TIP3    H191862   7.752   1.941   4.824
13798TIP3    H291863   7.794   1.876   4.952
13799TIP3   OH291864   8.057   1.828   4.752
13799TIP3    H191865   7.983   1.861   4.809
13799TIP3    H291866   8.070   1.906   4.694
13800TIP3   OH291867   7.765   1.756   4.556
13800TIP3    H191868   7.767   1.716   4.646
13800TIP3    H291869   7.851   1.724   4.520
13801TIP3   OH291870   7.980   1.631   4.424
13801TIP3    H191871   7.962   1.537   4.445
13801TIP3    H291872   8.064   1.643   4.470
13802TIP3   OH291873   7.807   0.150   4.218
13802TIP3    H191874   7.742   0.106   4.161
13802TIP3    H291875   7.865   0.067   4.227
13803TIP3   OH291876   7.702   0.095   3.783
13803TIP3    H191877   7.746   0.156   3.721
13803TIP3    H291878   7.638   0.148   3.831
13804TIP3   OH291879   7.689   1.677   3.883
13804TIP3    H191880   7.625   1.677   3.809
13804TIP3    H291881   7.695   1.772   3.896
13805TIP3   OH291882   7.882   0.265   3.634
13805TIP3    H191883   7.939   0.214   3.576
13805TIP3    H291884   7.951   0.307   3.690
13806TIP3   OH291885   7.804   0.115   5.129
13806TIP3    H191886   7.769   0.063   5.201
13806TIP3    H291887   7.887   0.141   5.168
13807TIP3   OH291888   7.873   1.774   3.576
13807TIP3    H191889   7.846   1.804   3.664
13807TIP3    H291890   7.952   1.721   3.592
13808TIP3   OH291891   1.190   2.906   4.195
13808TIP3    H191892   1.189   3.004   4.190
13808TIP3    H291893   1.118   2.882   4.135
13809TIP3   OH291894   1.071   2.832   4.545
13809TIP3    H191895   1.074   2.766   4.615
13809TIP3    H291896   1.040   2.781   4.468
13810TIP3   OH291897   0.313   2.795   4.694
13810TIP3    H191898   0.317   2.729   4.766
13810TIP3    H291899   0.382   2.855   4.722
13811TIP3   OH291900   1.446   3.125   4.373
13811TIP3    H191901   1.402   3.055   4.421
13811TIP3    H291902   1.446   3.196   4.439
13812TIP3   OH291903   0.403   3.237   4.557
13812TIP3    H191904   0.367   3.157   4.514
13812TIP3    H291905   0.496   3.232   4.535
13813TIP3   OH291906   0.096   2.622   4.044
13813TIP3    H191907   0.049   2.696   4.088
13813TIP3    H291908   0.018   2.578   4.018
13814TIP3   OH291909   0.152   2.814   4.315
13814TIP3    H191910   0.173   2.732   4.363
13814TIP3    H291911   0.220   2.827   4.248
13815TIP3   OH291912   1.156   3.641   4.396
13815TIP3    H191913   1.221   3.572   4.367
13815TIP3    H291914   1.135   3.608   4.483
13816TIP3   OH291915   0.909   3.070   4.593
13816TIP3    H191916   0.947   3.009   4.526
13816TIP3    H291917   0.993   3.086   4.642
13817TIP3   OH291918   1.773   2.236   4.665
13817TIP3    H191919   1.790   2.295   4.741
13817TIP3    H291920   1.829   2.278   4.598
13818TIP3   OH291921   1.227   2.516   4.623
13818TIP3    H191922   1.246   2.421   4.622
13818TIP3    H291923   1.219   2.532   4.527
13819TIP3   OH291924   0.538   2.327   4.343
13819TIP3    H191925   0.554   2.410   4.295
13819TIP3    H291926   0.503   2.268   4.274
13820TIP3   OH291927   1.315   2.337   4.184
13820TIP3    H191928   1.382   2.304   4.249
13820TIP3    H291929   1.370   2.391   4.125
13821TIP3   OH291930   0.222   2.568   4.410
13821TIP3    H191931   0.279   2.507   4.461
13821TIP3    H291932   0.220   2.530   4.322
13822TIP3   OH291933   0.718   2.724   4.351
13822TIP3    H191934   0.786   2.664   4.387
13822TIP3    H291935   0.667   2.658   4.298
13823TIP3   OH291936   1.821   2.384   4.889
13823TIP3    H191937   1.752   2.453   4.878
13823TIP3    H291938   1.818   2.366   4.984
13824TIP3   OH291939   0.432   2.220   4.746
13824TIP3    H191940   0.400   2.274   4.672
13824TIP3    H291941   0.363   2.238   4.814
13825TIP3   OH291942   1.161   3.165   4.103
13825TIP3    H191943   1.132   3.136   4.015
13825TIP3    H291944   1.130   3.258   4.107
13826TIP3   OH291945   0.689   2.975   4.776
13826TIP3    H191946   0.620   3.029   4.820
13826TIP3    H291947   0.763   3.034   4.752
13827TIP3   OH291948   1.495   2.269   4.380
13827TIP3    H191949   1.474   2.192   4.434
13827TIP3    H291950   1.563   2.313   4.434
13828TIP3   OH291951   0.385   2.404   4.550
13828TIP3    H191952   0.449   2.471   4.583
13828TIP3    H291953   0.440   2.360   4.480
13829TIP3   OH291954   0.523   3.183   4.859
13829TIP3    H191955   0.519   3.279   4.835
13829TIP3    H291956   0.433   3.175   4.902
13830TIP3   OH291957   0.134   3.144   3.933
13830TIP3    H191958   0.112   3.171   3.843
13830TIP3    H291959   0.141   3.228   3.982
13831TIP3   OH291960   1.497   3.309   4.607
13831TIP3    H191961   1.400   3.320   4.621
13831TIP3    H291962   1.524   3.401   4.590
13832TIP3   OH291963   1.529   2.140   4.752
13832TIP3    H191964   1.455   2.201   4.738
13832TIP3    H291965   1.599   2.180   4.697
13833TIP3   OH291966   0.827   1.950   4.492
13833TIP3    H191967   0.812   1.853   4.488
13833TIP3    H291968   0.739   1.979   4.525
13834TIP3   OH291969   1.322   3.487   4.268
13834TIP3    H191970   1.366   3.416   4.217
13834TIP3    H291971   1.365   3.566   4.229
13835TIP3   OH291972   1.444   3.280   4.119
13835TIP3    H191973   1.414   3.211   4.058
13835TIP3    H291974   1.447   3.231   4.203
13836TIP3   OH291975   1.610   3.139   4.968
13836TIP3    H191976   1.619   3.076   4.894
13836TIP3    H291977   1.628   3.225   4.926
13837TIP3   OH291978   1.056   2.834   3.947
13837TIP3    H191979   0.984   2.884   3.904
13837TIP3    H291980   1.125   2.836   3.877
13838TIP3   OH291981   1.059   2.725   3.649
13838TIP3    H191982   1.121   2.688   3.714
13838TIP3    H291983   1.075   2.641   3.597
13839TIP3   OH291984   1.795   2.767   4.773
13839TIP3    H191985   1.729   2.840   4.782
13839TIP3    H291986   1.841   2.797   4.693
13840TIP3   OH291987   1.400   2.848   4.037
13840TIP3    H191988   1.326   2.874   4.098
13840TIP3    H291989   1.448   2.783   4.092
13841TIP3   OH291990   1.390   2.666   4.948
13841TIP3    H191991   1.393   2.746   5.001
13841TIP3    H291992   1.328   2.697   4.878
13842TIP3   OH291993   0.561   2.917   4.230
13842TIP3    H191994   0.527   2.878   4.146
13842TIP3    H291995   0.622   2.846   4.261
13843TIP3   OH291996   0.690   3.245   4.503
13843TIP3    H191997   0.695   3.207   4.413
13843TIP3    H291998   0.780   3.224   4.536
13844TIP3   OH291999   0.592   2.796   4.594
13844TIP3    H192000   0.650   2.797   4.514
13844TIP3    H292001   0.636   2.853   4.658
13845TIP3   OH292002   1.234   3.347   4.666
13845TIP3    H192003   1.206   3.412   4.731
13845TIP3    H292004   1.210   3.262   4.709
13846TIP3   OH292005   0.688   3.232   5.068
13846TIP3    H192006   0.653   3.311   5.114
13846TIP3    H292007   0.621   3.215   5.000
13847TIP3   OH292008   1.287   2.771   3.805
13847TIP3    H192009   1.343   2.787   3.886
13847TIP3    H292010   1.326   2.823   3.735
13848TIP3   OH292011   0.384   2.856   4.980
13848TIP3    H192012   0.386   2.916   5.055
13848TIP3    H292013   0.289   2.859   4.957
13849TIP3   OH292014   1.059   3.442   4.151
13849TIP3    H192015   1.102   3.473   4.231
13849TIP3    H292016   1.003   3.517   4.127
13850TIP3   OH292017   0.511   3.432   5.137
13850TIP3    H192018   0.508   3.429   5.040
13850TIP3    H292019   0.417   3.428   5.161
13851TIP3   OH292020   1.658   1.942   3.793
13851TIP3    H192021   1.563   1.955   3.818
13851TIP3    H292022   1.681   2.027   3.753
13852TIP3   OH292023   0.458   2.818   3.991
13852TIP3    H192024   0.431   2.896   3.939
13852TIP3    H292025   0.391   2.753   3.968
13853TIP3   OH292026   1.770   3.377   3.634
13853TIP3    H192027   1.783   3.473   3.642
13853TIP3    H292028   1.863   3.348   3.623
13854TIP3   OH292029   0.110   3.036   4.860
13854TIP3    H192030   0.031   3.058   4.805
13854TIP3    H292031   0.073   2.958   4.904
13855TIP3   OH292032   0.049   3.340   4.552
13855TIP3    H192033   0.143   3.318   4.558
13855TIP3    H292034   0.036   3.414   4.614
13856TIP3   OH292035   1.875   3.401   5.072
13856TIP3    H192036   1.868   3.312   5.108
13856TIP3    H292037   1.807   3.440   5.131
13857TIP3   OH292038   0.961   3.358   5.010
13857TIP3    H192039   0.970   3.441   5.062
13857TIP3    H292040   0.875   3.324   5.039
13858TIP3   OH292041   1.006   3.733   3.991
13858TIP3    H192042   0.997   3.726   3.895
13858TIP3    H292043   1.009   3.829   4.009
13859TIP3   OH292044   0.371   3.620   4.173
13859TIP3    H192045   0.384   3.580   4.262
13859TIP3    H292046   0.285   3.580   4.150
13860TIP3   OH292047   1.308   3.654   3.690
13860TIP3    H192048   1.356   3.579   3.647
13860TIP3    H292049   1.317   3.629   3.784
13861TIP3   OH292050   1.281   3.648   3.968
13861TIP3    H192051   1.185   3.654   3.988
13861TIP3    H292052   1.307   3.575   4.026
13862TIP3   OH292053   0.293   3.193   4.978
13862TIP3    H192054   0.308   3.156   5.065
13862TIP3    H292055   0.207   3.153   4.948
13863TIP3   OH292056   0.566   2.047   4.559
13863TIP3    H192057   0.473   2.029   4.532
13863TIP3    H292058   0.551   2.121   4.620
13864TIP3   OH292059   1.027   2.009   4.908
13864TIP3    H192060   1.065   1.966   4.985
13864TIP3    H292061   0.929   1.994   4.921
13865TIP3   OH292062   1.342   2.389   4.988
13865TIP3    H192063   1.310   2.373   5.079
13865TIP3    H292064   1.344   2.486   4.976
13866TIP3   OH292065   0.934   2.230   3.632
13866TIP3    H192066   0.963   2.252   3.724
13866TIP3    H292067   0.970   2.146   3.614
13867TIP3   OH292068   0.570   2.537   4.692
13867TIP3    H192069   0.500   2.536   4.759
13867TIP3    H292070   0.567   2.628   4.657
13868TIP3   OH292071   0.570   2.551   4.183
13868TIP3    H192072   0.476   2.525   4.169
13868TIP3    H292073   0.609   2.521   4.098
13869TIP3   OH292074   1.123   2.600   4.059
13869TIP3    H192075   1.082   2.682   4.023
13869TIP3    H292076   1.188   2.580   3.989
13870TIP3   OH292077   1.225   2.547   4.342
13870TIP3    H192078   1.197   2.604   4.268
13870TIP3    H292079   1.235   2.463   4.294
13871TIP3   OH292080   0.334   2.566   4.865
13871TIP3    H192081   0.343   2.602   4.955
13871TIP3    H292082   0.293   2.480   4.884
13872TIP3   OH292083   0.083   2.283   4.211
13872TIP3    H192084   0.073   2.267   4.309
13872TIP3    H292085   0.071   2.191   4.177
13873TIP3   OH292086   0.144   2.373   3.813
13873TIP3    H192087   0.187   2.408   3.732
13873TIP3    H292088   0.062   2.423   3.805
13874TIP3   OH292089   1.148   2.707   4.803
13874TIP3    H192090   1.182   2.641   4.740
13874TIP3    H292091   1.098   2.651   4.866
13875TIP3   OH292092   0.825   2.304   4.282
13875TIP3    H192093   0.732   2.305   4.311
13875TIP3    H292094   0.874   2.288   4.364
13876TIP3   OH292095   0.311   2.461   4.164
13876TIP3    H192096   0.223   2.478   4.131
13876TIP3    H292097   0.337   2.372   4.130
13877TIP3   OH292098   0.667   2.469   3.934
13877TIP3    H192099   0.764   2.475   3.948
13877TIP3    H292100   0.647   2.531   3.862
13878TIP3   OH292101   1.266   2.227   4.607
13878TIP3    H192102   1.197   2.234   4.676
13878TIP3    H292103   1.216   2.203   4.528
13879TIP3   OH292104   0.543   2.581   3.691
13879TIP3    H192105   0.487   2.548   3.619
13879TIP3    H292106   0.624   2.604   3.644
13880TIP3   OH292107   0.953   2.579   4.471
13880TIP3    H192108   1.013   2.526   4.417
13880TIP3    H292109   0.939   2.525   4.549
13881TIP3   OH292110   0.448   2.196   4.111
13881TIP3    H192111   0.424   2.102   4.114
13881TIP3    H292112   0.533   2.189   4.062
13882TIP3   OH292113   0.819   2.413   4.710
13882TIP3    H192114   0.735   2.463   4.719
13882TIP3    H292115   0.873   2.447   4.785
13883TIP3   OH292116   0.877   3.033   3.885
13883TIP3    H192117   0.797   2.988   3.850
13883TIP3    H292118   0.854   3.045   3.979
13884TIP3   OH292119   1.597   2.950   4.762
13884TIP3    H192120   1.651   3.004   4.701
13884TIP3    H292121   1.510   2.959   4.718
13885TIP3   OH292122   1.305   2.285   3.726
13885TIP3    H192123   1.211   2.288   3.696
13885TIP3    H292124   1.303   2.383   3.728
13886TIP3   OH292125   1.021   3.063   4.999
13886TIP3    H192126   0.993   3.019   5.080
13886TIP3    H292127   1.003   3.156   5.016
13887TIP3   OH292128   1.335   2.511   3.874
13887TIP3    H192129   1.427   2.495   3.901
13887TIP3    H292130   1.338   2.584   3.811
13888TIP3   OH292131   0.396   2.978   4.469
13888TIP3    H192132   0.452   2.964   4.390
13888TIP3    H292133   0.391   2.887   4.505
13889TIP3   OH292134   1.087   3.181   3.790
13889TIP3    H192135   1.049   3.266   3.821
13889TIP3    H292136   1.012   3.119   3.805
13890TIP3   OH292137   0.085   2.811   4.987
13890TIP3    H192138   0.107   2.770   5.072
13890TIP3    H292139   0.023   2.750   4.946
13891TIP3   OH292140   1.252   3.304   5.001
13891TIP3    H192141   1.161   3.325   4.976
13891TIP3    H292142   1.254   3.327   5.094
13892TIP3   OH292143   1.821   2.523   3.842
13892TIP3    H192144   1.771   2.489   3.767
13892TIP3    H292145   1.833   2.616   3.813
13893TIP3   OH292146   1.818   3.097   5.118
13893TIP3    H192147   1.733   3.132   5.081
13893TIP3    H292148   1.875   3.107   5.039
13894TIP3   OH292149   1.653   3.405   3.880
13894TIP3    H192150   1.616   3.323   3.914
13894TIP3    H292151   1.682   3.385   3.789
13895TIP3   OH292152   1.371   2.886   4.591
13895TIP3    H192153   1.277   2.865   4.579
13895TIP3    H292154   1.415   2.811   4.547
13896TIP3   OH292155   0.623   3.321   4.206
13896TIP3    H192156   0.675   3.399   4.179
13896TIP3    H292157   0.537   3.343   4.166
13897TIP3   OH292158   0.192   2.799   3.664
13897TIP3    H192159   0.259   2.863   3.693
13897TIP3    H292160   0.109   2.842   3.686
13898TIP3   OH292161   0.766   3.086   4.157
13898TIP3    H192162   0.735   3.178   4.160
13898TIP3    H292163   0.692   3.037   4.195
13899TIP3   OH292164   0.810   3.502   4.790
13899TIP3    H192165   0.855   3.585   4.766
13899TIP3    H292166   0.873   3.472   4.859
13900TIP3   OH292167   0.634   3.586   4.105
13900TIP3    H192168   0.538   3.600   4.119
13900TIP3    H292169   0.670   3.669   4.141
13901TIP3   OH292170   1.161   3.104   4.751
13901TIP3    H192171   1.133   3.087   4.843
13901TIP3    H292172   1.229   3.035   4.739
13902TIP3   OH292173   1.392   3.209   3.668
13902TIP3    H192174   1.421   3.163   3.749
13902TIP3    H292175   1.297   3.194   3.674
13903TIP3   OH292176   1.437   3.563   5.008
13903TIP3    H192177   1.376   3.512   4.953
13903TIP3    H292178   1.466   3.632   4.944
13904TIP3   OH292179   1.844   3.650   3.690
13904TIP3    H192180   1.914   3.714   3.665
13904TIP3    H292181   1.772   3.710   3.719
13905TIP3   OH292182   0.252   2.291   4.942
13905TIP3    H192183   0.161   2.324   4.940
13905TIP3    H292184   0.242   2.205   4.986
13906TIP3   OH292185   1.476   3.074   3.888
13906TIP3    H192186   1.451   2.996   3.942
13906TIP3    H292187   1.571   3.081   3.910
13907TIP3   OH292188   0.212   3.466   4.787
13907TIP3    H192189   0.239   3.373   4.788
13907TIP3    H292190   0.242   3.499   4.874
13908TIP3   OH292191   0.684   3.274   3.756
13908TIP3    H192192   0.714   3.219   3.830
13908TIP3    H292193   0.697   3.365   3.790
13909TIP3   OH292194   0.336   3.000   3.802
13909TIP3    H192195   0.269   3.037   3.865
13909TIP3    H292196   0.394   3.075   3.782
13910TIP3   OH292197   1.122   2.265   4.837
13910TIP3    H192198   1.196   2.269   4.899
13910TIP3    H292199   1.085   2.176   4.853
13911TIP3   OH292200   1.194   2.223   3.955
13911TIP3    H192201   1.221   2.268   3.872
13911TIP3    H292202   1.257   2.266   4.014
13912TIP3   OH292203   0.968   3.440   3.830
13912TIP3    H192204   0.886   3.491   3.835
13912TIP3    H292205   1.021   3.490   3.767
13913TIP3   OH292206   0.919   2.397   4.030
13913TIP3    H192207   1.000   2.453   4.030
13913TIP3    H292208   0.896   2.385   4.124
13914TIP3   OH292209   0.986   2.506   4.941
13914TIP3    H192210   0.983   2.554   5.024
13914TIP3    H292211   1.038   2.426   4.957
13915TIP3   OH292212   1.007   2.105   4.116
13915TIP3    H192213   0.976   2.168   4.184
13915TIP3    H292214   1.076   2.161   4.073
13916TIP3   OH292215   0.703   3.542   3.831
13916TIP3    H192216   0.722   3.625   3.781
13916TIP3    H292217   0.681   3.577   3.920
13917TIP3   OH292218   0.575   2.212   3.795
13917TIP3    H192219   0.571   2.304   3.825
13917TIP3    H292220   0.668   2.191   3.816
13918TIP3   OH292221   1.594   2.293   5.036
13918TIP3    H192222   1.501   2.317   5.021
13918TIP3    H292223   1.625   2.283   4.945
13919TIP3   OH292224   1.453   2.667   4.439
13919TIP3    H192225   1.374   2.621   4.406
13919TIP3    H292226   1.504   2.597   4.486
13920TIP3   OH292227   0.398   3.260   3.693
13920TIP3    H192228   0.463   3.323   3.726
13920TIP3    H292229   0.449   3.214   3.626
13921TIP3   OH292230   1.562   3.592   4.600
13921TIP3    H192231   1.554   3.661   4.531
13921TIP3    H292232   1.658   3.598   4.620
13922TIP3   OH292233   0.314   2.004   4.480
13922TIP3    H192234   0.291   2.003   4.385
13922TIP3    H292235   0.269   1.922   4.508
13923TIP3   OH292236   0.209   3.395   4.098
13923TIP3    H192237   0.123   3.439   4.093
13923TIP3    H292238   0.255   3.444   4.028
13924TIP3   OH292239   1.467   3.484   3.548
13924TIP3    H192240   1.492   3.401   3.593
13924TIP3    H292241   1.543   3.502   3.492
13925TIP3   OH292242   1.361   3.025   4.985
13925TIP3    H192243   1.440   3.083   4.993
13925TIP3    H292244   1.292   3.088   5.010
13926TIP3   OH292245   0.678   2.876   3.770
13926TIP3    H192246   0.625   2.823   3.832
13926TIP3    H292247   0.707   2.808   3.705
13927TIP3   OH292248   0.599   2.655   4.994
13927TIP3    H192249   0.543   2.727   5.025
13927TIP3    H292250   0.641   2.693   4.915
13928TIP3   OH292251   0.780   2.698   3.589
13928TIP3    H192252   0.773   2.679   3.495
13928TIP3    H292253   0.879   2.707   3.599
13929TIP3   OH292254   0.634   2.394   5.103
13929TIP3    H192255   0.651   2.323   5.039
13929TIP3    H292256   0.636   2.476   5.050
13930TIP3   OH292257   0.681   2.230   4.860
13930TIP3    H192258   0.733   2.278   4.791
13930TIP3    H292259   0.593   2.221   4.816
13931TIP3   OH292260   0.837   2.776   4.882
13931TIP3    H192261   0.915   2.762   4.825
13931TIP3    H292262   0.803   2.862   4.853
13932TIP3   OH292263   0.765   1.980   4.900
13932TIP3    H192264   0.741   2.074   4.889
13932TIP3    H292265   0.688   1.940   4.855
13933TIP3   OH292266   0.766   3.766   3.691
13933TIP3    H192267   0.863   3.777   3.704
13933TIP3    H292268   0.747   3.834   3.625
13934TIP3   OH292269   0.126   3.223   3.642
13934TIP3    H192270   0.220   3.236   3.665
13934TIP3    H292271   0.133   3.163   3.567
13935TIP3   OH292272   8.143   3.768   4.135
13935TIP3    H192273   8.067   3.721   4.099
13935TIP3    H292274   8.169   3.706   4.207
13936TIP3   OH292275   0.084   3.579   4.324
13936TIP3    H192276   0.048   3.490   4.342
13936TIP3    H292277   0.108   3.612   4.413
13937TIP3   OH292278   1.835   3.656   4.622
13937TIP3    H192279   1.837   3.672   4.718
13937TIP3    H292280   1.906   3.714   4.592
13938TIP3   OH292281   1.796   3.615   4.910
13938TIP3    H192282   1.746   3.537   4.878
13938TIP3    H292283   1.846   3.571   4.982
13939TIP3   OH292284   1.768   3.022   3.926
13939TIP3    H192285   1.855   3.059   3.947
13939TIP3    H292286   1.767   2.950   3.993
13940TIP3   OH292287   1.798   2.832   4.112
13940TIP3    H192288   1.729   2.776   4.153
13940TIP3    H292289   1.867   2.841   4.180
13941TIP3   OH292290   1.777   3.097   4.608
13941TIP3    H192291   1.862   3.063   4.577
13941TIP3    H292292   1.792   3.193   4.596
13942TIP3   OH292293   1.632   3.388   4.840
13942TIP3    H192294   1.565   3.423   4.900
13942TIP3    H292295   1.579   3.347   4.769
13943TIP3   OH292296   1.830   2.809   3.753
13943TIP3    H192297   1.777   2.848   3.683
13943TIP3    H292298   1.831   2.879   3.821
13944TIP3   OH292299   1.589   2.675   4.174
13944TIP3    H192300   1.570   2.580   4.168
13944TIP3    H292301   1.550   2.698   4.260
13945TIP3   OH292302   0.084   2.882   4.574
13945TIP3    H192303   0.104   2.876   4.479
13945TIP3    H292304   0.171   2.868   4.615
13946TIP3   OH292305   1.677   2.869   5.139
13946TIP3    H192306   1.736   2.797   5.158
13946TIP3    H292307   1.733   2.950   5.133
13947TIP3   OH292308   1.597   2.272   3.514
13947TIP3    H192309   1.653   2.236   3.584
13947TIP3    H292310   1.507   2.245   3.538
13948TIP3   OH292311   1.557   2.435   4.021
13948TIP3    H192312   1.585   2.341   4.030
13948TIP3    H292313   1.635   2.474   3.980
13949TIP3   OH292314   1.618   2.490   4.559
13949TIP3    H192315   1.714   2.511   4.560
13949TIP3    H292316   1.597   2.502   4.654
13950TIP3   OH292317   1.624   2.563   4.839
13950TIP3    H192318   1.536   2.591   4.874
13950TIP3    H292319   1.665   2.649   4.818
13951TIP3   OH292320   1.620   2.162   4.021
13951TIP3    H192321   1.641   2.119   4.107
13951TIP3    H292322   1.559   2.098   3.977
13952TIP3   OH292323   0.166   2.244   4.473
13952TIP3    H192324   0.212   2.162   4.504
13952TIP3    H292325   0.220   2.311   4.518
13953TIP3   OH292326  -0.006   2.568   4.517
13953TIP3    H192327   0.068   2.512   4.489
13953TIP3    H292328   0.047   2.616   4.583
13954TIP3   OH292329   1.803   2.167   3.681
13954TIP3    H192330   1.844   2.097   3.628
13954TIP3    H292331   1.873   2.234   3.679
13955TIP3   OH292332   0.051   2.163   3.990
13955TIP3    H192333  -0.044   2.166   3.963
13955TIP3    H292334   0.094   2.205   3.915
13956TIP3   OH292335   1.506   3.663   4.185
13956TIP3    H192336   1.575   3.634   4.122
13956TIP3    H292337   1.558   3.714   4.248
13957TIP3   OH292338   8.180   2.055   4.830
13957TIP3    H192339   8.113   2.014   4.885
13957TIP3    H292340   8.124   2.105   4.769
13958TIP3   OH292341   0.541   3.451   4.855
13958TIP3    H192342   0.506   3.540   4.836
13958TIP3    H292343   0.636   3.468   4.836
13959TIP3   OH292344   0.977   3.591   5.157
13959TIP3    H192345   0.994   3.565   5.248
13959TIP3    H292346   1.062   3.627   5.129
13960TIP3   OH292347   1.200   3.729   5.079
13960TIP3    H192348   1.271   3.668   5.057
13960TIP3    H292349   1.240   3.763   5.162
13961TIP3   OH292350   1.708   1.988   4.985
13961TIP3    H192351   1.619   2.013   4.955
13961TIP3    H292352   1.721   1.901   4.942
13962TIP3   OH292353   0.285   3.779   4.862
13962TIP3    H192354   0.211   3.828   4.822
13962TIP3    H292355   0.250   3.762   4.951
13963TIP3   OH292356   0.531   3.739   4.769
13963TIP3    H192357   0.442   3.754   4.811
13963TIP3    H292358   0.524   3.797   4.691
13964TIP3   OH292359   1.001   3.727   4.685
13964TIP3    H192360   0.956   3.784   4.621
13964TIP3    H292361   1.015   3.790   4.759
13965TIP3   OH292362   1.232   3.609   4.784
13965TIP3    H192363   1.145   3.637   4.752
13965TIP3    H292364   1.278   3.694   4.778
13966TIP3   OH292365   1.490   3.768   4.813
13966TIP3    H192366   1.483   3.864   4.789
13966TIP3    H292367   1.511   3.731   4.725
13967TIP3   OH292368   0.227   3.642   4.556
13967TIP3    H192369   0.225   3.602   4.645
13967TIP3    H292370   0.311   3.610   4.516
13968TIP3   OH292371   0.436   3.514   4.423
13968TIP3    H192372   0.420   3.421   4.443
13968TIP3    H292373   0.522   3.532   4.467
13969TIP3   OH292374   0.696   3.563   4.510
13969TIP3    H192375   0.716   3.473   4.482
13969TIP3    H292376   0.704   3.560   4.606
13970TIP3   OH292377   1.044   2.128   4.421
13970TIP3    H192378   0.976   2.064   4.451
13970TIP3    H292379   1.099   2.074   4.364
13971TIP3   OH292380   1.557   1.933   4.429
13971TIP3    H192381   1.619   1.993   4.379
13971TIP3    H292382   1.469   1.969   4.407
13972TIP3   OH292383   1.724   2.057   4.259
13972TIP3    H192384   1.793   2.000   4.216
13972TIP3    H292385   1.774   2.141   4.268
13973TIP3   OH292386   0.280   1.989   4.208
13973TIP3    H192387   0.200   1.966   4.157
13973TIP3    H292388   0.330   1.904   4.204
13974TIP3   OH292389   0.165   1.966   3.788
13974TIP3    H192390   0.206   2.028   3.724
13974TIP3    H292391   0.096   2.017   3.832
13975TIP3   OH292392   0.732   1.979   4.185
13975TIP3    H192393   0.819   2.021   4.182
13975TIP3    H292394   0.723   1.962   4.279
13976TIP3   OH292395   1.299   1.985   4.350
13976TIP3    H192396   1.295   1.997   4.254
13976TIP3    H292397   1.260   1.895   4.362
13977TIP3   OH292398   1.425   1.989   3.913
13977TIP3    H192399   1.352   2.051   3.898
13977TIP3    H292400   1.384   1.904   3.939
13978TIP3   OH292401   0.147   3.564   3.885
13978TIP3    H192402   0.086   3.562   3.810
13978TIP3    H292403   0.155   3.659   3.897
13979TIP3   OH292404   0.339   2.157   3.637
13979TIP3    H192405   0.391   2.103   3.577
13979TIP3    H292406   0.412   2.193   3.689
13980TIP3   OH292407   0.840   2.183   3.877
13980TIP3    H192408   0.871   2.131   3.951
13980TIP3    H292409   0.851   2.273   3.916
13981TIP3   OH292410   1.033   3.695   3.712
13981TIP3    H192411   1.128   3.715   3.698
13981TIP3    H292412   1.017   3.639   3.634
13982TIP3   OH292413   1.706   3.642   3.987
13982TIP3    H192414   1.686   3.564   3.929
13982TIP3    H292415   1.698   3.716   3.924
13983TIP3   OH292416   0.253   2.009   5.126
13983TIP3    H192417   0.221   1.950   5.196
13983TIP3    H292418   0.339   2.027   5.165
13984TIP3   OH292419   0.331   3.657   3.578
13984TIP3    H192420   0.303   3.689   3.665
13984TIP3    H292421   0.410   3.606   3.595
13985TIP3   OH292422   3.076   2.905   4.194
13985TIP3    H192423   3.074   3.003   4.189
13985TIP3    H292424   3.003   2.882   4.133
13986TIP3   OH292425   2.961   2.830   4.544
13986TIP3    H192426   2.960   2.765   4.615
13986TIP3    H292427   2.926   2.780   4.468
13987TIP3   OH292428   2.196   2.797   4.692
13987TIP3    H192429   2.204   2.731   4.766
13987TIP3    H292430   2.269   2.855   4.720
13988TIP3   OH292431   3.330   3.126   4.372
13988TIP3    H192432   3.288   3.054   4.421
13988TIP3    H292433   3.332   3.196   4.439
13989TIP3   OH292434   2.289   3.242   4.551
13989TIP3    H192435   2.259   3.157   4.516
13989TIP3    H292436   2.386   3.227   4.555
13990TIP3   OH292437   1.936   2.587   4.110
13990TIP3    H192438   1.921   2.682   4.089
13990TIP3    H292439   1.894   2.545   4.034
13991TIP3   OH292440   2.014   2.826   4.296
13991TIP3    H192441   2.030   2.731   4.304
13991TIP3    H292442   2.081   2.840   4.222
13992TIP3   OH292443   3.043   3.643   4.395
13992TIP3    H192444   3.105   3.571   4.367
13992TIP3    H292445   3.019   3.609   4.482
13993TIP3   OH292446   2.798   3.071   4.590
13993TIP3    H192447   2.833   3.008   4.525
13993TIP3    H292448   2.878   3.086   4.643
13994TIP3   OH292449   3.659   2.236   4.665
13994TIP3    H192450   3.675   2.295   4.742
13994TIP3    H292451   3.714   2.279   4.598
13995TIP3   OH292452   3.113   2.517   4.624
13995TIP3    H192453   3.132   2.421   4.623
13995TIP3    H292454   3.105   2.532   4.527
13996TIP3   OH292455   2.424   2.327   4.344
13996TIP3    H192456   2.437   2.410   4.293
13996TIP3    H292457   2.386   2.269   4.275
13997TIP3   OH292458   3.200   2.334   4.181
13997TIP3    H192459   3.266   2.303   4.248
13997TIP3    H292460   3.256   2.392   4.126
13998TIP3   OH292461   2.090   2.561   4.416
13998TIP3    H192462   2.157   2.504   4.460
13998TIP3    H292463   2.100   2.531   4.323
13999TIP3   OH292464   2.601   2.722   4.352
13999TIP3    H192465   2.671   2.665   4.388
13999TIP3    H292466   2.553   2.657   4.296
14000TIP3   OH292467   3.706   2.384   4.889
14000TIP3    H192468   3.637   2.453   4.879
14000TIP3    H292469   3.703   2.366   4.984
14001TIP3   OH292470   2.318   2.214   4.744
14001TIP3    H192471   2.289   2.273   4.673
14001TIP3    H292472   2.251   2.238   4.814
14002TIP3   OH292473   3.046   3.165   4.103
14002TIP3    H192474   3.017   3.136   4.015
14002TIP3    H292475   3.015   3.258   4.107
14003TIP3   OH292476   2.570   2.981   4.777
14003TIP3    H192477   2.498   3.046   4.795
14003TIP3    H292478   2.638   3.040   4.742
14004TIP3   OH292479   3.380   2.269   4.380
14004TIP3    H192480   3.359   2.192   4.434
14004TIP3    H292481   3.448   2.313   4.434
14005TIP3   OH292482   2.272   2.407   4.548
14005TIP3    H192483   2.339   2.469   4.584
14005TIP3    H292484   2.325   2.360   4.478
14006TIP3   OH292485   2.415   3.182   4.859
14006TIP3    H192486   2.409   3.272   4.822
14006TIP3    H292487   2.324   3.175   4.896
14007TIP3   OH292488   2.018   3.144   3.931
14007TIP3    H192489   1.998   3.176   3.841
14007TIP3    H292490   2.028   3.226   3.983
14008TIP3   OH292491   3.382   3.309   4.607
14008TIP3    H192492   3.286   3.320   4.621
14008TIP3    H292493   3.410   3.401   4.590
14009TIP3   OH292494   3.414   2.140   4.752
14009TIP3    H192495   3.341   2.201   4.738
14009TIP3    H292496   3.485   2.180   4.697
14010TIP3   OH292497   2.711   1.950   4.493
14010TIP3    H192498   2.698   1.853   4.488
14010TIP3    H292499   2.624   1.980   4.526
14011TIP3   OH292500   3.211   3.489   4.268
14011TIP3    H192501   3.250   3.414   4.218
14011TIP3    H292502   3.250   3.567   4.227
14012TIP3   OH292503   3.329   3.280   4.119
14012TIP3    H192504   3.300   3.211   4.058
14012TIP3    H292505   3.333   3.231   4.203
14013TIP3   OH292506   3.495   3.139   4.969
14013TIP3    H192507   3.505   3.076   4.894
14013TIP3    H292508   3.512   3.225   4.927
14014TIP3   OH292509   2.941   2.830   3.944
14014TIP3    H192510   2.871   2.887   3.906
14014TIP3    H292511   3.011   2.838   3.877
14015TIP3   OH292512   2.947   2.681   3.653
14015TIP3    H192513   3.020   2.682   3.717
14015TIP3    H292514   2.978   2.617   3.589
14016TIP3   OH292515   3.680   2.768   4.772
14016TIP3    H192516   3.615   2.842   4.780
14016TIP3    H292517   3.728   2.795   4.692
14017TIP3   OH292518   3.285   2.848   4.037
14017TIP3    H192519   3.212   2.874   4.098
14017TIP3    H292520   3.333   2.783   4.092
14018TIP3   OH292521   3.275   2.665   4.948
14018TIP3    H192522   3.278   2.746   5.001
14018TIP3    H292523   3.214   2.697   4.878
14019TIP3   OH292524   2.443   2.915   4.231
14019TIP3    H192525   2.414   2.878   4.144
14019TIP3    H292526   2.508   2.847   4.260
14020TIP3   OH292527   2.579   3.254   4.497
14020TIP3    H192528   2.578   3.201   4.416
14020TIP3    H292529   2.657   3.219   4.543
14021TIP3   OH292530   2.476   2.794   4.594
14021TIP3    H192531   2.538   2.800   4.517
14021TIP3    H292532   2.519   2.856   4.657
14022TIP3   OH292533   3.121   3.347   4.667
14022TIP3    H192534   3.091   3.412   4.731
14022TIP3    H292535   3.096   3.261   4.709
14023TIP3   OH292536   2.570   3.227   5.074
14023TIP3    H192537   2.538   3.311   5.111
14023TIP3    H292538   2.510   3.216   4.996
14024TIP3   OH292539   3.175   2.767   3.804
14024TIP3    H192540   3.227   2.788   3.886
14024TIP3    H292541   3.212   2.824   3.736
14025TIP3   OH292542   2.268   2.853   4.980
14025TIP3    H192543   2.273   2.914   5.054
14025TIP3    H292544   2.175   2.858   4.957
14026TIP3   OH292545   2.945   3.442   4.151
14026TIP3    H192546   2.988   3.473   4.231
14026TIP3    H292547   2.888   3.517   4.127
14027TIP3   OH292548   2.394   3.435   5.139
14027TIP3    H192549   2.395   3.429   5.042
14027TIP3    H292550   2.300   3.428   5.161
14028TIP3   OH292551   3.545   1.942   3.796
14028TIP3    H192552   3.450   1.955   3.818
14028TIP3    H292553   3.567   2.027   3.753
14029TIP3   OH292554   2.388   2.817   3.963
14029TIP3    H192555   2.331   2.894   3.942
14029TIP3    H292556   2.307   2.761   3.973
14030TIP3   OH292557   3.656   3.377   3.633
14030TIP3    H192558   3.669   3.473   3.643
14030TIP3    H292559   3.748   3.348   3.623
14031TIP3   OH292560   1.960   3.060   4.873
14031TIP3    H192561   1.907   3.054   4.791
14031TIP3    H292562   1.958   2.966   4.900
14032TIP3   OH292563   1.930   3.333   4.558
14032TIP3    H192564   2.026   3.325   4.556
14032TIP3    H292565   1.920   3.415   4.608
14033TIP3   OH292566   3.760   3.402   5.072
14033TIP3    H192567   3.754   3.313   5.108
14033TIP3    H292568   3.693   3.440   5.132
14034TIP3   OH292569   2.849   3.356   5.016
14034TIP3    H192570   2.856   3.443   5.062
14034TIP3    H292571   2.758   3.328   5.034
14035TIP3   OH292572   2.894   3.734   3.990
14035TIP3    H192573   2.883   3.727   3.895
14035TIP3    H292574   2.891   3.830   4.009
14036TIP3   OH292575   2.257   3.620   4.175
14036TIP3    H192576   2.270   3.581   4.264
14036TIP3    H292577   2.172   3.580   4.151
14037TIP3   OH292578   3.197   3.655   3.691
14037TIP3    H192579   3.242   3.579   3.648
14037TIP3    H292580   3.202   3.627   3.784
14038TIP3   OH292581   3.168   3.651   3.972
14038TIP3    H192582   3.071   3.655   3.987
14038TIP3    H292583   3.190   3.572   4.024
14039TIP3   OH292584   2.182   3.190   4.976
14039TIP3    H192585   2.197   3.155   5.063
14039TIP3    H292586   2.094   3.154   4.949
14040TIP3   OH292587   2.449   2.040   4.567
14040TIP3    H192588   2.358   2.028   4.532
14040TIP3    H292589   2.437   2.122   4.617
14041TIP3   OH292590   2.912   2.009   4.908
14041TIP3    H192591   2.951   1.966   4.985
14041TIP3    H292592   2.815   1.993   4.921
14042TIP3   OH292593   3.227   2.390   4.988
14042TIP3    H192594   3.195   2.373   5.079
14042TIP3    H292595   3.229   2.486   4.976
14043TIP3   OH292596   2.874   2.266   3.639
14043TIP3    H192597   2.847   2.259   3.733
14043TIP3    H292598   2.851   2.177   3.611
14044TIP3   OH292599   2.456   2.536   4.691
14044TIP3    H192600   2.386   2.536   4.759
14044TIP3    H292601   2.458   2.629   4.660
14045TIP3   OH292602   2.455   2.547   4.183
14045TIP3    H192603   2.361   2.526   4.166
14045TIP3    H292604   2.493   2.522   4.097
14046TIP3   OH292605   3.007   2.598   4.057
14046TIP3    H192606   2.966   2.681   4.024
14046TIP3    H292607   3.076   2.582   3.990
14047TIP3   OH292608   3.111   2.548   4.343
14047TIP3    H192609   3.083   2.604   4.268
14047TIP3    H292610   3.121   2.463   4.295
14048TIP3   OH292611   2.218   2.567   4.864
14048TIP3    H192612   2.231   2.601   4.954
14048TIP3    H292613   2.181   2.479   4.883
14049TIP3   OH292614   1.888   2.276   4.261
14049TIP3    H192615   1.956   2.268   4.332
14049TIP3    H292616   1.932   2.237   4.184
14050TIP3   OH292617   2.013   2.347   3.797
14050TIP3    H192618   2.062   2.406   3.738
14050TIP3    H292619   1.945   2.409   3.830
14051TIP3   OH292620   3.032   2.707   4.804
14051TIP3    H192621   3.068   2.641   4.740
14051TIP3    H292622   2.983   2.649   4.865
14052TIP3   OH292623   2.711   2.304   4.282
14052TIP3    H192624   2.618   2.305   4.311
14052TIP3    H292625   2.760   2.288   4.364
14053TIP3   OH292626   2.189   2.456   4.172
14053TIP3    H192627   2.105   2.477   4.127
14053TIP3    H292628   2.221   2.377   4.125
14054TIP3   OH292629   2.557   2.464   3.929
14054TIP3    H192630   2.652   2.476   3.948
14054TIP3    H292631   2.531   2.533   3.865
14055TIP3   OH292632   3.152   2.228   4.608
14055TIP3    H192633   3.082   2.234   4.676
14055TIP3    H292634   3.102   2.203   4.528
14056TIP3   OH292635   2.428   2.575   3.690
14056TIP3    H192636   2.371   2.547   3.617
14056TIP3    H292637   2.508   2.605   3.644
14057TIP3   OH292638   2.839   2.580   4.471
14057TIP3    H192639   2.899   2.526   4.417
14057TIP3    H292640   2.825   2.525   4.549
14058TIP3   OH292641   2.341   2.194   4.116
14058TIP3    H192642   2.310   2.102   4.112
14058TIP3    H292643   2.419   2.188   4.059
14059TIP3   OH292644   2.704   2.412   4.712
14059TIP3    H192645   2.621   2.463   4.719
14059TIP3    H292646   2.759   2.447   4.784
14060TIP3   OH292647   2.763   3.033   3.886
14060TIP3    H192648   2.683   2.988   3.850
14060TIP3    H292649   2.739   3.046   3.979
14061TIP3   OH292650   3.481   2.952   4.763
14061TIP3    H192651   3.537   3.003   4.701
14061TIP3    H292652   3.395   2.959   4.717
14062TIP3   OH292653   3.147   2.315   3.700
14062TIP3    H192654   3.053   2.331   3.683
14062TIP3    H292655   3.178   2.402   3.732
14063TIP3   OH292656   2.906   3.063   4.999
14063TIP3    H192657   2.884   3.023   5.081
14063TIP3    H292658   2.889   3.158   5.011
14064TIP3   OH292659   3.220   2.508   3.867
14064TIP3    H192660   3.310   2.494   3.903
14064TIP3    H292661   3.227   2.589   3.814
14065TIP3   OH292662   2.267   2.966   4.461
14065TIP3    H192663   2.339   2.969   4.393
14065TIP3    H292664   2.292   2.888   4.512
14066TIP3   OH292665   2.973   3.182   3.791
14066TIP3    H192666   2.934   3.267   3.821
14066TIP3    H292667   2.898   3.120   3.805
14067TIP3   OH292668   1.970   2.816   4.986
14067TIP3    H192669   1.994   2.773   5.070
14067TIP3    H292670   1.909   2.752   4.945
14068TIP3   OH292671   3.136   3.300   5.002
14068TIP3    H192672   3.047   3.327   4.976
14068TIP3    H292673   3.141   3.329   5.094
14069TIP3   OH292674   3.705   2.523   3.842
14069TIP3    H192675   3.656   2.488   3.766
14069TIP3    H292676   3.718   2.616   3.812
14070TIP3   OH292677   3.704   3.096   5.117
14070TIP3    H192678   3.618   3.133   5.082
14070TIP3    H292679   3.760   3.106   5.038
14071TIP3   OH292680   3.538   3.408   3.881
14071TIP3    H192681   3.501   3.325   3.914
14071TIP3    H292682   3.568   3.386   3.790
14072TIP3   OH292683   3.258   2.886   4.591
14072TIP3    H192684   3.164   2.865   4.579
14072TIP3    H292685   3.301   2.811   4.547
14073TIP3   OH292686   2.510   3.320   4.200
14073TIP3    H192687   2.560   3.400   4.180
14073TIP3    H292688   2.422   3.343   4.167
14074TIP3   OH292689   2.082   2.813   3.646
14074TIP3    H192690   2.146   2.864   3.700
14074TIP3    H292691   1.998   2.831   3.692
14075TIP3   OH292692   2.651   3.086   4.154
14075TIP3    H192693   2.621   3.178   4.161
14075TIP3    H292694   2.578   3.037   4.196
14076TIP3   OH292695   2.697   3.505   4.791
14076TIP3    H192696   2.742   3.586   4.765
14076TIP3    H292697   2.758   3.471   4.858
14077TIP3   OH292698   2.521   3.586   4.106
14077TIP3    H192699   2.424   3.599   4.120
14077TIP3    H292700   2.556   3.670   4.140
14078TIP3   OH292701   3.049   3.104   4.753
14078TIP3    H192702   3.017   3.086   4.843
14078TIP3    H292703   3.115   3.034   4.740
14079TIP3   OH292704   3.278   3.207   3.668
14079TIP3    H192705   3.309   3.164   3.750
14079TIP3    H292706   3.182   3.194   3.675
14080TIP3   OH292707   3.323   3.563   5.008
14080TIP3    H192708   3.262   3.512   4.953
14080TIP3    H292709   3.351   3.632   4.944
14081TIP3   OH292710   3.731   3.650   3.690
14081TIP3    H192711   3.800   3.713   3.665
14081TIP3    H292712   3.658   3.709   3.717
14082TIP3   OH292713   2.138   2.291   4.942
14082TIP3    H192714   2.047   2.323   4.938
14082TIP3    H292715   2.129   2.205   4.987
14083TIP3   OH292716   3.361   3.072   3.887
14083TIP3    H192717   3.337   2.995   3.942
14083TIP3    H292718   3.456   3.081   3.909
14084TIP3   OH292719   2.101   3.467   4.786
14084TIP3    H192720   2.129   3.375   4.786
14084TIP3    H292721   2.124   3.497   4.875
14085TIP3   OH292722   2.570   3.274   3.757
14085TIP3    H192723   2.600   3.219   3.830
14085TIP3    H292724   2.582   3.366   3.790
14086TIP3   OH292725   2.221   3.003   3.795
14086TIP3    H192726   2.159   3.032   3.866
14086TIP3    H292727   2.281   3.076   3.784
14087TIP3   OH292728   3.007   2.265   4.837
14087TIP3    H192729   3.082   2.269   4.899
14087TIP3    H292730   2.971   2.176   4.853
14088TIP3   OH292731   3.084   2.224   3.950
14088TIP3    H192732   3.108   2.269   3.866
14088TIP3    H292733   3.143   2.268   4.012
14089TIP3   OH292734   2.854   3.440   3.831
14089TIP3    H192735   2.771   3.491   3.835
14089TIP3    H292736   2.907   3.490   3.767
14090TIP3   OH292737   2.809   2.395   4.029
14090TIP3    H192738   2.886   2.455   4.033
14090TIP3    H292739   2.781   2.385   4.122
14091TIP3   OH292740   2.871   2.506   4.942
14091TIP3    H192741   2.871   2.554   5.024
14091TIP3    H292742   2.923   2.426   4.955
14092TIP3   OH292743   2.893   2.104   4.118
14092TIP3    H192744   2.861   2.169   4.183
14092TIP3    H292745   2.962   2.158   4.073
14093TIP3   OH292746   2.589   3.542   3.831
14093TIP3    H192747   2.607   3.625   3.781
14093TIP3    H292748   2.566   3.577   3.920
14094TIP3   OH292749   2.460   2.213   3.793
14094TIP3    H192750   2.453   2.305   3.825
14094TIP3    H292751   2.551   2.190   3.818
14095TIP3   OH292752   3.480   2.293   5.037
14095TIP3    H192753   3.387   2.317   5.021
14095TIP3    H292754   3.510   2.283   4.945
14096TIP3   OH292755   3.342   2.666   4.434
14096TIP3    H192756   3.260   2.622   4.407
14096TIP3    H292757   3.390   2.597   4.486
14097TIP3   OH292758   2.284   3.263   3.692
14097TIP3    H192759   2.350   3.323   3.726
14097TIP3    H292760   2.335   3.214   3.625
14098TIP3   OH292761   3.448   3.591   4.598
14098TIP3    H192762   3.440   3.661   4.532
14098TIP3    H292763   3.544   3.597   4.621
14099TIP3   OH292764   2.198   2.004   4.482
14099TIP3    H192765   2.178   2.006   4.385
14099TIP3    H292766   2.156   1.919   4.507
14100TIP3   OH292767   2.094   3.400   4.098
14100TIP3    H192768   2.007   3.442   4.092
14100TIP3    H292769   2.141   3.444   4.026
14101TIP3   OH292770   3.353   3.484   3.548
14101TIP3    H192771   3.377   3.401   3.592
14101TIP3    H292772   3.428   3.501   3.490
14102TIP3   OH292773   3.245   3.025   4.987
14102TIP3    H192774   3.325   3.082   4.993
14102TIP3    H292775   3.178   3.090   5.009
14103TIP3   OH292776   2.568   2.876   3.769
14103TIP3    H192777   2.509   2.827   3.832
14103TIP3    H292778   2.590   2.807   3.704
14104TIP3   OH292779   2.490   2.658   4.998
14104TIP3    H192780   2.425   2.727   5.022
14104TIP3    H292781   2.524   2.692   4.914
14105TIP3   OH292782   2.667   2.694   3.588
14105TIP3    H192783   2.658   2.682   3.493
14105TIP3    H292784   2.765   2.706   3.599
14106TIP3   OH292785   2.522   2.396   5.104
14106TIP3    H192786   2.536   2.324   5.041
14106TIP3    H292787   2.521   2.476   5.048
14107TIP3   OH292788   2.566   2.230   4.860
14107TIP3    H192789   2.618   2.278   4.792
14107TIP3    H292790   2.479   2.221   4.816
14108TIP3   OH292791   2.727   2.783   4.889
14108TIP3    H192792   2.797   2.762   4.824
14108TIP3    H292793   2.684   2.861   4.849
14109TIP3   OH292794   2.649   1.978   4.898
14109TIP3    H192795   2.628   2.073   4.890
14109TIP3    H292796   2.572   1.939   4.852
14110TIP3   OH292797   2.652   3.767   3.690
14110TIP3    H192798   2.748   3.777   3.704
14110TIP3    H292799   2.633   3.835   3.626
14111TIP3   OH292800   2.011   3.230   3.642
14111TIP3    H192801   2.106   3.234   3.666
14111TIP3    H292802   2.012   3.165   3.571
14112TIP3   OH292803   1.885   3.763   4.143
14112TIP3    H192804   1.814   3.716   4.095
14112TIP3    H292805   1.913   3.696   4.207
14113TIP3   OH292806   1.966   3.576   4.328
14113TIP3    H192807   1.931   3.488   4.348
14113TIP3    H292808   1.989   3.609   4.416
14114TIP3   OH292809   3.720   3.656   4.622
14114TIP3    H192810   3.723   3.672   4.718
14114TIP3    H292811   3.791   3.713   4.592
14115TIP3   OH292812   3.681   3.615   4.909
14115TIP3    H192813   3.632   3.538   4.878
14115TIP3    H292814   3.731   3.573   4.982
14116TIP3   OH292815   3.656   3.019   3.925
14116TIP3    H192816   3.740   3.061   3.947
14116TIP3    H292817   3.653   2.949   3.995
14117TIP3   OH292818   3.690   2.828   4.113
14117TIP3    H192819   3.615   2.778   4.153
14117TIP3    H292820   3.750   2.842   4.189
14118TIP3   OH292821   3.664   3.096   4.609
14118TIP3    H192822   3.748   3.060   4.575
14118TIP3    H292823   3.680   3.192   4.595
14119TIP3   OH292824   3.518   3.389   4.839
14119TIP3    H192825   3.451   3.423   4.900
14119TIP3    H292826   3.465   3.347   4.768
14120TIP3   OH292827   3.717   2.810   3.752
14120TIP3    H192828   3.661   2.845   3.683
14120TIP3    H292829   3.713   2.881   3.819
14121TIP3   OH292830   3.472   2.675   4.170
14121TIP3    H192831   3.457   2.580   4.169
14121TIP3    H292832   3.439   2.698   4.259
14122TIP3   OH292833   1.965   2.899   4.594
14122TIP3    H192834   1.971   2.905   4.496
14122TIP3    H292835   2.056   2.883   4.629
14123TIP3   OH292836   3.562   2.870   5.139
14123TIP3    H192837   3.621   2.798   5.158
14123TIP3    H292838   3.618   2.950   5.135
14124TIP3   OH292839   3.481   2.274   3.515
14124TIP3    H192840   3.540   2.236   3.583
14124TIP3    H292841   3.393   2.241   3.537
14125TIP3   OH292842   3.439   2.434   4.018
14125TIP3    H192843   3.469   2.341   4.030
14125TIP3    H292844   3.518   2.474   3.979
14126TIP3   OH292845   3.502   2.489   4.560
14126TIP3    H192846   3.598   2.512   4.560
14126TIP3    H292847   3.483   2.502   4.654
14127TIP3   OH292848   3.510   2.563   4.840
14127TIP3    H192849   3.422   2.591   4.874
14127TIP3    H292850   3.552   2.648   4.817
14128TIP3   OH292851   3.506   2.162   4.021
14128TIP3    H192852   3.527   2.119   4.107
14128TIP3    H292853   3.445   2.098   3.978
14129TIP3   OH292854   2.054   2.245   4.478
14129TIP3    H192855   2.099   2.162   4.503
14129TIP3    H292856   2.110   2.312   4.517
14130TIP3   OH292857   1.882   2.544   4.577
14130TIP3    H192858   1.939   2.516   4.504
14130TIP3    H292859   1.927   2.621   4.613
14131TIP3   OH292860   3.688   2.167   3.679
14131TIP3    H192861   3.730   2.097   3.628
14131TIP3    H292862   3.759   2.234   3.679
14132TIP3   OH292863   1.917   2.170   3.987
14132TIP3    H192864   1.823   2.188   3.974
14132TIP3    H292865   1.960   2.219   3.915
14133TIP3   OH292866   3.395   3.676   4.179
14133TIP3    H192867   3.460   3.628   4.124
14133TIP3    H292868   3.449   3.702   4.256
14134TIP3   OH292869   1.914   2.038   4.816
14134TIP3    H192870   1.848   2.016   4.886
14134TIP3    H292871   1.866   2.104   4.764
14135TIP3   OH292872   2.427   3.452   4.859
14135TIP3    H192873   2.393   3.540   4.835
14135TIP3    H292874   2.521   3.464   4.834
14136TIP3   OH292875   2.862   3.591   5.157
14136TIP3    H192876   2.880   3.565   5.248
14136TIP3    H292877   2.948   3.627   5.129
14137TIP3   OH292878   3.085   3.729   5.079
14137TIP3    H192879   3.157   3.668   5.057
14137TIP3    H292880   3.125   3.763   5.162
14138TIP3   OH292881   3.594   1.988   4.985
14138TIP3    H192882   3.505   2.013   4.955
14138TIP3    H292883   3.607   1.901   4.942
14139TIP3   OH292884   2.169   3.779   4.863
14139TIP3    H192885   2.095   3.828   4.824
14139TIP3    H292886   2.137   3.762   4.952
14140TIP3   OH292887   2.417   3.737   4.770
14140TIP3    H192888   2.329   3.754   4.811
14140TIP3    H292889   2.411   3.795   4.691
14141TIP3   OH292890   2.888   3.728   4.686
14141TIP3    H192891   2.842   3.783   4.622
14141TIP3    H292892   2.901   3.791   4.760
14142TIP3   OH292893   3.118   3.609   4.784
14142TIP3    H192894   3.031   3.637   4.752
14142TIP3    H292895   3.163   3.695   4.779
14143TIP3   OH292896   3.376   3.768   4.813
14143TIP3    H192897   3.369   3.864   4.789
14143TIP3    H292898   3.397   3.731   4.725
14144TIP3   OH292899   2.114   3.642   4.557
14144TIP3    H192900   2.109   3.599   4.645
14144TIP3    H292901   2.197   3.607   4.518
14145TIP3   OH292902   2.324   3.515   4.422
14145TIP3    H192903   2.307   3.422   4.444
14145TIP3    H292904   2.410   3.530   4.467
14146TIP3   OH292905   2.584   3.564   4.510
14146TIP3    H192906   2.601   3.472   4.483
14146TIP3    H292907   2.587   3.556   4.607
14147TIP3   OH292908   2.930   2.129   4.423
14147TIP3    H192909   2.862   2.064   4.451
14147TIP3    H292910   2.985   2.075   4.364
14148TIP3   OH292911   3.443   1.933   4.430
14148TIP3    H192912   3.504   1.992   4.379
14148TIP3    H292913   3.355   1.969   4.407
14149TIP3   OH292914   3.610   2.058   4.258
14149TIP3    H192915   3.678   2.000   4.216
14149TIP3    H292916   3.660   2.142   4.268
14150TIP3   OH292917   2.166   1.991   4.209
14150TIP3    H192918   2.087   1.971   4.155
14150TIP3    H292919   2.213   1.905   4.202
14151TIP3   OH292920   2.041   1.968   3.779
14151TIP3    H192921   2.092   2.032   3.725
14151TIP3    H292922   1.986   2.025   3.835
14152TIP3   OH292923   2.614   1.983   4.186
14152TIP3    H192924   2.704   2.020   4.179
14152TIP3    H292925   2.610   1.962   4.280
14153TIP3   OH292926   3.184   1.986   4.349
14153TIP3    H192927   3.180   1.996   4.254
14153TIP3    H292928   3.147   1.895   4.362
14154TIP3   OH292929   3.312   1.989   3.915
14154TIP3    H192930   3.238   2.048   3.899
14154TIP3    H292931   3.269   1.903   3.939
14155TIP3   OH292932   2.035   3.563   3.881
14155TIP3    H192933   1.967   3.562   3.811
14155TIP3    H292934   2.037   3.658   3.897
14156TIP3   OH292935   2.226   2.153   3.634
14156TIP3    H192936   2.281   2.099   3.578
14156TIP3    H292937   2.294   2.195   3.691
14157TIP3   OH292938   2.731   2.186   3.871
14157TIP3    H192939   2.755   2.128   3.946
14157TIP3    H292940   2.735   2.272   3.919
14158TIP3   OH292941   2.919   3.694   3.712
14158TIP3    H192942   3.013   3.715   3.698
14158TIP3    H292943   2.903   3.639   3.635
14159TIP3   OH292944   3.587   3.646   3.989
14159TIP3    H192945   3.573   3.565   3.932
14159TIP3    H292946   3.587   3.715   3.920
14160TIP3   OH292947   2.136   2.008   5.130
14160TIP3    H192948   2.107   1.950   5.202
14160TIP3    H292949   2.224   2.026   5.164
14161TIP3   OH292950   2.217   3.658   3.577
14161TIP3    H192951   2.190   3.689   3.665
14161TIP3    H292952   2.295   3.606   3.594
14162TIP3   OH292953   4.961   2.905   4.194
14162TIP3    H192954   4.960   3.003   4.189
14162TIP3    H292955   4.888   2.881   4.133
14163TIP3   OH292956   4.847   2.831   4.543
14163TIP3    H192957   4.845   2.766   4.614
14163TIP3    H292958   4.812   2.781   4.468
14164TIP3   OH292959   4.082   2.800   4.700
14164TIP3    H192960   4.091   2.730   4.768
14164TIP3    H292961   4.157   2.856   4.721
14165TIP3   OH292962   5.215   3.125   4.372
14165TIP3    H192963   5.174   3.054   4.421
14165TIP3    H292964   5.217   3.196   4.439
14166TIP3   OH292965   4.174   3.243   4.549
14166TIP3    H192966   4.143   3.156   4.517
14166TIP3    H292967   4.270   3.224   4.554
14167TIP3   OH292968   3.839   2.599   4.095
14167TIP3    H192969   3.795   2.686   4.093
14167TIP3    H292970   3.781   2.546   4.039
14168TIP3   OH292971   3.909   2.821   4.312
14168TIP3    H192972   3.936   2.739   4.358
14168TIP3    H292973   3.979   2.832   4.246
14169TIP3   OH292974   4.927   3.641   4.396
14169TIP3    H192975   4.992   3.572   4.367
14169TIP3    H292976   4.906   3.608   4.483
14170TIP3   OH292977   4.684   3.071   4.590
14170TIP3    H192978   4.718   3.008   4.525
14170TIP3    H292979   4.764   3.086   4.643
14171TIP3   OH292980   5.546   2.236   4.664
14171TIP3    H192981   5.561   2.293   4.741
14171TIP3    H292982   5.601   2.279   4.598
14172TIP3   OH292983   5.003   2.518   4.624
14172TIP3    H192984   5.016   2.421   4.624
14172TIP3    H292985   4.990   2.531   4.528
14173TIP3   OH292986   4.325   2.331   4.320
14173TIP3    H192987   4.320   2.422   4.280
14173TIP3    H292988   4.272   2.278   4.254
14174TIP3   OH292989   5.086   2.334   4.181
14174TIP3    H192990   5.151   2.303   4.248
14174TIP3    H292991   5.142   2.391   4.126
14175TIP3   OH292992   3.974   2.568   4.417
14175TIP3    H192993   4.040   2.514   4.463
14175TIP3    H292994   3.984   2.538   4.325
14176TIP3   OH292995   4.489   2.722   4.350
14176TIP3    H192996   4.559   2.666   4.388
14176TIP3    H292997   4.440   2.658   4.296
14177TIP3   OH292998   5.590   2.383   4.889
14177TIP3    H192999   5.522   2.453   4.878
14177TIP3    H293000   5.591   2.365   4.984
14178TIP3   OH293001   4.197   2.212   4.737
14178TIP3    H193002   4.167   2.281   4.677
14178TIP3    H293003   4.141   2.235   4.815
14179TIP3   OH293004   4.932   3.164   4.103
14179TIP3    H193005   4.903   3.136   4.015
14179TIP3    H293006   4.901   3.258   4.107
14180TIP3   OH293007   4.453   2.981   4.772
14180TIP3    H193008   4.383   3.046   4.795
14180TIP3    H293009   4.524   3.040   4.744
14181TIP3   OH293010   5.266   2.268   4.380
14181TIP3    H193011   5.244   2.192   4.434
14181TIP3    H293012   5.333   2.313   4.436
14182TIP3   OH293013   4.163   2.399   4.551
14182TIP3    H193014   4.217   2.476   4.584
14182TIP3    H293015   4.200   2.381   4.463
14183TIP3   OH293016   4.298   3.182   4.855
14183TIP3    H193017   4.294   3.273   4.821
14183TIP3    H293018   4.209   3.175   4.897
14184TIP3   OH293019   3.905   3.142   3.931
14184TIP3    H193020   3.883   3.176   3.842
14184TIP3    H293021   3.913   3.225   3.983
14185TIP3   OH293022   5.268   3.309   4.607
14185TIP3    H193023   5.172   3.320   4.621
14185TIP3    H293024   5.295   3.401   4.590
14186TIP3   OH293025   5.299   2.144   4.754
14186TIP3    H193026   5.222   2.201   4.737
14186TIP3    H293027   5.369   2.179   4.696
14187TIP3   OH293028   4.594   1.950   4.487
14187TIP3    H193029   4.586   1.852   4.489
14187TIP3    H293030   4.510   1.977   4.528
14188TIP3   OH293031   5.094   3.488   4.268
14188TIP3    H193032   5.137   3.416   4.217
14188TIP3    H293033   5.137   3.567   4.229
14189TIP3   OH293034   5.215   3.280   4.119
14189TIP3    H193035   5.185   3.211   4.058
14189TIP3    H293036   5.218   3.231   4.203
14190TIP3   OH293037   5.381   3.139   4.969
14190TIP3    H193038   5.390   3.076   4.894
14190TIP3    H293039   5.398   3.226   4.927
14191TIP3   OH293040   4.826   2.829   3.944
14191TIP3    H193041   4.755   2.886   3.907
14191TIP3    H293042   4.897   2.838   3.877
14192TIP3   OH293043   4.833   2.681   3.653
14192TIP3    H193044   4.906   2.683   3.717
14192TIP3    H293045   4.864   2.618   3.589
14193TIP3   OH293046   5.564   2.767   4.773
14193TIP3    H193047   5.501   2.843   4.779
14193TIP3    H293048   5.614   2.792   4.693
14194TIP3   OH293049   5.171   2.848   4.037
14194TIP3    H193050   5.097   2.874   4.098
14194TIP3    H293051   5.218   2.783   4.092
14195TIP3   OH293052   5.158   2.666   4.953
14195TIP3    H193053   5.164   2.753   4.995
14195TIP3    H293054   5.101   2.696   4.877
14196TIP3   OH293055   4.333   2.918   4.227
14196TIP3    H193056   4.300   2.878   4.143
14196TIP3    H293057   4.393   2.848   4.262
14197TIP3   OH293058   4.465   3.255   4.497
14197TIP3    H193059   4.463   3.201   4.417
14197TIP3    H293060   4.543   3.218   4.543
14198TIP3   OH293061   4.368   2.787   4.596
14198TIP3    H193062   4.421   2.801   4.515
14198TIP3    H293063   4.403   2.856   4.656
14199TIP3   OH293064   5.007   3.347   4.666
14199TIP3    H193065   4.977   3.412   4.731
14199TIP3    H293066   4.982   3.262   4.709
14200TIP3   OH293067   4.457   3.230   5.070
14200TIP3    H193068   4.423   3.311   5.111
14200TIP3    H293069   4.395   3.214   4.996
14201TIP3   OH293070   5.060   2.767   3.804
14201TIP3    H193071   5.112   2.788   3.886
14201TIP3    H293072   5.097   2.824   3.736
14202TIP3   OH293073   4.152   2.852   4.982
14202TIP3    H193074   4.159   2.913   5.055
14202TIP3    H293075   4.060   2.860   4.955
14203TIP3   OH293076   4.830   3.442   4.151
14203TIP3    H193077   4.873   3.473   4.231
14203TIP3    H293078   4.774   3.517   4.127
14204TIP3   OH293079   4.280   3.435   5.139
14204TIP3    H193080   4.281   3.429   5.042
14204TIP3    H293081   4.186   3.427   5.161
14205TIP3   OH293082   5.430   1.942   3.794
14205TIP3    H193083   5.334   1.954   3.818
14205TIP3    H293084   5.452   2.027   3.753
14206TIP3   OH293085   4.229   2.820   3.988
14206TIP3    H193086   4.201   2.897   3.936
14206TIP3    H293087   4.163   2.753   3.967
14207TIP3   OH293088   5.541   3.377   3.632
14207TIP3    H193089   5.555   3.473   3.643
14207TIP3    H293090   5.634   3.348   3.624
14208TIP3   OH293091   3.843   3.060   4.874
14208TIP3    H193092   3.794   3.053   4.790
14208TIP3    H293093   3.845   2.966   4.900
14209TIP3   OH293094   3.815   3.334   4.558
14209TIP3    H193095   3.911   3.323   4.556
14209TIP3    H293096   3.806   3.416   4.610
14210TIP3   OH293097   5.646   3.402   5.072
14210TIP3    H193098   5.640   3.312   5.108
14210TIP3    H293099   5.578   3.440   5.132
14211TIP3   OH293100   4.734   3.358   5.012
14211TIP3    H193101   4.741   3.442   5.063
14211TIP3    H293102   4.646   3.324   5.036
14212TIP3   OH293103   4.777   3.733   3.991
14212TIP3    H193104   4.769   3.726   3.895
14212TIP3    H293105   4.780   3.829   4.009
14213TIP3   OH293106   4.142   3.621   4.175
14213TIP3    H193107   4.157   3.580   4.263
14213TIP3    H293108   4.057   3.580   4.151
14214TIP3   OH293109   5.079   3.653   3.690
14214TIP3    H193110   5.128   3.578   3.647
14214TIP3    H293111   5.088   3.629   3.784
14215TIP3   OH293112   5.052   3.648   3.969
14215TIP3    H193113   4.957   3.655   3.988
14215TIP3    H293114   5.078   3.574   4.026
14216TIP3   OH293115   4.067   3.191   4.977
14216TIP3    H193116   4.084   3.156   5.064
14216TIP3    H293117   3.980   3.155   4.950
14217TIP3   OH293118   4.334   2.037   4.564
14217TIP3    H193119   4.241   2.018   4.537
14217TIP3    H293120   4.324   2.102   4.637
14218TIP3   OH293121   4.803   1.961   4.908
14218TIP3    H193122   4.839   1.965   4.997
14218TIP3    H293123   4.711   1.997   4.920
14219TIP3   OH293124   5.125   2.387   4.994
14219TIP3    H193125   5.069   2.359   5.068
14219TIP3    H293126   5.098   2.472   4.955
14220TIP3   OH293127   4.760   2.266   3.639
14220TIP3    H193128   4.733   2.259   3.733
14220TIP3    H293129   4.737   2.177   3.611
14221TIP3   OH293130   4.336   2.534   4.687
14221TIP3    H193131   4.274   2.537   4.762
14221TIP3    H293132   4.341   2.629   4.660
14222TIP3   OH293133   4.338   2.553   4.178
14222TIP3    H193134   4.246   2.526   4.163
14222TIP3    H293135   4.379   2.522   4.095
14223TIP3   OH293136   4.893   2.599   4.057
14223TIP3    H193137   4.852   2.682   4.023
14223TIP3    H293138   4.961   2.582   3.990
14224TIP3   OH293139   4.996   2.548   4.343
14224TIP3    H193140   4.969   2.604   4.268
14224TIP3    H293141   5.007   2.463   4.296
14225TIP3   OH293142   4.107   2.563   4.863
14225TIP3    H193143   4.117   2.601   4.953
14225TIP3    H293144   4.065   2.478   4.884
14226TIP3   OH293145   3.774   2.274   4.261
14226TIP3    H193146   3.841   2.269   4.331
14226TIP3    H293147   3.817   2.235   4.182
14227TIP3   OH293148   3.901   2.349   3.801
14227TIP3    H193149   3.947   2.405   3.737
14227TIP3    H293150   3.831   2.410   3.830
14228TIP3   OH293151   4.925   2.706   4.806
14228TIP3    H193152   4.952   2.640   4.739
14228TIP3    H293153   4.867   2.652   4.863
14229TIP3   OH293154   4.600   2.301   4.283
14229TIP3    H193155   4.506   2.307   4.307
14229TIP3    H293156   4.648   2.288   4.367
14230TIP3   OH293157   4.078   2.456   4.171
14230TIP3    H193158   3.991   2.476   4.129
14230TIP3    H293159   4.106   2.375   4.125
14231TIP3   OH293160   4.440   2.466   3.932
14231TIP3    H193161   4.536   2.476   3.949
14231TIP3    H293162   4.418   2.532   3.863
14232TIP3   OH293163   5.043   2.224   4.589
14232TIP3    H193164   4.982   2.231   4.668
14232TIP3    H293165   4.981   2.201   4.520
14233TIP3   OH293166   4.312   2.578   3.691
14233TIP3    H193167   4.258   2.546   3.617
14233TIP3    H293168   4.393   2.605   3.645
14234TIP3   OH293169   4.722   2.578   4.469
14234TIP3    H193170   4.786   2.526   4.419
14234TIP3    H293171   4.712   2.526   4.551
14235TIP3   OH293172   4.227   2.192   4.119
14235TIP3    H193173   4.195   2.100   4.109
14235TIP3    H293174   4.303   2.189   4.059
14236TIP3   OH293175   4.587   2.430   4.697
14236TIP3    H193176   4.502   2.468   4.725
14236TIP3    H293177   4.642   2.436   4.779
14237TIP3   OH293178   4.648   3.032   3.886
14237TIP3    H193179   4.568   2.988   3.850
14237TIP3    H293180   4.625   3.046   3.979
14238TIP3   OH293181   5.366   2.950   4.764
14238TIP3    H193182   5.422   3.002   4.702
14238TIP3    H293183   5.280   2.959   4.718
14239TIP3   OH293184   5.033   2.315   3.700
14239TIP3    H193185   4.939   2.331   3.683
14239TIP3    H293186   5.064   2.402   3.732
14240TIP3   OH293187   4.797   3.063   5.001
14240TIP3    H193188   4.763   3.019   5.079
14240TIP3    H293189   4.772   3.155   5.014
14241TIP3   OH293190   5.105   2.508   3.867
14241TIP3    H193191   5.195   2.494   3.903
14241TIP3    H293192   5.113   2.589   3.814
14242TIP3   OH293193   4.158   2.973   4.461
14242TIP3    H193194   4.228   2.966   4.393
14242TIP3    H293195   4.165   2.887   4.508
14243TIP3   OH293196   4.858   3.182   3.791
14243TIP3    H193197   4.820   3.267   3.821
14243TIP3    H293198   4.784   3.120   3.805
14244TIP3   OH293199   3.854   2.816   4.989
14244TIP3    H193200   3.880   2.771   5.071
14244TIP3    H293201   3.797   2.752   4.943
14245TIP3   OH293202   5.024   3.304   5.001
14245TIP3    H193203   4.932   3.324   4.976
14245TIP3    H293204   5.025   3.327   5.094
14246TIP3   OH293205   5.593   2.523   3.841
14246TIP3    H193206   5.542   2.488   3.767
14246TIP3    H293207   5.602   2.617   3.812
14247TIP3   OH293208   5.590   3.096   5.117
14247TIP3    H193209   5.504   3.133   5.083
14247TIP3    H293210   5.646   3.106   5.038
14248TIP3   OH293211   5.425   3.406   3.880
14248TIP3    H193212   5.387   3.324   3.914
14248TIP3    H293213   5.453   3.385   3.789
14249TIP3   OH293214   5.144   2.886   4.591
14249TIP3    H193215   5.050   2.865   4.579
14249TIP3    H293216   5.187   2.811   4.547
14250TIP3   OH293217   4.396   3.320   4.200
14250TIP3    H193218   4.446   3.400   4.180
14250TIP3    H293219   4.308   3.343   4.168
14251TIP3   OH293220   3.969   2.807   3.654
14251TIP3    H193221   4.032   2.868   3.696
14251TIP3    H293222   3.882   2.833   3.687
14252TIP3   OH293223   4.538   3.086   4.153
14252TIP3    H193224   4.507   3.178   4.161
14252TIP3    H293225   4.465   3.037   4.197
14253TIP3   OH293226   4.582   3.505   4.791
14253TIP3    H193227   4.628   3.587   4.765
14253TIP3    H293228   4.644   3.471   4.858
14254TIP3   OH293229   4.405   3.586   4.105
14254TIP3    H193230   4.309   3.599   4.119
14254TIP3    H293231   4.441   3.669   4.141
14255TIP3   OH293232   4.936   3.105   4.753
14255TIP3    H193233   4.902   3.085   4.843
14255TIP3    H293234   5.001   3.033   4.740
14256TIP3   OH293235   5.163   3.207   3.667
14256TIP3    H193236   5.193   3.164   3.750
14256TIP3    H293237   5.067   3.194   3.674
14257TIP3   OH293238   5.208   3.563   5.008
14257TIP3    H193239   5.147   3.512   4.953
14257TIP3    H293240   5.237   3.632   4.944
14258TIP3   OH293241   5.616   3.650   3.689
14258TIP3    H193242   5.686   3.714   3.665
14258TIP3    H293243   5.544   3.710   3.719
14259TIP3   OH293244   4.023   2.290   4.939
14259TIP3    H193245   3.932   2.324   4.940
14259TIP3    H293246   4.014   2.206   4.988
14260TIP3   OH293247   5.247   3.072   3.887
14260TIP3    H193248   5.222   2.996   3.942
14260TIP3    H293249   5.341   3.081   3.909
14261TIP3   OH293250   3.986   3.467   4.785
14261TIP3    H193251   4.014   3.374   4.786
14261TIP3    H293252   4.009   3.497   4.874
14262TIP3   OH293253   4.457   3.274   3.756
14262TIP3    H193254   4.486   3.219   3.830
14262TIP3    H293255   4.468   3.366   3.790
14263TIP3   OH293256   4.108   2.999   3.804
14263TIP3    H193257   4.043   3.039   3.864
14263TIP3    H293258   4.165   3.074   3.782
14264TIP3   OH293259   4.972   2.260   4.827
14264TIP3    H193260   4.975   2.277   4.920
14264TIP3    H293261   4.889   2.205   4.830
14265TIP3   OH293262   4.969   2.224   3.950
14265TIP3    H193263   4.993   2.269   3.867
14265TIP3    H293264   5.028   2.268   4.012
14266TIP3   OH293265   4.739   3.440   3.831
14266TIP3    H193266   4.657   3.491   3.835
14266TIP3    H293267   4.793   3.490   3.767
14267TIP3   OH293268   4.693   2.398   4.028
14267TIP3    H193269   4.772   2.456   4.032
14267TIP3    H293270   4.668   2.386   4.121
14268TIP3   OH293271   4.777   2.521   4.943
14268TIP3    H193272   4.749   2.554   5.029
14268TIP3    H293273   4.794   2.425   4.954
14269TIP3   OH293274   4.778   2.104   4.119
14269TIP3    H193275   4.747   2.169   4.184
14269TIP3    H293276   4.847   2.159   4.073
14270TIP3   OH293277   4.474   3.542   3.831
14270TIP3    H193278   4.493   3.625   3.782
14270TIP3    H293279   4.452   3.577   3.920
14271TIP3   OH293280   4.345   2.213   3.793
14271TIP3    H193281   4.339   2.305   3.826
14271TIP3    H293282   4.437   2.190   3.818
14272TIP3   OH293283   5.365   2.298   5.037
14272TIP3    H193284   5.270   2.310   5.016
14272TIP3    H293285   5.398   2.281   4.947
14273TIP3   OH293286   5.227   2.665   4.435
14273TIP3    H193287   5.145   2.621   4.408
14273TIP3    H293288   5.273   2.596   4.488
14274TIP3   OH293289   4.169   3.259   3.694
14274TIP3    H193290   4.234   3.323   3.726
14274TIP3    H293291   4.220   3.214   3.625
14275TIP3   OH293292   5.334   3.592   4.600
14275TIP3    H193293   5.324   3.660   4.531
14275TIP3    H293294   5.430   3.597   4.620
14276TIP3   OH293295   4.086   2.006   4.480
14276TIP3    H193296   4.062   2.004   4.385
14276TIP3    H293297   4.043   1.921   4.507
14277TIP3   OH293298   3.979   3.396   4.097
14277TIP3    H193299   3.893   3.441   4.092
14277TIP3    H293300   4.027   3.443   4.026
14278TIP3   OH293301   5.238   3.484   3.546
14278TIP3    H193302   5.263   3.401   3.592
14278TIP3    H293303   5.314   3.502   3.490
14279TIP3   OH293304   5.134   3.023   4.989
14279TIP3    H193305   5.211   3.083   4.992
14279TIP3    H293306   5.064   3.088   5.009
14280TIP3   OH293307   4.448   2.876   3.770
14280TIP3    H193308   4.396   2.823   3.832
14280TIP3    H293309   4.477   2.809   3.704
14281TIP3   OH293310   4.368   2.656   4.996
14281TIP3    H193311   4.313   2.730   5.025
14281TIP3    H293312   4.412   2.692   4.917
14282TIP3   OH293313   4.553   2.695   3.589
14282TIP3    H193314   4.542   2.682   3.494
14282TIP3    H293315   4.650   2.706   3.599
14283TIP3   OH293316   4.407   2.393   5.104
14283TIP3    H193317   4.426   2.322   5.040
14283TIP3    H293318   4.408   2.474   5.050
14284TIP3   OH293319   4.424   2.238   4.861
14284TIP3    H193320   4.501   2.268   4.804
14284TIP3    H293321   4.349   2.221   4.805
14285TIP3   OH293322   4.609   2.779   4.883
14285TIP3    H193323   4.684   2.763   4.824
14285TIP3    H293324   4.571   2.862   4.852
14286TIP3   OH293325   4.530   1.974   4.900
14286TIP3    H193326   4.521   2.072   4.892
14286TIP3    H293327   4.454   1.939   4.851
14287TIP3   OH293328   4.537   3.766   3.691
14287TIP3    H193329   4.634   3.777   3.704
14287TIP3    H293330   4.518   3.834   3.625
14288TIP3   OH293331   3.895   3.226   3.643
14288TIP3    H193332   3.991   3.235   3.665
14288TIP3    H293333   3.896   3.165   3.569
14289TIP3   OH293334   3.766   3.764   4.143
14289TIP3    H193335   3.700   3.711   4.093
14289TIP3    H293336   3.800   3.698   4.206
14290TIP3   OH293337   3.849   3.578   4.327
14290TIP3    H193338   3.817   3.489   4.348
14290TIP3    H293339   3.874   3.610   4.416
14291TIP3   OH293340   5.607   3.654   4.623
14291TIP3    H193341   5.606   3.670   4.719
14291TIP3    H293342   5.672   3.714   4.589
14292TIP3   OH293343   5.571   3.615   4.907
14292TIP3    H193344   5.517   3.538   4.879
14292TIP3    H293345   5.615   3.571   4.983
14293TIP3   OH293346   5.541   3.019   3.925
14293TIP3    H193347   5.624   3.063   3.948
14293TIP3    H293348   5.539   2.949   3.995
14294TIP3   OH293349   5.576   2.828   4.113
14294TIP3    H193350   5.501   2.778   4.153
14294TIP3    H293351   5.635   2.842   4.189
14295TIP3   OH293352   5.550   3.096   4.609
14295TIP3    H193353   5.634   3.060   4.575
14295TIP3    H293354   5.565   3.192   4.595
14296TIP3   OH293355   5.404   3.387   4.841
14296TIP3    H193356   5.336   3.423   4.900
14296TIP3    H293357   5.350   3.347   4.769
14297TIP3   OH293358   5.608   2.813   3.750
14297TIP3    H193359   5.545   2.845   3.683
14297TIP3    H293360   5.597   2.881   3.820
14298TIP3   OH293361   5.357   2.675   4.170
14298TIP3    H193362   5.343   2.580   4.169
14298TIP3    H293363   5.325   2.698   4.259
14299TIP3   OH293364   3.858   2.884   4.577
14299TIP3    H193365   3.876   2.876   4.481
14299TIP3    H293366   3.947   2.867   4.613
14300TIP3   OH293367   5.449   2.868   5.138
14300TIP3    H193368   5.510   2.798   5.159
14300TIP3    H293369   5.502   2.950   5.135
14301TIP3   OH293370   5.367   2.274   3.515
14301TIP3    H193371   5.426   2.236   3.583
14301TIP3    H293372   5.279   2.241   3.537
14302TIP3   OH293373   5.325   2.434   4.018
14302TIP3    H193374   5.354   2.340   4.031
14302TIP3    H293375   5.404   2.473   3.979
14303TIP3   OH293376   5.389   2.490   4.558
14303TIP3    H193377   5.485   2.512   4.559
14303TIP3    H293378   5.370   2.502   4.652
14304TIP3   OH293379   5.396   2.563   4.846
14304TIP3    H193380   5.307   2.594   4.868
14304TIP3    H293381   5.439   2.647   4.815
14305TIP3   OH293382   5.391   2.162   4.021
14305TIP3    H193383   5.412   2.119   4.107
14305TIP3    H293384   5.330   2.098   3.978
14306TIP3   OH293385   3.945   2.243   4.473
14306TIP3    H193386   3.982   2.160   4.506
14306TIP3    H293387   3.990   2.313   4.521
14307TIP3   OH293388   3.768   2.543   4.581
14307TIP3    H193389   3.823   2.519   4.504
14307TIP3    H293390   3.814   2.624   4.608
14308TIP3   OH293391   5.573   2.167   3.680
14308TIP3    H193392   5.616   2.097   3.627
14308TIP3    H293393   5.644   2.234   3.679
14309TIP3   OH293394   3.804   2.170   3.987
14309TIP3    H193395   3.710   2.187   3.976
14309TIP3    H293396   3.846   2.219   3.915
14310TIP3   OH293397   5.278   3.665   4.184
14310TIP3    H193398   5.347   3.634   4.122
14310TIP3    H293399   5.331   3.714   4.249
14311TIP3   OH293400   3.800   2.038   4.816
14311TIP3    H193401   3.734   2.016   4.886
14311TIP3    H293402   3.752   2.104   4.763
14312TIP3   OH293403   4.312   3.452   4.859
14312TIP3    H193404   4.278   3.540   4.835
14312TIP3    H293405   4.406   3.464   4.834
14313TIP3   OH293406   4.748   3.591   5.157
14313TIP3    H193407   4.765   3.565   5.248
14313TIP3    H293408   4.834   3.627   5.129
14314TIP3   OH293409   4.971   3.729   5.079
14314TIP3    H193410   5.043   3.668   5.057
14314TIP3    H293411   5.011   3.763   5.162
14315TIP3   OH293412   5.480   1.987   4.985
14315TIP3    H193413   5.391   2.011   4.954
14315TIP3    H293414   5.493   1.900   4.942
14316TIP3   OH293415   4.055   3.780   4.863
14316TIP3    H193416   3.980   3.828   4.825
14316TIP3    H293417   4.023   3.762   4.952
14317TIP3   OH293418   4.302   3.738   4.769
14317TIP3    H193419   4.214   3.754   4.811
14317TIP3    H293420   4.295   3.796   4.691
14318TIP3   OH293421   4.774   3.728   4.685
14318TIP3    H193422   4.727   3.784   4.621
14318TIP3    H293423   4.786   3.791   4.760
14319TIP3   OH293424   5.004   3.609   4.784
14319TIP3    H193425   4.916   3.637   4.752
14319TIP3    H293426   5.049   3.695   4.778
14320TIP3   OH293427   5.261   3.768   4.813
14320TIP3    H193428   5.255   3.864   4.789
14320TIP3    H293429   5.280   3.730   4.725
14321TIP3   OH293430   4.001   3.644   4.557
14321TIP3    H193431   3.994   3.600   4.644
14321TIP3    H293432   4.083   3.606   4.518
14322TIP3   OH293433   4.209   3.515   4.421
14322TIP3    H193434   4.193   3.422   4.444
14322TIP3    H293435   4.295   3.530   4.467
14323TIP3   OH293436   4.469   3.564   4.510
14323TIP3    H193437   4.485   3.471   4.483
14323TIP3    H293438   4.474   3.558   4.606
14324TIP3   OH293439   4.811   2.129   4.419
14324TIP3    H193440   4.749   2.063   4.453
14324TIP3    H293441   4.869   2.075   4.365
14325TIP3   OH293442   5.328   1.934   4.430
14325TIP3    H193443   5.390   1.993   4.379
14325TIP3    H293444   5.240   1.970   4.407
14326TIP3   OH293445   5.496   2.057   4.257
14326TIP3    H193446   5.564   1.999   4.215
14326TIP3    H293447   5.546   2.141   4.268
14327TIP3   OH293448   4.052   1.991   4.209
14327TIP3    H193449   3.972   1.971   4.155
14327TIP3    H293450   4.098   1.905   4.201
14328TIP3   OH293451   3.926   1.968   3.779
14328TIP3    H193452   3.977   2.032   3.726
14328TIP3    H293453   3.872   2.025   3.836
14329TIP3   OH293454   4.498   1.988   4.189
14329TIP3    H193455   4.590   2.018   4.178
14329TIP3    H293456   4.498   1.959   4.280
14330TIP3   OH293457   5.069   1.986   4.350
14330TIP3    H193458   5.066   1.996   4.254
14330TIP3    H293459   5.030   1.897   4.364
14331TIP3   OH293460   5.198   1.989   3.915
14331TIP3    H193461   5.123   2.048   3.899
14331TIP3    H293462   5.154   1.903   3.939
14332TIP3   OH293463   3.921   3.563   3.881
14332TIP3    H193464   3.852   3.562   3.811
14332TIP3    H293465   3.922   3.658   3.898
14333TIP3   OH293466   4.111   2.153   3.635
14333TIP3    H193467   4.166   2.099   3.578
14333TIP3    H293468   4.180   2.195   3.691
14334TIP3   OH293469   4.617   2.186   3.871
14334TIP3    H193470   4.641   2.128   3.946
14334TIP3    H293471   4.621   2.272   3.919
14335TIP3   OH293472   4.804   3.695   3.712
14335TIP3    H193473   4.899   3.715   3.698
14335TIP3    H293474   4.789   3.639   3.634
14336TIP3   OH293475   5.478   3.643   3.988
14336TIP3    H193476   5.458   3.565   3.930
14336TIP3    H293477   5.469   3.717   3.924
14337TIP3   OH293478   4.022   2.009   5.130
14337TIP3    H193479   3.993   1.950   5.201
14337TIP3    H293480   4.110   2.026   5.165
14338TIP3   OH293481   4.102   3.658   3.577
14338TIP3    H193482   4.074   3.688   3.665
14338TIP3    H293483   4.181   3.606   3.594
14339TIP3   OH293484   6.850   2.906   4.191
14339TIP3    H193485   6.845   3.004   4.191
14339TIP3    H293486   6.773   2.882   4.136
14340TIP3   OH293487   6.733   2.831   4.543
14340TIP3    H193488   6.733   2.766   4.615
14340TIP3    H293489   6.697   2.780   4.468
14341TIP3   OH293490   5.974   2.795   4.696
14341TIP3    H193491   5.970   2.732   4.770
14341TIP3    H293492   6.038   2.863   4.721
14342TIP3   OH293493   7.101   3.126   4.372
14342TIP3    H193494   7.060   3.054   4.422
14342TIP3    H293495   7.103   3.196   4.439
14343TIP3   OH293496   6.060   3.244   4.548
14343TIP3    H193497   6.028   3.158   4.516
14343TIP3    H293498   6.155   3.226   4.553
14344TIP3   OH293499   5.727   2.600   4.091
14344TIP3    H193500   5.679   2.685   4.094
14344TIP3    H293501   5.665   2.544   4.041
14345TIP3   OH293502   5.793   2.822   4.313
14345TIP3    H193503   5.821   2.739   4.358
14345TIP3    H293504   5.864   2.833   4.248
14346TIP3   OH293505   6.813   3.641   4.396
14346TIP3    H193506   6.878   3.572   4.367
14346TIP3    H293507   6.792   3.608   4.483
14347TIP3   OH293508   6.567   3.067   4.592
14347TIP3    H193509   6.604   3.009   4.524
14347TIP3    H293510   6.649   3.086   4.643
14348TIP3   OH293511   7.426   2.244   4.657
14348TIP3    H193512   7.445   2.290   4.743
14348TIP3    H293513   7.501   2.279   4.607
14349TIP3   OH293514   6.888   2.517   4.623
14349TIP3    H193515   6.901   2.421   4.623
14349TIP3    H293516   6.874   2.532   4.527
14350TIP3   OH293517   6.197   2.327   4.344
14350TIP3    H193518   6.208   2.410   4.295
14350TIP3    H293519   6.158   2.269   4.275
14351TIP3   OH293520   6.972   2.335   4.181
14351TIP3    H193521   7.037   2.303   4.247
14351TIP3    H293522   7.026   2.393   4.125
14352TIP3   OH293523   5.863   2.569   4.419
14352TIP3    H193524   5.927   2.510   4.462
14352TIP3    H293525   5.871   2.538   4.327
14353TIP3   OH293526   6.374   2.722   4.352
14353TIP3    H193527   6.445   2.665   4.387
14353TIP3    H293528   6.326   2.657   4.297
14354TIP3   OH293529   7.475   2.381   4.887
14354TIP3    H193530   7.409   2.454   4.880
14354TIP3    H293531   7.476   2.366   4.983
14355TIP3   OH293532   6.090   2.217   4.745
14355TIP3    H193533   6.058   2.272   4.672
14355TIP3    H293534   6.021   2.236   4.814
14356TIP3   OH293535   6.820   3.165   4.101
14356TIP3    H193536   6.786   3.136   4.016
14356TIP3    H293537   6.787   3.257   4.107
14357TIP3   OH293538   6.335   2.979   4.773
14357TIP3    H193539   6.269   3.048   4.795
14357TIP3    H293540   6.409   3.037   4.744
14358TIP3   OH293541   7.156   2.264   4.379
14358TIP3    H193542   7.119   2.192   4.433
14358TIP3    H293543   7.189   2.323   4.447
14359TIP3   OH293544   6.045   2.403   4.551
14359TIP3    H193545   6.109   2.470   4.580
14359TIP3    H293546   6.096   2.360   4.477
14360TIP3   OH293547   6.184   3.180   4.854
14360TIP3    H193548   6.180   3.273   4.821
14360TIP3    H293549   6.095   3.176   4.897
14361TIP3   OH293550   5.793   3.141   3.929
14361TIP3    H193551   5.767   3.177   3.843
14361TIP3    H293552   5.798   3.224   3.983
14362TIP3   OH293553   7.154   3.309   4.607
14362TIP3    H193554   7.057   3.320   4.622
14362TIP3    H293555   7.181   3.401   4.590
14363TIP3   OH293556   7.183   2.140   4.750
14363TIP3    H193557   7.109   2.202   4.741
14363TIP3    H293558   7.256   2.181   4.700
14364TIP3   OH293559   6.483   1.950   4.493
14364TIP3    H193560   6.469   1.853   4.488
14364TIP3    H293561   6.396   1.980   4.525
14365TIP3   OH293562   6.980   3.487   4.267
14365TIP3    H193563   7.023   3.415   4.217
14365TIP3    H293564   7.022   3.566   4.229
14366TIP3   OH293565   7.104   3.279   4.118
14366TIP3    H193566   7.068   3.211   4.059
14366TIP3    H293567   7.103   3.232   4.204
14367TIP3   OH293568   7.265   3.139   4.969
14367TIP3    H193569   7.276   3.076   4.894
14367TIP3    H293570   7.283   3.224   4.927
14368TIP3   OH293571   6.713   2.830   3.944
14368TIP3    H193572   6.642   2.886   3.908
14368TIP3    H293573   6.781   2.838   3.876
14369TIP3   OH293574   6.720   2.683   3.652
14369TIP3    H193575   6.790   2.680   3.718
14369TIP3    H293576   6.748   2.616   3.589
14370TIP3   OH293577   7.451   2.766   4.771
14370TIP3    H193578   7.387   2.840   4.780
14370TIP3    H293579   7.500   2.796   4.692
14371TIP3   OH293580   7.058   2.850   4.034
14371TIP3    H193581   6.984   2.874   4.097
14371TIP3    H293582   7.103   2.784   4.091
14372TIP3   OH293583   7.046   2.666   4.948
14372TIP3    H193584   7.049   2.746   5.001
14372TIP3    H293585   6.985   2.697   4.878
14373TIP3   OH293586   6.218   2.915   4.228
14373TIP3    H193587   6.186   2.876   4.145
14373TIP3    H293588   6.281   2.847   4.263
14374TIP3   OH293589   6.350   3.255   4.497
14374TIP3    H193590   6.349   3.202   4.417
14374TIP3    H293591   6.428   3.218   4.543
14375TIP3   OH293592   6.255   2.787   4.603
14375TIP3    H193593   6.303   2.798   4.517
14375TIP3    H293594   6.293   2.864   4.653
14376TIP3   OH293595   6.891   3.348   4.666
14376TIP3    H193596   6.863   3.412   4.731
14376TIP3    H293597   6.868   3.262   4.709
14377TIP3   OH293598   6.342   3.228   5.070
14377TIP3    H193599   6.310   3.310   5.111
14377TIP3    H293600   6.280   3.215   4.996
14378TIP3   OH293601   6.949   2.766   3.803
14378TIP3    H193602   6.996   2.787   3.888
14378TIP3    H293603   6.976   2.825   3.734
14379TIP3   OH293604   6.041   2.850   4.977
14379TIP3    H193605   6.046   2.911   5.053
14379TIP3    H293606   5.946   2.858   4.957
14380TIP3   OH293607   6.716   3.442   4.151
14380TIP3    H193608   6.759   3.473   4.231
14380TIP3    H293609   6.659   3.517   4.127
14381TIP3   OH293610   6.165   3.435   5.139
14381TIP3    H193611   6.166   3.429   5.042
14381TIP3    H293612   6.072   3.427   5.162
14382TIP3   OH293613   7.316   1.941   3.797
14382TIP3    H193614   7.220   1.954   3.815
14382TIP3    H293615   7.338   2.025   3.753
14383TIP3   OH293616   6.119   2.816   3.981
14383TIP3    H193617   6.085   2.903   3.949
14383TIP3    H293618   6.042   2.757   3.986
14384TIP3   OH293619   7.426   3.374   3.633
14384TIP3    H193620   7.439   3.471   3.643
14384TIP3    H293621   7.520   3.349   3.623
14385TIP3   OH293622   5.730   3.061   4.873
14385TIP3    H193623   5.680   3.054   4.789
14385TIP3    H293624   5.729   2.967   4.901
14386TIP3   OH293625   5.701   3.335   4.559
14386TIP3    H193626   5.796   3.320   4.557
14386TIP3    H293627   5.692   3.415   4.611
14387TIP3   OH293628   7.531   3.405   5.073
14387TIP3    H193629   7.529   3.313   5.106
14387TIP3    H293630   7.462   3.436   5.135
14388TIP3   OH293631   6.620   3.358   5.012
14388TIP3    H193632   6.627   3.442   5.063
14388TIP3    H293633   6.532   3.324   5.037
14389TIP3   OH293634   6.663   3.733   3.991
14389TIP3    H193635   6.654   3.726   3.895
14389TIP3    H293636   6.666   3.829   4.009
14390TIP3   OH293637   6.026   3.623   4.176
14390TIP3    H193638   6.043   3.578   4.262
14390TIP3    H293639   5.943   3.579   4.149
14391TIP3   OH293640   6.965   3.653   3.689
14391TIP3    H193641   7.013   3.578   3.647
14391TIP3    H293642   6.974   3.629   3.783
14392TIP3   OH293643   6.938   3.648   3.968
14392TIP3    H193644   6.842   3.655   3.988
14392TIP3    H293645   6.963   3.575   4.026
14393TIP3   OH293646   5.954   3.187   4.975
14393TIP3    H193647   5.967   3.158   5.065
14393TIP3    H293648   5.864   3.156   4.950
14394TIP3   OH293649   6.220   2.041   4.567
14394TIP3    H193650   6.129   2.028   4.532
14394TIP3    H293651   6.208   2.123   4.617
14395TIP3   OH293652   6.683   2.012   4.908
14395TIP3    H193653   6.723   1.967   4.984
14395TIP3    H293654   6.586   1.992   4.921
14396TIP3   OH293655   6.999   2.389   4.987
14396TIP3    H193656   6.967   2.372   5.078
14396TIP3    H293657   7.000   2.486   4.976
14397TIP3   OH293658   6.645   2.266   3.639
14397TIP3    H193659   6.619   2.259   3.733
14397TIP3    H293660   6.623   2.177   3.611
14398TIP3   OH293661   6.232   2.539   4.697
14398TIP3    H193662   6.150   2.524   4.750
14398TIP3    H293663   6.222   2.622   4.644
14399TIP3   OH293664   6.225   2.554   4.178
14399TIP3    H193665   6.133   2.522   4.169
14399TIP3    H293666   6.266   2.516   4.097
14400TIP3   OH293667   6.775   2.598   4.058
14400TIP3    H193668   6.736   2.682   4.024
14400TIP3    H293669   6.845   2.581   3.992
14401TIP3   OH293670   6.885   2.547   4.343
14401TIP3    H193671   6.855   2.604   4.270
14401TIP3    H293672   6.890   2.462   4.294
14402TIP3   OH293673   6.000   2.567   4.868
14402TIP3    H193674   5.995   2.599   4.960
14402TIP3    H293675   5.953   2.481   4.880
14403TIP3   OH293676   5.659   2.274   4.261
14403TIP3    H193677   5.727   2.270   4.331
14403TIP3    H293678   5.704   2.236   4.183
14404TIP3   OH293679   5.789   2.350   3.801
14404TIP3    H193680   5.831   2.405   3.734
14404TIP3    H293681   5.716   2.408   3.830
14405TIP3   OH293682   6.804   2.706   4.803
14405TIP3    H193683   6.840   2.640   4.740
14405TIP3    H293684   6.757   2.650   4.866
14406TIP3   OH293685   6.482   2.304   4.282
14406TIP3    H193686   6.389   2.304   4.311
14406TIP3    H293687   6.531   2.288   4.364
14407TIP3   OH293688   5.966   2.462   4.163
14407TIP3    H193689   5.873   2.473   4.131
14407TIP3    H293690   5.991   2.373   4.130
14408TIP3   OH293691   6.326   2.469   3.932
14408TIP3    H193692   6.422   2.473   3.949
14408TIP3    H293693   6.308   2.531   3.861
14409TIP3   OH293694   6.924   2.227   4.606
14409TIP3    H193695   6.854   2.233   4.676
14409TIP3    H293696   6.871   2.202   4.529
14410TIP3   OH293697   6.196   2.584   3.688
14410TIP3    H193698   6.146   2.539   3.616
14410TIP3    H293699   6.281   2.600   3.643
14411TIP3   OH293700   6.609   2.580   4.472
14411TIP3    H193701   6.669   2.527   4.418
14411TIP3    H293702   6.597   2.524   4.549
14412TIP3   OH293703   6.112   2.193   4.116
14412TIP3    H193704   6.081   2.101   4.112
14412TIP3    H293705   6.190   2.189   4.059
14413TIP3   OH293706   6.476   2.413   4.711
14413TIP3    H193707   6.392   2.463   4.720
14413TIP3    H293708   6.531   2.445   4.784
14414TIP3   OH293709   6.534   3.031   3.885
14414TIP3    H193710   6.453   2.989   3.850
14414TIP3    H293711   6.512   3.047   3.979
14415TIP3   OH293712   7.253   2.952   4.763
14415TIP3    H193713   7.308   3.003   4.701
14415TIP3    H293714   7.166   2.959   4.717
14416TIP3   OH293715   6.918   2.314   3.700
14416TIP3    H193716   6.824   2.331   3.683
14416TIP3    H293717   6.949   2.401   3.731
14417TIP3   OH293718   6.683   3.063   5.001
14417TIP3    H193719   6.649   3.019   5.080
14417TIP3    H293720   6.657   3.155   5.014
14418TIP3   OH293721   6.991   2.508   3.867
14418TIP3    H193722   7.081   2.493   3.903
14418TIP3    H293723   6.998   2.588   3.813
14419TIP3   OH293724   6.045   2.975   4.463
14419TIP3    H193725   6.112   2.968   4.391
14419TIP3    H293726   6.048   2.888   4.503
14420TIP3   OH293727   6.745   3.181   3.792
14420TIP3    H193728   6.706   3.266   3.821
14420TIP3    H293729   6.669   3.121   3.805
14421TIP3   OH293730   5.745   2.815   4.986
14421TIP3    H193731   5.763   2.772   5.072
14421TIP3    H293732   5.681   2.755   4.943
14422TIP3   OH293733   6.909   3.305   5.001
14422TIP3    H193734   6.818   3.324   4.976
14422TIP3    H293735   6.911   3.327   5.094
14423TIP3   OH293736   7.474   2.524   3.842
14423TIP3    H193737   7.428   2.487   3.766
14423TIP3    H293738   7.491   2.615   3.811
14424TIP3   OH293739   7.475   3.096   5.117
14424TIP3    H193740   7.390   3.133   5.083
14424TIP3    H293741   7.531   3.105   5.038
14425TIP3   OH293742   7.309   3.405   3.879
14425TIP3    H193743   7.273   3.324   3.915
14425TIP3    H293744   7.340   3.386   3.788
14426TIP3   OH293745   7.029   2.886   4.591
14426TIP3    H193746   6.935   2.865   4.579
14426TIP3    H293747   7.072   2.811   4.547
14427TIP3   OH293748   6.281   3.320   4.201
14427TIP3    H193749   6.331   3.400   4.180
14427TIP3    H293750   6.194   3.343   4.167
14428TIP3   OH293751   5.862   2.802   3.665
14428TIP3    H193752   5.911   2.880   3.693
14428TIP3    H293753   5.769   2.830   3.682
14429TIP3   OH293754   6.423   3.087   4.153
14429TIP3    H193755   6.392   3.179   4.160
14429TIP3    H293756   6.351   3.039   4.199
14430TIP3   OH293757   6.467   3.506   4.792
14430TIP3    H193758   6.513   3.587   4.765
14430TIP3    H293759   6.529   3.471   4.858
14431TIP3   OH293760   6.291   3.586   4.105
14431TIP3    H193761   6.194   3.600   4.119
14431TIP3    H293762   6.327   3.669   4.141
14432TIP3   OH293763   6.821   3.105   4.752
14432TIP3    H193764   6.788   3.086   4.843
14432TIP3    H293765   6.886   3.034   4.740
14433TIP3   OH293766   7.050   3.194   3.666
14433TIP3    H193767   7.075   3.172   3.756
14433TIP3    H293768   6.953   3.198   3.673
14434TIP3   OH293769   7.100   3.564   5.006
14434TIP3    H193770   7.034   3.512   4.956
14434TIP3    H293771   7.120   3.633   4.940
14435TIP3   OH293772   7.502   3.650   3.690
14435TIP3    H193773   7.571   3.713   3.665
14435TIP3    H293774   7.430   3.710   3.719
14436TIP3   OH293775   5.909   2.294   4.943
14436TIP3    H193776   5.817   2.322   4.939
14436TIP3    H293777   5.901   2.207   4.987
14437TIP3   OH293778   7.136   3.069   3.887
14437TIP3    H193779   7.105   3.003   3.954
14437TIP3    H293780   7.226   3.089   3.920
14438TIP3   OH293781   5.874   3.470   4.785
14438TIP3    H193782   5.898   3.375   4.785
14438TIP3    H293783   5.894   3.495   4.876
14439TIP3   OH293784   6.341   3.272   3.757
14439TIP3    H193785   6.373   3.220   3.831
14439TIP3    H293786   6.353   3.364   3.789
14440TIP3   OH293787   5.997   2.995   3.805
14440TIP3    H193788   5.928   3.038   3.862
14440TIP3    H293789   6.049   3.074   3.781
14441TIP3   OH293790   6.779   2.265   4.836
14441TIP3    H193791   6.852   2.269   4.900
14441TIP3    H293792   6.742   2.176   4.853
14442TIP3   OH293793   6.855   2.224   3.950
14442TIP3    H193794   6.879   2.269   3.866
14442TIP3    H293795   6.914   2.267   4.012
14443TIP3   OH293796   6.625   3.440   3.830
14443TIP3    H193797   6.542   3.491   3.835
14443TIP3    H293798   6.678   3.490   3.767
14444TIP3   OH293799   6.577   2.398   4.029
14444TIP3    H193800   6.656   2.455   4.033
14444TIP3    H293801   6.552   2.384   4.122
14445TIP3   OH293802   6.640   2.506   4.942
14445TIP3    H193803   6.642   2.554   5.025
14445TIP3    H293804   6.695   2.427   4.956
14446TIP3   OH293805   6.664   2.104   4.118
14446TIP3    H193806   6.632   2.169   4.183
14446TIP3    H293807   6.733   2.159   4.073
14447TIP3   OH293808   6.360   3.542   3.831
14447TIP3    H193809   6.379   3.625   3.781
14447TIP3    H293810   6.337   3.577   3.920
14448TIP3   OH293811   6.233   2.214   3.789
14448TIP3    H193812   6.225   2.303   3.827
14448TIP3    H293813   6.322   2.189   3.818
14449TIP3   OH293814   7.252   2.295   5.037
14449TIP3    H193815   7.158   2.317   5.021
14449TIP3    H293816   7.282   2.283   4.947
14450TIP3   OH293817   7.116   2.664   4.433
14450TIP3    H193818   7.030   2.623   4.408
14450TIP3    H293819   7.159   2.597   4.488
14451TIP3   OH293820   6.056   3.255   3.697
14451TIP3    H193821   6.118   3.324   3.725
14451TIP3    H293822   6.106   3.216   3.624
14452TIP3   OH293823   7.220   3.592   4.602
14452TIP3    H193824   7.210   3.660   4.532
14452TIP3    H293825   7.316   3.597   4.618
14453TIP3   OH293826   5.969   2.004   4.482
14453TIP3    H193827   5.949   2.006   4.385
14453TIP3    H293828   5.927   1.919   4.507
14454TIP3   OH293829   5.864   3.397   4.097
14454TIP3    H193830   5.779   3.441   4.092
14454TIP3    H293831   5.912   3.442   4.026
14455TIP3   OH293832   7.124   3.482   3.547
14455TIP3    H193833   7.150   3.401   3.593
14455TIP3    H293834   7.200   3.501   3.491
14456TIP3   OH293835   7.018   3.025   4.985
14456TIP3    H193836   7.096   3.082   4.993
14456TIP3    H293837   6.948   3.088   5.009
14457TIP3   OH293838   6.323   2.873   3.765
14457TIP3    H193839   6.295   2.821   3.840
14457TIP3    H293840   6.368   2.809   3.704
14458TIP3   OH293841   6.262   2.651   5.020
14458TIP3    H193842   6.205   2.725   5.048
14458TIP3    H293843   6.330   2.688   4.960
14459TIP3   OH293844   6.437   2.696   3.591
14459TIP3    H193845   6.430   2.682   3.495
14459TIP3    H293846   6.535   2.706   3.601
14460TIP3   OH293847   6.289   2.392   5.103
14460TIP3    H193848   6.308   2.321   5.040
14460TIP3    H293849   6.294   2.475   5.052
14461TIP3   OH293850   6.337   2.233   4.860
14461TIP3    H193851   6.391   2.276   4.791
14461TIP3    H293852   6.250   2.219   4.816
14462TIP3   OH293853   6.484   2.774   4.875
14462TIP3    H193854   6.569   2.763   4.829
14462TIP3    H293855   6.463   2.866   4.854
14463TIP3   OH293856   6.419   1.979   4.898
14463TIP3    H193857   6.398   2.074   4.890
14463TIP3    H293858   6.343   1.939   4.852
14464TIP3   OH293859   6.423   3.766   3.691
14464TIP3    H193860   6.520   3.777   3.704
14464TIP3    H293861   6.404   3.834   3.625
14465TIP3   OH293862   5.782   3.223   3.646
14465TIP3    H193863   5.877   3.236   3.664
14465TIP3    H293864   5.781   3.167   3.568
14466TIP3   OH293865   5.656   3.764   4.142
14466TIP3    H193866   5.584   3.716   4.094
14466TIP3    H293867   5.684   3.696   4.206
14467TIP3   OH293868   5.738   3.576   4.328
14467TIP3    H193869   5.702   3.488   4.346
14467TIP3    H293870   5.761   3.605   4.417
14468TIP3   OH293871   7.488   3.657   4.622
14468TIP3    H193872   7.495   3.672   4.717
14468TIP3    H293873   7.562   3.712   4.590
14469TIP3   OH293874   7.454   3.605   4.904
14469TIP3    H193875   7.399   3.529   4.870
14469TIP3    H293876   7.504   3.551   4.969
14470TIP3   OH293877   7.425   3.017   3.923
14470TIP3    H193878   7.509   3.062   3.946
14470TIP3    H293879   7.426   2.950   3.996
14471TIP3   OH293880   7.460   2.830   4.112
14471TIP3    H193881   7.387   2.779   4.153
14471TIP3    H293882   7.521   2.842   4.188
14472TIP3   OH293883   7.436   3.097   4.610
14472TIP3    H193884   7.519   3.060   4.575
14472TIP3    H293885   7.451   3.192   4.595
14473TIP3   OH293886   7.289   3.389   4.840
14473TIP3    H193887   7.219   3.421   4.900
14473TIP3    H293888   7.237   3.347   4.769
14474TIP3   OH293889   7.480   2.809   3.756
14474TIP3    H193890   7.441   2.848   3.678
14474TIP3    H293891   7.490   2.883   3.820
14475TIP3   OH293892   7.244   2.675   4.170
14475TIP3    H193893   7.227   2.580   4.168
14475TIP3    H293894   7.210   2.699   4.259
14476TIP3   OH293895   5.744   2.882   4.578
14476TIP3    H193896   5.761   2.876   4.481
14476TIP3    H293897   5.834   2.867   4.612
14477TIP3   OH293898   7.334   2.870   5.139
14477TIP3    H193899   7.392   2.797   5.158
14477TIP3    H293900   7.389   2.951   5.135
14478TIP3   OH293901   7.252   2.274   3.516
14478TIP3    H193902   7.311   2.236   3.583
14478TIP3    H293903   7.164   2.241   3.538
14479TIP3   OH293904   7.212   2.436   4.021
14479TIP3    H193905   7.239   2.342   4.027
14479TIP3    H293906   7.290   2.473   3.978
14480TIP3   OH293907   7.279   2.480   4.559
14480TIP3    H193908   7.370   2.520   4.564
14480TIP3    H293909   7.253   2.503   4.651
14481TIP3   OH293910   7.279   2.562   4.835
14481TIP3    H193911   7.193   2.590   4.875
14481TIP3    H293912   7.323   2.649   4.819
14482TIP3   OH293913   7.276   2.162   4.023
14482TIP3    H193914   7.297   2.116   4.106
14482TIP3    H293915   7.216   2.100   3.975
14483TIP3   OH293916   5.825   2.243   4.478
14483TIP3    H193917   5.871   2.160   4.504
14483TIP3    H293918   5.879   2.312   4.517
14484TIP3   OH293919   5.654   2.542   4.581
14484TIP3    H193920   5.710   2.518   4.505
14484TIP3    H293921   5.698   2.624   4.607
14485TIP3   OH293922   7.459   2.167   3.681
14485TIP3    H193923   7.501   2.097   3.628
14485TIP3    H293924   7.529   2.234   3.678
14486TIP3   OH293925   5.690   2.170   3.987
14486TIP3    H193926   5.596   2.187   3.976
14486TIP3    H293927   5.732   2.219   3.915
14487TIP3   OH293928   7.164   3.665   4.184
14487TIP3    H193929   7.232   3.634   4.122
14487TIP3    H293930   7.216   3.714   4.249
14488TIP3   OH293931   5.685   2.039   4.817
14488TIP3    H193932   5.619   2.016   4.886
14488TIP3    H293933   5.637   2.105   4.764
14489TIP3   OH293934   6.197   3.452   4.858
14489TIP3    H193935   6.165   3.540   4.836
14489TIP3    H293936   6.292   3.463   4.834
14490TIP3   OH293937   6.633   3.591   5.157
14490TIP3    H193938   6.651   3.565   5.249
14490TIP3    H293939   6.719   3.627   5.129
14491TIP3   OH293940   6.855   3.728   5.080
14491TIP3    H193941   6.927   3.669   5.057
14491TIP3    H293942   6.895   3.763   5.162
14492TIP3   OH293943   7.365   1.988   4.985
14492TIP3    H193944   7.276   2.012   4.956
14492TIP3    H293945   7.378   1.901   4.942
14493TIP3   OH293946   5.936   3.778   4.858
14493TIP3    H193947   5.860   3.834   4.841
14493TIP3    H293948   5.915   3.759   4.952
14494TIP3   OH293949   6.185   3.736   4.767
14494TIP3    H193950   6.101   3.754   4.814
14494TIP3    H293951   6.185   3.797   4.691
14495TIP3   OH293952   6.659   3.728   4.685
14495TIP3    H193953   6.613   3.784   4.621
14495TIP3    H293954   6.672   3.790   4.760
14496TIP3   OH293955   6.889   3.609   4.784
14496TIP3    H193956   6.802   3.637   4.752
14496TIP3    H293957   6.934   3.695   4.778
14497TIP3   OH293958   7.151   3.766   4.813
14497TIP3    H193959   7.138   3.862   4.789
14497TIP3    H293960   7.166   3.732   4.723
14498TIP3   OH293961   5.888   3.635   4.558
14498TIP3    H193962   5.883   3.583   4.642
14498TIP3    H293963   5.969   3.598   4.515
14499TIP3   OH293964   6.093   3.517   4.425
14499TIP3    H193965   6.078   3.422   4.443
14499TIP3    H293966   6.182   3.529   4.466
14500TIP3   OH293967   6.352   3.563   4.510
14500TIP3    H193968   6.371   3.472   4.482
14500TIP3    H293969   6.361   3.557   4.606
14501TIP3   OH293970   6.701   2.128   4.424
14501TIP3    H193971   6.633   2.064   4.451
14501TIP3    H293972   6.756   2.075   4.364
14502TIP3   OH293973   7.216   1.929   4.423
14502TIP3    H193974   7.275   1.994   4.378
14502TIP3    H293975   7.126   1.968   4.408
14503TIP3   OH293976   7.384   2.057   4.261
14503TIP3    H193977   7.449   1.999   4.214
14503TIP3    H293978   7.435   2.140   4.261
14504TIP3   OH293979   5.937   1.991   4.209
14504TIP3    H193980   5.858   1.971   4.155
14504TIP3    H293981   5.984   1.905   4.202
14505TIP3   OH293982   5.812   1.968   3.779
14505TIP3    H193983   5.863   2.031   3.725
14505TIP3    H293984   5.757   2.025   3.836
14506TIP3   OH293985   6.385   1.984   4.186
14506TIP3    H193986   6.475   2.020   4.179
14506TIP3    H293987   6.381   1.962   4.279
14507TIP3   OH293988   6.963   1.983   4.348
14507TIP3    H193989   6.948   1.997   4.253
14507TIP3    H293990   6.917   1.897   4.362
14508TIP3   OH293991   7.084   1.988   3.918
14508TIP3    H193992   7.010   2.048   3.900
14508TIP3    H293993   7.038   1.903   3.937
14509TIP3   OH293994   5.807   3.562   3.881
14509TIP3    H193995   5.739   3.562   3.811
14509TIP3    H293996   5.809   3.657   3.898
14510TIP3   OH293997   5.996   2.153   3.634
14510TIP3    H193998   6.052   2.099   3.578
14510TIP3    H293999   6.064   2.193   3.692
14511TIP3   OH294000   6.502   2.186   3.872
14511TIP3    H194001   6.527   2.128   3.946
14511TIP3    H294002   6.507   2.272   3.919
14512TIP3   OH294003   6.690   3.695   3.713
14512TIP3    H194004   6.784   3.715   3.699
14512TIP3    H294005   6.674   3.639   3.635
14513TIP3   OH294006   7.363   3.643   3.987
14513TIP3    H194007   7.343   3.565   3.930
14513TIP3    H294008   7.355   3.716   3.924
14514TIP3   OH294009   5.907   2.008   5.130
14514TIP3    H194010   5.879   1.950   5.202
14514TIP3    H294011   5.995   2.026   5.164
14515TIP3   OH294012   5.988   3.658   3.578
14515TIP3    H194013   5.960   3.688   3.665
14515TIP3    H294014   6.067   3.606   3.595
14516TIP3   OH294015   7.853   2.799   4.700
14516TIP3    H194016   7.862   2.729   4.768
14516TIP3    H294017   7.928   2.857   4.721
14517TIP3   OH294018   7.944   3.239   4.554
14517TIP3    H194019   7.914   3.154   4.517
14517TIP3    H294020   8.041   3.225   4.557
14518TIP3   OH294021   7.608   2.597   4.097
14518TIP3    H194022   7.569   2.687   4.092
14518TIP3    H294023   7.551   2.547   4.037
14519TIP3   OH294024   7.685   2.823   4.312
14519TIP3    H194025   7.710   2.742   4.359
14519TIP3    H294026   7.756   2.830   4.247
14520TIP3   OH294027   8.040   2.338   4.366
14520TIP3    H194028   8.084   2.412   4.317
14520TIP3    H294029   8.038   2.272   4.298
14521TIP3   OH294030   7.745   2.564   4.417
14521TIP3    H194031   7.818   2.516   4.462
14521TIP3    H294032   7.756   2.536   4.326
14522TIP3   OH294033   7.971   2.213   4.747
14522TIP3    H194034   7.944   2.273   4.674
14522TIP3    H294035   7.905   2.239   4.814
14523TIP3   OH294036   7.921   2.411   4.572
14523TIP3    H194037   7.993   2.476   4.585
14523TIP3    H294038   7.967   2.369   4.494
14524TIP3   OH294039   8.051   3.190   4.844
14524TIP3    H194040   8.057   3.285   4.825
14524TIP3    H294041   7.970   3.186   4.899
14525TIP3   OH294042   7.675   3.142   3.931
14525TIP3    H194043   7.655   3.178   3.842
14525TIP3    H294044   7.682   3.225   3.984
14526TIP3   OH294045   8.083   2.918   4.229
14526TIP3    H194046   8.070   2.883   4.139
14526TIP3    H294047   8.157   2.863   4.264
14527TIP3   OH294048   7.923   2.850   4.986
14527TIP3    H194049   7.929   2.918   5.053
14527TIP3    H294050   7.832   2.858   4.955
14528TIP3   OH294051   8.048   3.443   5.139
14528TIP3    H194052   8.053   3.424   5.043
14528TIP3    H294053   7.957   3.423   5.163
14529TIP3   OH294054   8.002   2.815   3.990
14529TIP3    H194055   7.976   2.896   3.941
14529TIP3    H294056   7.929   2.757   3.968
14530TIP3   OH294057   7.611   3.060   4.874
14530TIP3    H194058   7.566   3.053   4.788
14530TIP3    H294059   7.615   2.966   4.900
14531TIP3   OH294060   7.589   3.334   4.557
14531TIP3    H194061   7.685   3.324   4.557
14531TIP3    H294062   7.579   3.416   4.608
14532TIP3   OH294063   7.910   3.621   4.174
14532TIP3    H194064   7.928   3.579   4.261
14532TIP3    H294065   7.827   3.576   4.151
14533TIP3   OH294066   7.831   3.193   4.980
14533TIP3    H194067   7.857   3.155   5.064
14533TIP3    H294068   7.748   3.150   4.951
14534TIP3   OH294069   8.101   2.039   4.569
14534TIP3    H194070   8.012   2.031   4.528
14534TIP3    H294071   8.094   2.128   4.608
14535TIP3   OH294072   8.110   2.551   4.761
14535TIP3    H194073   8.017   2.528   4.774
14535TIP3    H294074   8.099   2.604   4.679
14536TIP3   OH294075   8.083   2.529   4.210
14536TIP3    H194076   7.992   2.521   4.174
14536TIP3    H294077   8.143   2.530   4.138
14537TIP3   OH294078   7.874   2.569   4.870
14537TIP3    H194079   7.882   2.605   4.959
14537TIP3    H294080   7.838   2.479   4.884
14538TIP3   OH294081   7.541   2.272   4.266
14538TIP3    H194082   7.617   2.270   4.329
14538TIP3    H294083   7.587   2.240   4.185
14539TIP3   OH294084   7.678   2.351   3.804
14539TIP3    H194085   7.716   2.405   3.734
14539TIP3    H294086   7.604   2.409   3.830
14540TIP3   OH294087   7.842   2.457   4.165
14540TIP3    H194088   7.754   2.473   4.127
14540TIP3    H294089   7.872   2.370   4.134
14541TIP3   OH294090   8.088   2.568   3.692
14541TIP3    H194091   8.026   2.550   3.619
14541TIP3    H294092   8.162   2.605   3.642
14542TIP3   OH294093   7.975   2.194   4.106
14542TIP3    H194094   7.951   2.100   4.120
14542TIP3    H294095   8.070   2.184   4.090
14543TIP3   OH294096   7.929   2.972   4.460
14543TIP3    H194097   8.001   2.966   4.394
14543TIP3    H294098   7.937   2.887   4.508
14544TIP3   OH294099   7.625   2.817   4.989
14544TIP3    H194100   7.652   2.772   5.070
14544TIP3    H294101   7.567   2.753   4.944
14545TIP3   OH294102   7.739   2.809   3.652
14545TIP3    H194103   7.802   2.868   3.696
14545TIP3    H294104   7.654   2.834   3.687
14546TIP3   OH294105   7.795   2.292   4.945
14546TIP3    H194106   7.704   2.323   4.938
14546TIP3    H294107   7.784   2.205   4.988
14547TIP3   OH294108   7.756   3.469   4.787
14547TIP3    H194109   7.783   3.376   4.786
14547TIP3    H294110   7.786   3.497   4.875
14548TIP3   OH294111   7.880   2.999   3.803
14548TIP3    H194112   7.813   3.039   3.863
14548TIP3    H294113   7.933   3.076   3.782
14549TIP3   OH294114  -0.048   2.210   3.771
14549TIP3    H194115  -0.047   2.299   3.806
14549TIP3    H294116   0.045   2.183   3.785
14550TIP3   OH294117   7.943   3.253   3.696
14550TIP3    H194118   8.003   3.323   3.725
14550TIP3    H294119   7.993   3.215   3.624
14551TIP3   OH294120   7.852   2.006   4.480
14551TIP3    H194121   7.835   2.006   4.384
14551TIP3    H294122   7.816   1.919   4.509
14552TIP3   OH294123   7.749   3.397   4.095
14552TIP3    H194124   7.664   3.443   4.090
14552TIP3    H294125   7.800   3.444   4.028
14553TIP3   OH294126   7.667   3.223   3.646
14553TIP3    H194127   7.763   3.235   3.665
14553TIP3    H294128   7.670   3.167   3.568
14554TIP3   OH294129   7.542   3.763   4.140
14554TIP3    H194130   7.469   3.715   4.094
14554TIP3    H294131   7.571   3.698   4.206
14555TIP3   OH294132   7.625   3.576   4.328
14555TIP3    H194133   7.590   3.489   4.348
14555TIP3    H294134   7.648   3.610   4.416
14556TIP3   OH294135   7.628   2.882   4.576
14556TIP3    H194136   7.649   2.876   4.480
14556TIP3    H294137   7.717   2.866   4.613
14557TIP3   OH294138   7.708   2.243   4.481
14557TIP3    H194139   7.762   2.162   4.498
14557TIP3    H294140   7.768   2.312   4.515
14558TIP3   OH294141   7.539   2.543   4.578
14558TIP3    H194142   7.603   2.522   4.506
14558TIP3    H294143   7.585   2.622   4.610
14559TIP3   OH294144   7.576   2.173   3.990
14559TIP3    H194145   7.482   2.187   3.972
14559TIP3    H294146   7.619   2.218   3.915
14560TIP3   OH294147   7.573   2.038   4.817
14560TIP3    H194148   7.508   2.014   4.887
14560TIP3    H294149   7.523   2.103   4.765
14561TIP3   OH294150   8.089   3.455   4.864
14561TIP3    H194151   8.050   3.540   4.837
14561TIP3    H294152   8.181   3.467   4.834
14562TIP3   OH294153   7.828   3.780   4.863
14562TIP3    H194154   7.754   3.828   4.822
14562TIP3    H294155   7.796   3.762   4.952
14563TIP3   OH294156   8.058   3.714   4.752
14563TIP3    H194157   7.984   3.747   4.808
14563TIP3    H294158   8.070   3.792   4.693
14564TIP3   OH294159   7.767   3.644   4.559
14564TIP3    H194160   7.768   3.599   4.646
14564TIP3    H294161   7.850   3.610   4.519
14565TIP3   OH294162   7.980   3.516   4.425
14565TIP3    H194163   7.962   3.422   4.445
14565TIP3    H294164   8.065   3.528   4.469
14566TIP3   OH294165   7.820   1.991   4.210
14566TIP3    H194166   7.744   1.970   4.153
14566TIP3    H294167   7.870   1.907   4.206
14567TIP3   OH294168   7.695   1.968   3.779
14567TIP3    H194169   7.749   2.031   3.727
14567TIP3    H294170   7.642   2.026   3.835
14568TIP3   OH294171   7.691   3.563   3.881
14568TIP3    H194172   7.624   3.562   3.810
14568TIP3    H294173   7.692   3.657   3.899
14569TIP3   OH294174   7.882   2.154   3.636
14569TIP3    H194175   7.935   2.104   3.573
14569TIP3    H294176   7.953   2.191   3.691
14570TIP3   OH294177   7.796   2.008   5.129
14570TIP3    H194178   7.765   1.951   5.200
14570TIP3    H294179   7.882   2.028   5.167
14571TIP3   OH294180   7.873   3.659   3.576
14571TIP3    H194181   7.846   3.689   3.664
14571TIP3    H294182   7.952   3.607   3.592
14572TIP3   OH294183   1.190   4.791   4.194
14572TIP3    H194184   1.189   4.889   4.189
14572TIP3    H294185   1.117   4.767   4.134
14573TIP3   OH294186   1.075   4.716   4.543
14573TIP3    H194187   1.075   4.651   4.614
14573TIP3    H294188   1.041   4.666   4.467
14574TIP3   OH294189   0.313   4.680   4.693
14574TIP3    H194190   0.317   4.616   4.767
14574TIP3    H294191   0.382   4.743   4.720
14575TIP3   OH294192   1.444   5.011   4.372
14575TIP3    H194193   1.402   4.940   4.421
14575TIP3    H294194   1.446   5.082   4.439
14576TIP3   OH294195   0.402   5.129   4.547
14576TIP3    H194196   0.371   5.041   4.517
14576TIP3    H294197   0.497   5.109   4.554
14577TIP3   OH294198   0.098   4.515   4.041
14577TIP3    H194199   0.041   4.579   4.088
14577TIP3    H294200   0.032   4.450   4.021
14578TIP3   OH294201   0.156   4.703   4.318
14578TIP3    H194202   0.172   4.616   4.361
14578TIP3    H294203   0.220   4.710   4.246
14579TIP3   OH294204   1.156   5.527   4.396
14579TIP3    H194205   1.221   5.457   4.367
14579TIP3    H294206   1.135   5.494   4.483
14580TIP3   OH294207   0.912   4.956   4.590
14580TIP3    H194208   0.947   4.893   4.525
14580TIP3    H294209   0.993   4.972   4.643
14581TIP3   OH294210   1.771   4.124   4.665
14581TIP3    H194211   1.791   4.181   4.741
14581TIP3    H294212   1.831   4.163   4.599
14582TIP3   OH294213   1.227   4.402   4.624
14582TIP3    H194214   1.247   4.307   4.622
14582TIP3    H294215   1.219   4.417   4.527
14583TIP3   OH294216   0.541   4.212   4.343
14583TIP3    H194217   0.552   4.296   4.295
14583TIP3    H294218   0.502   4.155   4.274
14584TIP3   OH294219   1.315   4.220   4.181
14584TIP3    H194220   1.380   4.189   4.248
14584TIP3    H294221   1.371   4.277   4.126
14585TIP3   OH294222   0.223   4.454   4.411
14585TIP3    H194223   0.278   4.391   4.460
14585TIP3    H294224   0.218   4.416   4.323
14586TIP3   OH294225   0.719   4.609   4.349
14586TIP3    H194226   0.786   4.550   4.389
14586TIP3    H294227   0.668   4.543   4.298
14587TIP3   OH294228   1.822   4.270   4.890
14587TIP3    H194229   1.752   4.338   4.878
14587TIP3    H294230   1.818   4.251   4.984
14588TIP3   OH294231   0.433   4.103   4.747
14588TIP3    H194232   0.401   4.158   4.672
14588TIP3    H294233   0.362   4.121   4.813
14589TIP3   OH294234   1.161   5.050   4.103
14589TIP3    H194235   1.131   5.022   4.015
14589TIP3    H294236   1.130   5.143   4.107
14590TIP3   OH294237   0.685   4.866   4.775
14590TIP3    H194238   0.613   4.930   4.795
14590TIP3    H294239   0.754   4.926   4.743
14591TIP3   OH294240   1.492   4.155   4.381
14591TIP3    H194241   1.475   4.077   4.434
14591TIP3    H294242   1.564   4.197   4.432
14592TIP3   OH294243   0.387   4.286   4.551
14592TIP3    H194244   0.448   4.356   4.582
14592TIP3    H294245   0.440   4.245   4.478
14593TIP3   OH294246   0.525   5.066   4.854
14593TIP3    H194247   0.523   5.158   4.821
14593TIP3    H294248   0.436   5.060   4.895
14594TIP3   OH294249   0.136   5.030   3.933
14594TIP3    H194250   0.112   5.057   3.843
14594TIP3    H294251   0.142   5.114   3.983
14595TIP3   OH294252   1.497   5.194   4.607
14595TIP3    H194253   1.400   5.206   4.621
14595TIP3    H294254   1.524   5.287   4.590
14596TIP3   OH294255   1.528   4.027   4.752
14596TIP3    H194256   1.455   4.088   4.737
14596TIP3    H294257   1.600   4.065   4.697
14597TIP3   OH294258   0.826   3.834   4.492
14597TIP3    H194259   0.813   3.738   4.488
14597TIP3    H294260   0.739   3.865   4.525
14598TIP3   OH294261   1.323   5.373   4.268
14598TIP3    H194262   1.366   5.301   4.217
14598TIP3    H294263   1.366   5.452   4.229
14599TIP3   OH294264   1.444   5.166   4.119
14599TIP3    H194265   1.414   5.097   4.058
14599TIP3    H294266   1.447   5.117   4.203
14600TIP3   OH294267   1.609   5.025   4.969
14600TIP3    H194268   1.619   4.962   4.894
14600TIP3    H294269   1.627   5.111   4.926
14601TIP3   OH294270   1.055   4.715   3.943
14601TIP3    H194271   0.984   4.772   3.906
14601TIP3    H294272   1.125   4.724   3.877
14602TIP3   OH294273   1.061   4.567   3.653
14602TIP3    H194274   1.135   4.568   3.717
14602TIP3    H294275   1.093   4.503   3.589
14603TIP3   OH294276   1.795   4.656   4.775
14603TIP3    H194277   1.729   4.728   4.779
14603TIP3    H294278   1.843   4.677   4.692
14604TIP3   OH294279   1.399   4.734   4.037
14604TIP3    H194280   1.326   4.760   4.098
14604TIP3    H294281   1.447   4.669   4.092
14605TIP3   OH294282   1.389   4.551   4.948
14605TIP3    H194283   1.393   4.631   5.001
14605TIP3    H294284   1.328   4.582   4.878
14606TIP3   OH294285   0.561   4.802   4.230
14606TIP3    H194286   0.527   4.763   4.146
14606TIP3    H294287   0.622   4.732   4.262
14607TIP3   OH294288   0.693   5.140   4.497
14607TIP3    H194289   0.692   5.087   4.417
14607TIP3    H294290   0.771   5.104   4.543
14608TIP3   OH294291   0.596   4.673   4.598
14608TIP3    H194292   0.649   4.686   4.516
14608TIP3    H294293   0.630   4.745   4.655
14609TIP3   OH294294   1.235   5.233   4.666
14609TIP3    H194295   1.206   5.298   4.731
14609TIP3    H294296   1.210   5.147   4.709
14610TIP3   OH294297   0.686   5.116   5.070
14610TIP3    H194298   0.652   5.198   5.111
14610TIP3    H294299   0.624   5.100   4.996
14611TIP3   OH294300   1.289   4.653   3.804
14611TIP3    H194301   1.341   4.673   3.886
14611TIP3    H294302   1.326   4.710   3.736
14612TIP3   OH294303   0.382   4.736   4.986
14612TIP3    H194304   0.386   4.804   5.053
14612TIP3    H294305   0.290   4.747   4.955
14613TIP3   OH294306   1.059   5.328   4.151
14613TIP3    H194307   1.102   5.358   4.231
14613TIP3    H294308   1.002   5.402   4.127
14614TIP3   OH294309   0.509   5.324   5.139
14614TIP3    H194310   0.510   5.315   5.042
14614TIP3    H294311   0.416   5.310   5.161
14615TIP3   OH294312   1.658   3.826   3.792
14615TIP3    H194313   1.564   3.841   3.818
14615TIP3    H294314   1.682   3.913   3.755
14616TIP3   OH294315   0.458   4.704   3.990
14616TIP3    H194316   0.430   4.782   3.939
14616TIP3    H294317   0.391   4.638   3.969
14617TIP3   OH294318   1.770   5.263   3.633
14617TIP3    H194319   1.784   5.359   3.643
14617TIP3    H294320   1.863   5.234   3.623
14618TIP3   OH294321   0.109   4.922   4.862
14618TIP3    H194322   0.032   4.943   4.804
14618TIP3    H294323   0.072   4.843   4.904
14619TIP3   OH294324   0.047   5.227   4.552
14619TIP3    H194325   0.141   5.202   4.559
14619TIP3    H294326   0.036   5.299   4.614
14620TIP3   OH294327   1.874   5.288   5.072
14620TIP3    H194328   1.868   5.198   5.108
14620TIP3    H294329   1.807   5.326   5.132
14621TIP3   OH294330   0.963   5.244   5.012
14621TIP3    H194331   0.970   5.328   5.063
14621TIP3    H294332   0.875   5.210   5.036
14622TIP3   OH294333   1.006   5.618   3.991
14622TIP3    H194334   0.998   5.612   3.895
14622TIP3    H294335   1.010   5.714   4.009
14623TIP3   OH294336   0.371   5.505   4.173
14623TIP3    H194337   0.384   5.465   4.262
14623TIP3    H294338   0.285   5.466   4.150
14624TIP3   OH294339   1.308   5.539   3.689
14624TIP3    H194340   1.357   5.463   3.648
14624TIP3    H294341   1.317   5.515   3.783
14625TIP3   OH294342   1.281   5.534   3.969
14625TIP3    H194343   1.185   5.540   3.988
14625TIP3    H294344   1.307   5.460   4.026
14626TIP3   OH294345   0.292   5.081   4.979
14626TIP3    H194346   0.310   5.041   5.064
14626TIP3    H294347   0.209   5.038   4.947
14627TIP3   OH294348   0.565   3.926   4.567
14627TIP3    H194349   0.474   3.914   4.532
14627TIP3    H294350   0.552   4.009   4.617
14628TIP3   OH294351   1.027   3.895   4.907
14628TIP3    H194352   1.066   3.852   4.985
14628TIP3    H294353   0.930   3.879   4.921
14629TIP3   OH294354   1.343   4.275   4.988
14629TIP3    H194355   1.312   4.258   5.079
14629TIP3    H294356   1.345   4.371   4.976
14630TIP3   OH294357   0.988   4.152   3.639
14630TIP3    H194358   0.962   4.144   3.733
14630TIP3    H294359   0.965   4.063   3.611
14631TIP3   OH294360   0.573   4.423   4.696
14631TIP3    H194361   0.496   4.421   4.757
14631TIP3    H294362   0.566   4.513   4.655
14632TIP3   OH294363   0.570   4.436   4.183
14632TIP3    H194364   0.476   4.410   4.168
14632TIP3    H294365   0.608   4.406   4.098
14633TIP3   OH294366   1.122   4.484   4.057
14633TIP3    H194367   1.081   4.567   4.024
14633TIP3    H294368   1.190   4.468   3.990
14634TIP3   OH294369   1.225   4.433   4.343
14634TIP3    H194370   1.197   4.490   4.268
14634TIP3    H294371   1.235   4.348   4.295
14635TIP3   OH294372   0.338   4.450   4.866
14635TIP3    H194373   0.339   4.489   4.955
14635TIP3    H294374   0.292   4.366   4.883
14636TIP3   OH294375   0.082   4.170   4.210
14636TIP3    H194376   0.072   4.150   4.307
14636TIP3    H294377   0.072   4.082   4.168
14637TIP3   OH294378   0.146   4.254   3.815
14637TIP3    H194379   0.183   4.296   3.736
14637TIP3    H294380   0.065   4.305   3.825
14638TIP3   OH294381   1.146   4.591   4.803
14638TIP3    H194382   1.184   4.527   4.739
14638TIP3    H294383   1.100   4.536   4.866
14639TIP3   OH294384   0.825   4.190   4.283
14639TIP3    H194385   0.732   4.190   4.311
14639TIP3    H294386   0.874   4.174   4.365
14640TIP3   OH294387   0.310   4.347   4.163
14640TIP3    H194388   0.220   4.359   4.128
14640TIP3    H294389   0.333   4.258   4.129
14641TIP3   OH294390   0.670   4.352   3.931
14641TIP3    H194391   0.765   4.362   3.948
14641TIP3    H294392   0.646   4.418   3.864
14642TIP3   OH294393   1.266   4.113   4.608
14642TIP3    H194394   1.196   4.119   4.677
14642TIP3    H294395   1.216   4.089   4.528
14643TIP3   OH294396   0.543   4.464   3.691
14643TIP3    H194397   0.487   4.433   3.618
14643TIP3    H294398   0.623   4.491   3.644
14644TIP3   OH294399   0.953   4.465   4.470
14644TIP3    H194400   1.013   4.412   4.417
14644TIP3    H294401   0.940   4.410   4.548
14645TIP3   OH294402   0.451   4.081   4.114
14645TIP3    H194403   0.422   3.988   4.113
14645TIP3    H294404   0.532   4.075   4.061
14646TIP3   OH294405   0.818   4.297   4.712
14646TIP3    H194406   0.735   4.349   4.717
14646TIP3    H294407   0.875   4.333   4.783
14647TIP3   OH294408   0.877   4.918   3.885
14647TIP3    H194409   0.797   4.874   3.850
14647TIP3    H294410   0.854   4.932   3.979
14648TIP3   OH294411   1.596   4.837   4.763
14648TIP3    H194412   1.651   4.888   4.701
14648TIP3    H294413   1.509   4.845   4.717
14649TIP3   OH294414   1.262   4.201   3.700
14649TIP3    H194415   1.168   4.216   3.683
14649TIP3    H294416   1.292   4.288   3.732
14650TIP3   OH294417   1.024   4.946   5.001
14650TIP3    H194418   0.992   4.906   5.081
14650TIP3    H294419   1.002   5.040   5.013
14651TIP3   OH294420   1.334   4.393   3.867
14651TIP3    H194421   1.424   4.380   3.903
14651TIP3    H294422   1.342   4.474   3.814
14652TIP3   OH294423   0.388   4.861   4.464
14652TIP3    H194424   0.455   4.852   4.393
14652TIP3    H294425   0.393   4.774   4.508
14653TIP3   OH294426   1.087   5.068   3.791
14653TIP3    H194427   1.049   5.153   3.821
14653TIP3    H294428   1.012   5.006   3.805
14654TIP3   OH294429   0.085   4.697   4.986
14654TIP3    H194430   0.106   4.656   5.071
14654TIP3    H294431   0.022   4.635   4.945
14655TIP3   OH294432   1.252   5.190   5.001
14655TIP3    H194433   1.161   5.210   4.976
14655TIP3    H294434   1.254   5.213   5.094
14656TIP3   OH294435   1.819   4.409   3.841
14656TIP3    H194436   1.770   4.374   3.765
14656TIP3    H294437   1.832   4.502   3.812
14657TIP3   OH294438   1.818   4.982   5.117
14657TIP3    H194439   1.733   5.018   5.083
14657TIP3    H294440   1.874   4.992   5.038
14658TIP3   OH294441   1.654   5.291   3.880
14658TIP3    H194442   1.615   5.209   3.914
14658TIP3    H294443   1.682   5.271   3.789
14659TIP3   OH294444   1.372   4.772   4.591
14659TIP3    H194445   1.279   4.751   4.578
14659TIP3    H294446   1.416   4.697   4.547
14660TIP3   OH294447   0.625   5.205   4.200
14660TIP3    H194448   0.675   5.286   4.180
14660TIP3    H294449   0.537   5.229   4.168
14661TIP3   OH294450   0.192   4.687   3.660
14661TIP3    H194451   0.259   4.750   3.693
14661TIP3    H294452   0.110   4.725   3.688
14662TIP3   OH294453   0.766   4.971   4.153
14662TIP3    H194454   0.735   5.064   4.160
14662TIP3    H294455   0.693   4.923   4.197
14663TIP3   OH294456   0.810   5.391   4.791
14663TIP3    H194457   0.856   5.472   4.765
14663TIP3    H294458   0.872   5.356   4.858
14664TIP3   OH294459   0.634   5.470   4.105
14664TIP3    H194460   0.538   5.484   4.119
14664TIP3    H294461   0.670   5.553   4.142
14665TIP3   OH294462   1.165   4.991   4.752
14665TIP3    H194463   1.132   4.972   4.842
14665TIP3    H294464   1.230   4.919   4.740
14666TIP3   OH294465   1.392   5.092   3.667
14666TIP3    H194466   1.423   5.049   3.749
14666TIP3    H294467   1.296   5.080   3.675
14667TIP3   OH294468   1.437   5.449   5.008
14667TIP3    H194469   1.376   5.397   4.953
14667TIP3    H294470   1.465   5.517   4.944
14668TIP3   OH294471   1.844   5.536   3.690
14668TIP3    H194472   1.912   5.600   3.664
14668TIP3    H294473   1.772   5.596   3.719
14669TIP3   OH294474   0.253   4.178   4.943
14669TIP3    H194475   0.162   4.210   4.940
14669TIP3    H294476   0.242   4.091   4.986
14670TIP3   OH294477   1.476   4.958   3.887
14670TIP3    H194478   1.451   4.881   3.942
14670TIP3    H294479   1.570   4.967   3.909
14671TIP3   OH294480   0.212   5.351   4.787
14671TIP3    H194481   0.242   5.259   4.787
14671TIP3    H294482   0.243   5.383   4.874
14672TIP3   OH294483   0.685   5.160   3.756
14672TIP3    H194484   0.714   5.105   3.830
14672TIP3    H294485   0.697   5.251   3.790
14673TIP3   OH294486   0.335   4.885   3.803
14673TIP3    H194487   0.269   4.923   3.865
14673TIP3    H294488   0.393   4.960   3.783
14674TIP3   OH294489   1.118   4.153   4.841
14674TIP3    H194490   1.198   4.153   4.897
14674TIP3    H294491   1.087   4.061   4.852
14675TIP3   OH294492   1.198   4.109   3.950
14675TIP3    H194493   1.222   4.155   3.866
14675TIP3    H294494   1.257   4.153   4.012
14676TIP3   OH294495   0.968   5.326   3.831
14676TIP3    H194496   0.885   5.377   3.835
14676TIP3    H294497   1.021   5.375   3.767
14677TIP3   OH294498   0.921   4.283   4.029
14677TIP3    H194499   1.000   4.341   4.033
14677TIP3    H294500   0.895   4.270   4.122
14678TIP3   OH294501   0.970   4.385   4.954
14678TIP3    H194502   0.999   4.445   5.022
14678TIP3    H294503   1.038   4.314   4.952
14679TIP3   OH294504   1.007   3.989   4.118
14679TIP3    H194505   0.975   4.054   4.183
14679TIP3    H294506   1.076   4.044   4.073
14680TIP3   OH294507   0.703   5.428   3.831
14680TIP3    H194508   0.722   5.511   3.781
14680TIP3    H294509   0.680   5.463   3.920
14681TIP3   OH294510   0.574   4.098   3.793
14681TIP3    H194511   0.568   4.190   3.825
14681TIP3    H294512   0.665   4.075   3.818
14682TIP3   OH294513   1.595   4.179   5.037
14682TIP3    H194514   1.501   4.202   5.021
14682TIP3    H294515   1.625   4.169   4.945
14683TIP3   OH294516   1.456   4.551   4.435
14683TIP3    H194517   1.374   4.507   4.406
14683TIP3    H294518   1.504   4.482   4.486
14684TIP3   OH294519   0.398   5.146   3.693
14684TIP3    H194520   0.463   5.208   3.726
14684TIP3    H294521   0.449   5.099   3.626
14685TIP3   OH294522   1.563   5.477   4.600
14685TIP3    H194523   1.554   5.546   4.532
14685TIP3    H294524   1.659   5.483   4.620
14686TIP3   OH294525   0.316   3.887   4.479
14686TIP3    H194526   0.290   3.891   4.385
14686TIP3    H294527   0.267   3.808   4.507
14687TIP3   OH294528   0.209   5.281   4.098
14687TIP3    H194529   0.123   5.324   4.093
14687TIP3    H294530   0.255   5.329   4.028
14688TIP3   OH294531   1.467   5.369   3.547
14688TIP3    H194532   1.492   5.287   3.593
14688TIP3    H294533   1.543   5.387   3.491
14689TIP3   OH294534   1.361   4.910   4.986
14689TIP3    H194535   1.440   4.968   4.993
14689TIP3    H294536   1.292   4.973   5.009
14690TIP3   OH294537   0.677   4.762   3.770
14690TIP3    H194538   0.625   4.709   3.832
14690TIP3    H294539   0.705   4.694   3.704
14691TIP3   OH294540   0.594   4.547   4.992
14691TIP3    H194541   0.535   4.620   5.021
14691TIP3    H294542   0.630   4.586   4.910
14692TIP3   OH294543   0.780   4.581   3.589
14692TIP3    H194544   0.771   4.567   3.494
14692TIP3    H294545   0.878   4.592   3.599
14693TIP3   OH294546   0.632   4.271   5.103
14693TIP3    H194547   0.646   4.197   5.041
14693TIP3    H294548   0.609   4.344   5.043
14694TIP3   OH294549   0.680   4.123   4.863
14694TIP3    H194550   0.733   4.161   4.789
14694TIP3    H294551   0.594   4.106   4.817
14695TIP3   OH294552   0.837   4.660   4.886
14695TIP3    H194553   0.912   4.650   4.825
14695TIP3    H294554   0.800   4.746   4.854
14696TIP3   OH294555   0.763   3.864   4.898
14696TIP3    H194556   0.742   3.959   4.889
14696TIP3    H294557   0.686   3.825   4.852
14697TIP3   OH294558   0.766   5.656   3.694
14697TIP3    H194559   0.863   5.661   3.703
14697TIP3    H294560   0.748   5.718   3.623
14698TIP3   OH294561   0.126   5.109   3.642
14698TIP3    H194562   0.220   5.121   3.665
14698TIP3    H294563   0.133   5.048   3.568
14699TIP3   OH294564   8.144   5.654   4.135
14699TIP3    H194565   8.067   5.607   4.099
14699TIP3    H294566   8.169   5.592   4.207
14700TIP3   OH294567   0.084   5.465   4.324
14700TIP3    H194568   0.048   5.376   4.342
14700TIP3    H294569   0.109   5.498   4.413
14701TIP3   OH294570   1.835   5.541   4.622
14701TIP3    H194571   1.837   5.558   4.718
14701TIP3    H294572   1.906   5.599   4.592
14702TIP3   OH294573   1.795   5.501   4.909
14702TIP3    H194574   1.746   5.423   4.878
14702TIP3    H294575   1.845   5.458   4.982
14703TIP3   OH294576   1.770   4.904   3.925
14703TIP3    H194577   1.854   4.947   3.947
14703TIP3    H294578   1.767   4.835   3.995
14704TIP3   OH294579   1.803   4.715   4.113
14704TIP3    H194580   1.731   4.663   4.154
14704TIP3    H294581   1.865   4.726   4.189
14705TIP3   OH294582   1.778   4.982   4.609
14705TIP3    H194583   1.862   4.946   4.575
14705TIP3    H294584   1.794   5.078   4.596
14706TIP3   OH294585   1.632   5.274   4.840
14706TIP3    H194586   1.565   5.309   4.900
14706TIP3    H294587   1.579   5.233   4.769
14707TIP3   OH294588   1.831   4.696   3.752
14707TIP3    H194589   1.775   4.731   3.683
14707TIP3    H294590   1.827   4.767   3.819
14708TIP3   OH294591   1.586   4.561   4.170
14708TIP3    H194592   1.572   4.465   4.168
14708TIP3    H294593   1.554   4.583   4.259
14709TIP3   OH294594   0.086   4.767   4.575
14709TIP3    H194595   0.105   4.762   4.479
14709TIP3    H294596   0.174   4.755   4.615
14710TIP3   OH294597   1.677   4.755   5.139
14710TIP3    H194598   1.736   4.683   5.159
14710TIP3    H294599   1.732   4.836   5.135
14711TIP3   OH294600   1.596   4.160   3.517
14711TIP3    H194601   1.655   4.121   3.583
14711TIP3    H294602   1.508   4.126   3.538
14712TIP3   OH294603   1.554   4.320   4.017
14712TIP3    H194604   1.585   4.227   4.032
14712TIP3    H294605   1.634   4.359   3.981
14713TIP3   OH294606   1.614   4.375   4.560
14713TIP3    H194607   1.711   4.396   4.559
14713TIP3    H294608   1.598   4.387   4.655
14714TIP3   OH294609   1.624   4.448   4.840
14714TIP3    H194610   1.536   4.476   4.874
14714TIP3    H294611   1.666   4.534   4.817
14715TIP3   OH294612   1.620   4.048   4.022
14715TIP3    H194613   1.643   4.005   4.107
14715TIP3    H294614   1.560   3.984   3.978
14716TIP3   OH294615   0.166   4.127   4.476
14716TIP3    H194616   0.214   4.047   4.505
14716TIP3    H294617   0.219   4.197   4.516
14717TIP3   OH294618  -0.004   4.453   4.519
14717TIP3    H194619   0.069   4.398   4.487
14717TIP3    H294620   0.049   4.502   4.585
14718TIP3   OH294621   1.802   4.053   3.679
14718TIP3    H194622   1.845   3.983   3.628
14718TIP3    H294623   1.874   4.119   3.680
14719TIP3   OH294624   0.051   4.044   3.988
14719TIP3    H194625  -0.043   4.060   3.965
14719TIP3    H294626   0.093   4.106   3.928
14720TIP3   OH294627   1.506   5.552   4.183
14720TIP3    H194628   1.575   5.520   4.122
14720TIP3    H294629   1.559   5.600   4.249
14721TIP3   OH294630   8.180   3.941   4.830
14721TIP3    H194631   8.112   3.900   4.885
14721TIP3    H294632   8.124   3.991   4.769
14722TIP3   OH294633   0.540   5.339   4.860
14722TIP3    H194634   0.506   5.426   4.834
14722TIP3    H294635   0.634   5.350   4.834
14723TIP3   OH294636   0.976   5.477   5.157
14723TIP3    H194637   0.994   5.451   5.248
14723TIP3    H294638   1.062   5.513   5.129
14724TIP3   OH294639   1.200   5.615   5.079
14724TIP3    H194640   1.271   5.553   5.057
14724TIP3    H294641   1.240   5.648   5.162
14725TIP3   OH294642   1.707   3.873   4.986
14725TIP3    H194643   1.619   3.898   4.955
14725TIP3    H294644   1.722   3.787   4.941
14726TIP3   OH294645   0.286   5.667   4.864
14726TIP3    H194646   0.212   5.713   4.822
14726TIP3    H294647   0.248   5.646   4.951
14727TIP3   OH294648   0.531   5.624   4.769
14727TIP3    H194649   0.442   5.639   4.811
14727TIP3    H294650   0.524   5.681   4.691
14728TIP3   OH294651   1.003   5.613   4.685
14728TIP3    H194652   0.956   5.669   4.621
14728TIP3    H294653   1.015   5.676   4.759
14729TIP3   OH294654   1.232   5.494   4.784
14729TIP3    H194655   1.145   5.522   4.752
14729TIP3    H294656   1.278   5.580   4.778
14730TIP3   OH294657   1.490   5.654   4.813
14730TIP3    H194658   1.483   5.749   4.789
14730TIP3    H294659   1.511   5.616   4.725
14731TIP3   OH294660   0.228   5.527   4.556
14731TIP3    H194661   0.227   5.486   4.644
14731TIP3    H294662   0.312   5.494   4.517
14732TIP3   OH294663   0.436   5.401   4.423
14732TIP3    H194664   0.421   5.306   4.444
14732TIP3    H294665   0.522   5.416   4.467
14733TIP3   OH294666   0.697   5.449   4.509
14733TIP3    H194667   0.714   5.357   4.483
14733TIP3    H294668   0.703   5.443   4.606
14734TIP3   OH294669   1.044   4.014   4.423
14734TIP3    H194670   0.976   3.950   4.451
14734TIP3    H294671   1.099   3.961   4.365
14735TIP3   OH294672   1.556   3.819   4.430
14735TIP3    H194673   1.618   3.878   4.379
14735TIP3    H294674   1.468   3.855   4.406
14736TIP3   OH294675   1.719   3.936   4.258
14736TIP3    H194676   1.793   3.886   4.217
14736TIP3    H294677   1.770   4.022   4.268
14737TIP3   OH294678   0.280   3.875   4.208
14737TIP3    H194679   0.199   3.855   4.157
14737TIP3    H294680   0.329   3.791   4.201
14738TIP3   OH294681   0.162   3.851   3.786
14738TIP3    H194682   0.205   3.914   3.725
14738TIP3    H294683   0.098   3.904   3.833
14739TIP3   OH294684   0.729   3.869   4.186
14739TIP3    H194685   0.819   3.905   4.180
14739TIP3    H294686   0.724   3.847   4.279
14740TIP3   OH294687   1.299   3.871   4.349
14740TIP3    H194688   1.295   3.882   4.254
14740TIP3    H294689   1.261   3.780   4.362
14741TIP3   OH294690   1.427   3.875   3.915
14741TIP3    H194691   1.352   3.934   3.899
14741TIP3    H294692   1.385   3.790   3.938
14742TIP3   OH294693   0.147   5.449   3.885
14742TIP3    H194694   0.086   5.448   3.810
14742TIP3    H294695   0.155   5.544   3.897
14743TIP3   OH294696   0.339   4.042   3.634
14743TIP3    H194697   0.392   3.985   3.578
14743TIP3    H294698   0.410   4.079   3.690
14744TIP3   OH294699   0.846   4.071   3.871
14744TIP3    H194700   0.869   4.013   3.946
14744TIP3    H294701   0.850   4.158   3.919
14745TIP3   OH294702   1.033   5.581   3.712
14745TIP3    H194703   1.127   5.601   3.699
14745TIP3    H294704   1.017   5.525   3.635
14746TIP3   OH294705   1.707   5.529   3.988
14746TIP3    H194706   1.687   5.451   3.930
14746TIP3    H294707   1.698   5.602   3.924
14747TIP3   OH294708   0.253   3.896   5.127
14747TIP3    H194709   0.221   3.837   5.197
14747TIP3    H294710   0.339   3.912   5.165
14748TIP3   OH294711   0.331   5.542   3.578
14748TIP3    H194712   0.304   5.574   3.665
14748TIP3    H294713   0.410   5.492   3.595
14749TIP3   OH294714   3.076   4.792   4.194
14749TIP3    H194715   3.074   4.889   4.190
14749TIP3    H294716   3.003   4.767   4.134
14750TIP3   OH294717   2.962   4.716   4.543
14750TIP3    H194718   2.960   4.651   4.615
14750TIP3    H294719   2.926   4.667   4.468
14751TIP3   OH294720   2.195   4.688   4.703
14751TIP3    H194721   2.206   4.615   4.768
14751TIP3    H294722   2.273   4.742   4.721
14752TIP3   OH294723   3.330   5.011   4.372
14752TIP3    H194724   3.288   4.940   4.421
14752TIP3    H294725   3.332   5.082   4.439
14753TIP3   OH294726   2.289   5.128   4.548
14753TIP3    H194727   2.257   5.040   4.517
14753TIP3    H294728   2.384   5.109   4.555
14754TIP3   OH294729   1.954   4.484   4.095
14754TIP3    H194730   1.910   4.571   4.095
14754TIP3    H294731   1.896   4.431   4.040
14755TIP3   OH294732   2.017   4.715   4.306
14755TIP3    H194733   2.049   4.635   4.356
14755TIP3    H294734   2.093   4.719   4.246
14756TIP3   OH294735   3.039   5.526   4.394
14756TIP3    H194736   3.106   5.458   4.367
14756TIP3    H294737   3.020   5.494   4.483
14757TIP3   OH294738   2.798   4.956   4.590
14757TIP3    H194739   2.833   4.893   4.525
14757TIP3    H294740   2.879   4.972   4.643
14758TIP3   OH294741   3.659   4.122   4.665
14758TIP3    H194742   3.676   4.180   4.742
14758TIP3    H294743   3.715   4.165   4.599
14759TIP3   OH294744   3.113   4.402   4.623
14759TIP3    H194745   3.132   4.307   4.622
14759TIP3    H294746   3.104   4.417   4.527
14760TIP3   OH294747   2.406   4.206   4.374
14760TIP3    H194748   2.437   4.281   4.320
14760TIP3    H294749   2.390   4.151   4.295
14761TIP3   OH294750   3.204   4.214   4.178
14761TIP3    H194751   3.266   4.193   4.250
14761TIP3    H294752   3.255   4.280   4.127
14762TIP3   OH294753   2.159   4.529   4.411
14762TIP3    H194754   2.161   4.444   4.461
14762TIP3    H294755   2.110   4.472   4.344
14763TIP3   OH294756   2.605   4.609   4.350
14763TIP3    H194757   2.671   4.549   4.388
14763TIP3    H294758   2.551   4.545   4.298
14764TIP3   OH294759   3.707   4.270   4.890
14764TIP3    H194760   3.638   4.338   4.878
14764TIP3    H294761   3.703   4.252   4.985
14765TIP3   OH294762   2.319   4.100   4.746
14765TIP3    H194763   2.289   4.158   4.673
14765TIP3    H294764   2.250   4.124   4.812
14766TIP3   OH294765   3.046   5.051   4.103
14766TIP3    H194766   3.017   5.022   4.015
14766TIP3    H294767   3.016   5.144   4.107
14767TIP3   OH294768   2.567   4.866   4.772
14767TIP3    H194769   2.498   4.931   4.795
14767TIP3    H294770   2.639   4.925   4.744
14768TIP3   OH294771   3.384   4.149   4.377
14768TIP3    H194772   3.357   4.080   4.438
14768TIP3    H294773   3.446   4.200   4.434
14769TIP3   OH294774   2.275   4.291   4.569
14769TIP3    H194775   2.341   4.361   4.583
14769TIP3    H294776   2.314   4.251   4.486
14770TIP3   OH294777   2.413   5.068   4.855
14770TIP3    H194778   2.408   5.159   4.821
14770TIP3    H294779   2.324   5.060   4.897
14771TIP3   OH294780   2.019   5.027   3.931
14771TIP3    H194781   1.997   5.062   3.842
14771TIP3    H294782   2.026   5.109   3.983
14772TIP3   OH294783   3.382   5.194   4.607
14772TIP3    H194784   3.286   5.206   4.622
14772TIP3    H294785   3.410   5.287   4.590
14773TIP3   OH294786   3.414   4.026   4.752
14773TIP3    H194787   3.340   4.087   4.738
14773TIP3    H294788   3.486   4.066   4.699
14774TIP3   OH294789   2.711   3.835   4.493
14774TIP3    H194790   2.697   3.738   4.488
14774TIP3    H294791   2.624   3.866   4.524
14775TIP3   OH294792   3.208   5.373   4.268
14775TIP3    H194793   3.251   5.301   4.217
14775TIP3    H294794   3.251   5.452   4.229
14776TIP3   OH294795   3.330   5.166   4.119
14776TIP3    H194796   3.300   5.097   4.058
14776TIP3    H294797   3.332   5.117   4.203
14777TIP3   OH294798   3.495   5.025   4.968
14777TIP3    H194799   3.504   4.962   4.894
14777TIP3    H294800   3.512   5.111   4.927
14778TIP3   OH294801   2.942   4.715   3.943
14778TIP3    H194802   2.870   4.771   3.907
14778TIP3    H294803   3.012   4.725   3.877
14779TIP3   OH294804   2.947   4.567   3.653
14779TIP3    H194805   3.020   4.568   3.717
14779TIP3    H294806   2.978   4.502   3.590
14780TIP3   OH294807   3.680   4.654   4.772
14780TIP3    H194808   3.615   4.727   4.779
14780TIP3    H294809   3.729   4.680   4.692
14781TIP3   OH294810   3.285   4.733   4.037
14781TIP3    H194811   3.212   4.760   4.098
14781TIP3    H294812   3.333   4.668   4.092
14782TIP3   OH294813   3.275   4.551   4.948
14782TIP3    H194814   3.278   4.631   5.002
14782TIP3    H294815   3.214   4.582   4.878
14783TIP3   OH294816   2.447   4.801   4.228
14783TIP3    H194817   2.415   4.762   4.143
14783TIP3    H294818   2.507   4.730   4.262
14784TIP3   OH294819   2.579   5.141   4.497
14784TIP3    H194820   2.578   5.087   4.417
14784TIP3    H294821   2.657   5.104   4.543
14785TIP3   OH294822   2.481   4.676   4.596
14785TIP3    H194823   2.535   4.688   4.516
14785TIP3    H294824   2.519   4.743   4.657
14786TIP3   OH294825   3.121   5.233   4.666
14786TIP3    H194826   3.091   5.297   4.731
14786TIP3    H294827   3.096   5.147   4.709
14787TIP3   OH294828   2.571   5.115   5.070
14787TIP3    H194829   2.537   5.197   5.111
14787TIP3    H294830   2.509   5.099   4.996
14788TIP3   OH294831   3.175   4.652   3.804
14788TIP3    H194832   3.227   4.673   3.886
14788TIP3    H294833   3.212   4.710   3.736
14789TIP3   OH294834   2.267   4.737   4.982
14789TIP3    H194835   2.273   4.799   5.055
14789TIP3    H294836   2.175   4.745   4.954
14790TIP3   OH294837   2.945   5.327   4.152
14790TIP3    H194838   2.988   5.358   4.232
14790TIP3    H294839   2.890   5.402   4.128
14791TIP3   OH294840   2.394   5.321   5.139
14791TIP3    H194841   2.395   5.314   5.042
14791TIP3    H294842   2.300   5.313   5.161
14792TIP3   OH294843   3.544   3.830   3.799
14792TIP3    H194844   3.447   3.840   3.812
14792TIP3    H294845   3.568   3.911   3.750
14793TIP3   OH294846   2.343   4.707   3.989
14793TIP3    H194847   2.313   4.783   3.937
14793TIP3    H294848   2.280   4.637   3.968
14794TIP3   OH294849   3.655   5.263   3.632
14794TIP3    H194850   3.669   5.359   3.643
14794TIP3    H294851   3.748   5.234   3.623
14795TIP3   OH294852   1.957   4.947   4.875
14795TIP3    H194853   1.909   4.939   4.790
14795TIP3    H294854   1.959   4.852   4.900
14796TIP3   OH294855   1.929   5.220   4.558
14796TIP3    H194856   2.025   5.209   4.556
14796TIP3    H294857   1.921   5.301   4.610
14797TIP3   OH294858   3.760   5.288   5.072
14797TIP3    H194859   3.754   5.198   5.108
14797TIP3    H294860   3.693   5.326   5.132
14798TIP3   OH294861   2.848   5.243   5.012
14798TIP3    H194862   2.855   5.328   5.063
14798TIP3    H294863   2.760   5.210   5.036
14799TIP3   OH294864   2.888   5.619   3.990
14799TIP3    H194865   2.887   5.613   3.894
14799TIP3    H294866   2.897   5.715   4.009
14800TIP3   OH294867   2.259   5.504   4.172
14800TIP3    H194868   2.271   5.467   4.263
14800TIP3    H294869   2.171   5.467   4.153
14801TIP3   OH294870   3.193   5.538   3.689
14801TIP3    H194871   3.241   5.463   3.646
14801TIP3    H294872   3.203   5.515   3.783
14802TIP3   OH294873   3.167   5.534   3.969
14802TIP3    H194874   3.072   5.540   3.988
14802TIP3    H294875   3.192   5.460   4.026
14803TIP3   OH294876   2.182   5.076   4.977
14803TIP3    H194877   2.198   5.041   5.064
14803TIP3    H294878   2.094   5.040   4.950
14804TIP3   OH294879   2.452   3.923   4.573
14804TIP3    H194880   2.362   3.912   4.532
14804TIP3    H294881   2.438   4.009   4.615
14805TIP3   OH294882   2.912   3.895   4.908
14805TIP3    H194883   2.952   3.852   4.985
14805TIP3    H294884   2.815   3.879   4.921
14806TIP3   OH294885   3.228   4.275   4.988
14806TIP3    H194886   3.196   4.258   5.078
14806TIP3    H294887   3.229   4.371   4.976
14807TIP3   OH294888   2.875   4.152   3.640
14807TIP3    H194889   2.846   4.145   3.733
14807TIP3    H294890   2.851   4.063   3.612
14808TIP3   OH294891   2.462   4.425   4.697
14808TIP3    H194892   2.384   4.420   4.756
14808TIP3    H294893   2.453   4.515   4.658
14809TIP3   OH294894   2.444   4.475   4.170
14809TIP3    H194895   2.363   4.419   4.173
14809TIP3    H294896   2.492   4.412   4.111
14810TIP3   OH294897   3.011   4.485   4.059
14810TIP3    H194898   2.966   4.566   4.024
14810TIP3    H294899   3.077   4.467   3.990
14811TIP3   OH294900   3.111   4.434   4.342
14811TIP3    H194901   3.083   4.490   4.268
14811TIP3    H294902   3.119   4.349   4.296
14812TIP3   OH294903   2.220   4.454   4.868
14812TIP3    H194904   2.231   4.486   4.958
14812TIP3    H294905   2.181   4.365   4.879
14813TIP3   OH294906   1.869   4.133   4.242
14813TIP3    H194907   1.930   4.159   4.316
14813TIP3    H294908   1.936   4.119   4.175
14814TIP3   OH294909   2.014   4.234   3.798
14814TIP3    H194910   2.062   4.291   3.736
14814TIP3    H294911   1.947   4.296   3.831
14815TIP3   OH294912   3.035   4.592   4.803
14815TIP3    H194913   3.069   4.525   4.740
14815TIP3    H294914   2.983   4.537   4.866
14816TIP3   OH294915   2.743   4.184   4.300
14816TIP3    H194916   2.643   4.189   4.298
14816TIP3    H294917   2.765   4.173   4.391
14817TIP3   OH294918   2.201   4.352   4.150
14817TIP3    H194919   2.104   4.358   4.135
14817TIP3    H294920   2.223   4.260   4.128
14818TIP3   OH294921   2.571   4.352   3.885
14818TIP3    H194922   2.644   4.365   3.949
14818TIP3    H294923   2.533   4.436   3.858
14819TIP3   OH294924   3.153   4.112   4.605
14819TIP3    H194925   3.083   4.119   4.675
14819TIP3    H294926   3.099   4.089   4.528
14820TIP3   OH294927   2.422   4.471   3.688
14820TIP3    H194928   2.372   4.430   3.617
14820TIP3    H294929   2.508   4.488   3.646
14821TIP3   OH294930   2.841   4.467   4.473
14821TIP3    H194931   2.897   4.411   4.417
14821TIP3    H294932   2.824   4.409   4.549
14822TIP3   OH294933   2.300   4.052   4.084
14822TIP3    H194934   2.309   3.963   4.116
14822TIP3    H294935   2.395   4.078   4.072
14823TIP3   OH294936   2.704   4.298   4.711
14823TIP3    H194937   2.620   4.349   4.719
14823TIP3    H294938   2.758   4.333   4.784
14824TIP3   OH294939   2.763   4.919   3.886
14824TIP3    H194940   2.683   4.873   3.850
14824TIP3    H294941   2.739   4.929   3.980
14825TIP3   OH294942   3.482   4.837   4.763
14825TIP3    H194943   3.537   4.888   4.701
14825TIP3    H294944   3.395   4.845   4.717
14826TIP3   OH294945   3.148   4.199   3.702
14826TIP3    H194946   3.054   4.216   3.684
14826TIP3    H294947   3.179   4.287   3.732
14827TIP3   OH294948   2.912   4.949   5.001
14827TIP3    H194949   2.877   4.905   5.079
14827TIP3    H294950   2.887   5.041   5.014
14828TIP3   OH294951   3.221   4.392   3.867
14828TIP3    H194952   3.311   4.381   3.903
14828TIP3    H294953   3.227   4.473   3.815
14829TIP3   OH294954   2.273   4.858   4.463
14829TIP3    H194955   2.341   4.851   4.393
14829TIP3    H294956   2.277   4.770   4.504
14830TIP3   OH294957   2.973   5.068   3.791
14830TIP3    H194958   2.934   5.153   3.822
14830TIP3    H294959   2.898   5.006   3.805
14831TIP3   OH294960   1.968   4.702   4.989
14831TIP3    H194961   1.994   4.657   5.071
14831TIP3    H294962   1.911   4.638   4.943
14832TIP3   OH294963   3.138   5.190   5.001
14832TIP3    H194964   3.046   5.210   4.976
14832TIP3    H294965   3.139   5.213   5.094
14833TIP3   OH294966   3.705   4.409   3.842
14833TIP3    H194967   3.656   4.374   3.766
14833TIP3    H294968   3.718   4.502   3.812
14834TIP3   OH294969   3.704   4.982   5.116
14834TIP3    H194970   3.618   5.019   5.082
14834TIP3    H294971   3.760   4.992   5.038
14835TIP3   OH294972   3.539   5.291   3.880
14835TIP3    H194973   3.501   5.209   3.914
14835TIP3    H294974   3.568   5.270   3.789
14836TIP3   OH294975   3.258   4.772   4.590
14836TIP3    H194976   3.164   4.751   4.579
14836TIP3    H294977   3.302   4.696   4.547
14837TIP3   OH294978   2.509   5.205   4.199
14837TIP3    H194979   2.561   5.284   4.182
14837TIP3    H294980   2.420   5.227   4.169
14838TIP3   OH294981   2.084   4.693   3.653
14838TIP3    H194982   2.146   4.754   3.696
14838TIP3    H294983   1.997   4.719   3.687
14839TIP3   OH294984   2.653   4.971   4.154
14839TIP3    H194985   2.622   5.063   4.162
14839TIP3    H294986   2.580   4.922   4.197
14840TIP3   OH294987   2.697   5.391   4.791
14840TIP3    H194988   2.742   5.472   4.765
14840TIP3    H294989   2.758   5.356   4.858
14841TIP3   OH294990   2.516   5.479   4.094
14841TIP3    H194991   2.425   5.481   4.133
14841TIP3    H294992   2.558   5.552   4.145
14842TIP3   OH294993   3.050   4.990   4.753
14842TIP3    H194994   3.017   4.972   4.843
14842TIP3    H294995   3.115   4.919   4.740
14843TIP3   OH294996   3.278   5.092   3.667
14843TIP3    H194997   3.309   5.050   3.749
14843TIP3    H294998   3.182   5.079   3.674
14844TIP3   OH294999   3.323   5.449   5.008
14844TIP3    H195000   3.262   5.397   4.953
14844TIP3    H295001   3.351   5.517   4.944
14845TIP3   OH295002   3.730   5.536   3.690
14845TIP3    H195003   3.800   5.599   3.665
14845TIP3    H295004   3.658   5.596   3.719
14846TIP3   OH295005   2.139   4.177   4.944
14846TIP3    H195006   2.047   4.209   4.938
14846TIP3    H295007   2.129   4.091   4.987
14847TIP3   OH295008   3.361   4.958   3.887
14847TIP3    H195009   3.336   4.881   3.942
14847TIP3    H295010   3.456   4.967   3.909
14848TIP3   OH295011   2.100   5.352   4.785
14848TIP3    H195012   2.128   5.260   4.786
14848TIP3    H295013   2.123   5.382   4.874
14849TIP3   OH295014   2.567   5.160   3.758
14849TIP3    H195015   2.601   5.103   3.828
14849TIP3    H295016   2.587   5.250   3.790
14850TIP3   OH295017   2.221   4.885   3.801
14850TIP3    H195018   2.157   4.925   3.864
14850TIP3    H295019   2.280   4.960   3.781
14851TIP3   OH295020   3.008   4.150   4.837
14851TIP3    H195021   3.081   4.154   4.900
14851TIP3    H295022   2.971   4.062   4.853
14852TIP3   OH295023   3.090   4.105   3.949
14852TIP3    H195024   3.106   4.155   3.866
14852TIP3    H295025   3.141   4.158   4.012
14853TIP3   OH295026   2.854   5.326   3.831
14853TIP3    H195027   2.773   5.377   3.834
14853TIP3    H295028   2.909   5.374   3.767
14854TIP3   OH295029   2.814   4.282   4.027
14854TIP3    H195030   2.888   4.343   4.035
14854TIP3    H295031   2.776   4.270   4.117
14855TIP3   OH295032   2.872   4.391   4.942
14855TIP3    H195033   2.868   4.441   5.024
14855TIP3    H295034   2.924   4.312   4.959
14856TIP3   OH295035   2.898   3.988   4.123
14856TIP3    H195036   2.856   4.055   4.180
14856TIP3    H295037   2.958   4.047   4.072
14857TIP3   OH295038   2.593   5.426   3.829
14857TIP3    H195039   2.620   5.506   3.777
14857TIP3    H295040   2.594   5.454   3.922
14858TIP3   OH295041   2.463   4.099   3.788
14858TIP3    H195042   2.454   4.188   3.829
14858TIP3    H295043   2.550   4.076   3.822
14859TIP3   OH295044   3.480   4.178   5.035
14859TIP3    H195045   3.387   4.203   5.021
14859TIP3    H295046   3.510   4.169   4.943
14860TIP3   OH295047   3.342   4.552   4.434
14860TIP3    H195048   3.260   4.507   4.407
14860TIP3    H295049   3.390   4.483   4.486
14861TIP3   OH295050   2.284   5.146   3.693
14861TIP3    H195051   2.352   5.205   3.725
14861TIP3    H295052   2.333   5.098   3.625
14862TIP3   OH295053   3.448   5.477   4.599
14862TIP3    H195054   3.439   5.546   4.532
14862TIP3    H295055   3.544   5.483   4.620
14863TIP3   OH295056   2.214   3.873   4.477
14863TIP3    H195057   2.179   3.891   4.386
14863TIP3    H295058   2.153   3.804   4.507
14864TIP3   OH295059   2.094   5.284   4.097
14864TIP3    H195060   2.007   5.326   4.093
14864TIP3    H295061   2.139   5.328   4.025
14865TIP3   OH295062   3.353   5.369   3.547
14865TIP3    H195063   3.378   5.286   3.593
14865TIP3    H295064   3.429   5.387   3.491
14866TIP3   OH295065   3.247   4.911   4.985
14866TIP3    H195066   3.326   4.968   4.994
14866TIP3    H295067   3.178   4.973   5.009
14867TIP3   OH295068   2.563   4.761   3.771
14867TIP3    H195069   2.511   4.707   3.832
14867TIP3    H295070   2.591   4.694   3.704
14868TIP3   OH295071   2.485   4.540   4.995
14868TIP3    H195072   2.428   4.613   5.024
14868TIP3    H295073   2.526   4.578   4.916
14869TIP3   OH295074   2.667   4.581   3.589
14869TIP3    H195075   2.657   4.567   3.494
14869TIP3    H295076   2.765   4.592   3.600
14870TIP3   OH295077   2.522   4.280   5.105
14870TIP3    H195078   2.536   4.209   5.040
14870TIP3    H295079   2.522   4.361   5.051
14871TIP3   OH295080   2.566   4.115   4.859
14871TIP3    H195081   2.618   4.165   4.791
14871TIP3    H295082   2.478   4.107   4.815
14872TIP3   OH295083   2.723   4.664   4.883
14872TIP3    H195084   2.799   4.649   4.824
14872TIP3    H295085   2.685   4.747   4.852
14873TIP3   OH295086   2.649   3.864   4.898
14873TIP3    H195087   2.627   3.959   4.889
14873TIP3    H295088   2.573   3.824   4.852
14874TIP3   OH295089   2.649   5.653   3.693
14874TIP3    H195090   2.747   5.662   3.703
14874TIP3    H295091   2.634   5.719   3.624
14875TIP3   OH295092   2.009   5.111   3.644
14875TIP3    H195093   2.104   5.118   3.665
14875TIP3    H295094   2.011   5.051   3.569
14876TIP3   OH295095   1.886   5.648   4.140
14876TIP3    H195096   1.813   5.601   4.094
14876TIP3    H295097   1.911   5.583   4.208
14877TIP3   OH295098   1.967   5.462   4.328
14877TIP3    H195099   1.931   5.374   4.348
14877TIP3    H295100   1.989   5.495   4.417
14878TIP3   OH295101   3.720   5.541   4.622
14878TIP3    H195102   3.723   5.558   4.718
14878TIP3    H295103   3.791   5.599   4.592
14879TIP3   OH295104   3.681   5.501   4.909
14879TIP3    H195105   3.632   5.423   4.878
14879TIP3    H295106   3.731   5.458   4.982
14880TIP3   OH295107   3.656   4.904   3.925
14880TIP3    H195108   3.740   4.947   3.947
14880TIP3    H295109   3.653   4.835   3.995
14881TIP3   OH295110   3.690   4.713   4.113
14881TIP3    H195111   3.615   4.664   4.153
14881TIP3    H295112   3.750   4.728   4.189
14882TIP3   OH295113   3.664   4.982   4.609
14882TIP3    H195114   3.748   4.945   4.575
14882TIP3    H295115   3.680   5.078   4.595
14883TIP3   OH295116   3.518   5.274   4.840
14883TIP3    H195117   3.451   5.309   4.900
14883TIP3    H295118   3.465   5.233   4.769
14884TIP3   OH295119   3.717   4.696   3.752
14884TIP3    H195120   3.661   4.731   3.682
14884TIP3    H295121   3.713   4.767   3.819
14885TIP3   OH295122   3.472   4.562   4.170
14885TIP3    H195123   3.457   4.467   4.169
14885TIP3    H295124   3.439   4.584   4.259
14886TIP3   OH295125   1.973   4.774   4.576
14886TIP3    H195126   1.991   4.759   4.481
14886TIP3    H295127   2.061   4.750   4.612
14887TIP3   OH295128   3.562   4.754   5.135
14887TIP3    H195129   3.620   4.683   5.160
14887TIP3    H295130   3.617   4.835   5.136
14888TIP3   OH295131   3.482   4.159   3.516
14888TIP3    H195132   3.540   4.121   3.583
14888TIP3    H295133   3.393   4.127   3.538
14889TIP3   OH295134   3.439   4.320   4.019
14889TIP3    H195135   3.471   4.228   4.028
14889TIP3    H295136   3.517   4.361   3.979
14890TIP3   OH295137   3.502   4.374   4.560
14890TIP3    H195138   3.598   4.397   4.559
14890TIP3    H295139   3.484   4.388   4.654
14891TIP3   OH295140   3.509   4.448   4.840
14891TIP3    H195141   3.421   4.476   4.874
14891TIP3    H295142   3.552   4.534   4.817
14892TIP3   OH295143   3.508   4.058   4.012
14892TIP3    H195144   3.546   4.020   4.094
14892TIP3    H295145   3.452   3.992   3.965
14893TIP3   OH295146   2.051   4.063   4.535
14893TIP3    H195147   2.131   4.018   4.507
14893TIP3    H295148   2.077   4.156   4.511
14894TIP3   OH295149   1.872   4.443   4.592
14894TIP3    H195150   1.924   4.401   4.518
14894TIP3    H295151   1.933   4.515   4.611
14895TIP3   OH295152   3.687   4.052   3.682
14895TIP3    H195153   3.730   3.983   3.628
14895TIP3    H295154   3.758   4.119   3.679
14896TIP3   OH295155   1.918   4.049   3.981
14896TIP3    H195156   1.825   4.075   3.979
14896TIP3    H295157   1.960   4.106   3.915
14897TIP3   OH295158   3.393   5.550   4.184
14897TIP3    H195159   3.461   5.519   4.122
14897TIP3    H295160   3.445   5.600   4.249
14898TIP3   OH295161   1.913   3.923   4.817
14898TIP3    H195162   1.846   3.902   4.886
14898TIP3    H295163   1.869   3.990   4.762
14899TIP3   OH295164   2.426   5.338   4.859
14899TIP3    H195165   2.393   5.426   4.835
14899TIP3    H295166   2.521   5.350   4.834
14900TIP3   OH295167   2.862   5.477   5.157
14900TIP3    H195168   2.880   5.450   5.248
14900TIP3    H295169   2.948   5.513   5.129
14901TIP3   OH295170   3.086   5.614   5.079
14901TIP3    H195171   3.157   5.553   5.057
14901TIP3    H295172   3.126   5.648   5.162
14902TIP3   OH295173   3.594   3.874   4.985
14902TIP3    H195174   3.504   3.899   4.956
14902TIP3    H295175   3.606   3.787   4.942
14903TIP3   OH295176   2.170   5.666   4.863
14903TIP3    H195177   2.095   5.714   4.825
14903TIP3    H295178   2.137   5.647   4.952
14904TIP3   OH295179   2.416   5.624   4.769
14904TIP3    H195180   2.328   5.639   4.811
14904TIP3    H295181   2.410   5.682   4.691
14905TIP3   OH295182   2.889   5.613   4.685
14905TIP3    H195183   2.841   5.668   4.622
14905TIP3    H295184   2.901   5.675   4.759
14906TIP3   OH295185   3.118   5.494   4.784
14906TIP3    H195186   3.031   5.522   4.752
14906TIP3    H295187   3.163   5.580   4.778
14907TIP3   OH295188   3.376   5.654   4.813
14907TIP3    H195189   3.369   5.749   4.789
14907TIP3    H295190   3.397   5.616   4.725
14908TIP3   OH295191   2.116   5.529   4.557
14908TIP3    H195192   2.109   5.486   4.644
14908TIP3    H295193   2.197   5.492   4.518
14909TIP3   OH295194   2.326   5.400   4.418
14909TIP3    H195195   2.306   5.308   4.445
14909TIP3    H295196   2.408   5.416   4.469
14910TIP3   OH295197   2.584   5.449   4.509
14910TIP3    H195198   2.600   5.357   4.483
14910TIP3    H295199   2.589   5.443   4.606
14911TIP3   OH295200   2.937   4.012   4.428
14911TIP3    H195201   2.862   3.953   4.448
14911TIP3    H295202   2.982   3.961   4.361
14912TIP3   OH295203   3.443   3.815   4.422
14912TIP3    H195204   3.507   3.881   4.385
14912TIP3    H295205   3.354   3.855   4.411
14913TIP3   OH295206   3.607   3.946   4.250
14913TIP3    H195207   3.681   3.887   4.219
14913TIP3    H295208   3.662   4.027   4.271
14914TIP3   OH295209   2.161   3.869   4.214
14914TIP3    H195210   2.086   3.858   4.153
14914TIP3    H295211   2.213   3.789   4.201
14915TIP3   OH295212   2.040   3.854   3.778
14915TIP3    H195213   2.092   3.918   3.726
14915TIP3    H295214   1.986   3.910   3.836
14916TIP3   OH295215   2.617   3.861   4.186
14916TIP3    H195216   2.703   3.907   4.179
14916TIP3    H295217   2.609   3.851   4.280
14917TIP3   OH295218   3.193   3.868   4.344
14917TIP3    H195219   3.170   3.882   4.253
14917TIP3    H295220   3.145   3.783   4.363
14918TIP3   OH295221   3.311   3.877   3.930
14918TIP3    H195222   3.239   3.933   3.895
14918TIP3    H295223   3.268   3.788   3.933
14919TIP3   OH295224   2.041   5.451   3.879
14919TIP3    H195225   1.968   5.446   3.813
14919TIP3    H295226   2.033   5.545   3.899
14920TIP3   OH295227   2.226   4.039   3.635
14920TIP3    H195228   2.281   3.985   3.578
14920TIP3    H295229   2.294   4.080   3.693
14921TIP3   OH295230   2.735   4.071   3.871
14921TIP3    H195231   2.752   4.015   3.948
14921TIP3    H295232   2.730   4.157   3.920
14922TIP3   OH295233   2.916   5.580   3.712
14922TIP3    H195234   3.011   5.601   3.700
14922TIP3    H295235   2.904   5.524   3.634
14923TIP3   OH295236   3.593   5.529   3.987
14923TIP3    H195237   3.572   5.451   3.930
14923TIP3    H295238   3.584   5.602   3.924
14924TIP3   OH295239   2.136   3.894   5.130
14924TIP3    H195240   2.107   3.835   5.202
14924TIP3    H295241   2.224   3.911   5.164
14925TIP3   OH295242   2.220   5.547   3.576
14925TIP3    H195243   2.186   5.574   3.663
14925TIP3    H295244   2.294   5.489   3.592
14926TIP3   OH295245   4.961   4.791   4.194
14926TIP3    H195246   4.960   4.889   4.189
14926TIP3    H295247   4.888   4.768   4.133
14927TIP3   OH295248   4.846   4.716   4.543
14927TIP3    H195249   4.846   4.651   4.615
14927TIP3    H295250   4.812   4.666   4.468
14928TIP3   OH295251   4.082   4.686   4.700
14928TIP3    H195252   4.091   4.615   4.768
14928TIP3    H295253   4.158   4.742   4.721
14929TIP3   OH295254   5.215   5.011   4.372
14929TIP3    H195255   5.173   4.940   4.421
14929TIP3    H295256   5.217   5.082   4.439
14930TIP3   OH295257   4.174   5.129   4.549
14930TIP3    H195258   4.143   5.042   4.517
14930TIP3    H295259   4.270   5.110   4.554
14931TIP3   OH295260   3.838   4.484   4.095
14931TIP3    H195261   3.794   4.570   4.092
14931TIP3    H295262   3.781   4.430   4.039
14932TIP3   OH295263   3.909   4.707   4.312
14932TIP3    H195264   3.936   4.625   4.358
14932TIP3    H295265   3.979   4.717   4.246
14933TIP3   OH295266   4.927   5.527   4.396
14933TIP3    H195267   4.992   5.457   4.367
14933TIP3    H295268   4.906   5.494   4.483
14934TIP3   OH295269   4.684   4.956   4.590
14934TIP3    H195270   4.718   4.893   4.525
14934TIP3    H295271   4.764   4.972   4.643
14935TIP3   OH295272   5.551   4.118   4.666
14935TIP3    H195273   5.560   4.181   4.741
14935TIP3    H295274   5.598   4.168   4.597
14936TIP3   OH295275   4.999   4.402   4.623
14936TIP3    H195276   5.017   4.307   4.623
14936TIP3    H295277   4.990   4.417   4.527
14937TIP3   OH295278   4.312   4.212   4.344
14937TIP3    H195279   4.323   4.296   4.295
14937TIP3    H295280   4.272   4.155   4.275
14938TIP3   OH295281   5.086   4.220   4.181
14938TIP3    H195282   5.151   4.189   4.248
14938TIP3    H295283   5.142   4.277   4.126
14939TIP3   OH295284   3.975   4.453   4.417
14939TIP3    H195285   4.042   4.398   4.462
14939TIP3    H295286   3.985   4.422   4.326
14940TIP3   OH295287   4.491   4.609   4.349
14940TIP3    H195288   4.557   4.550   4.389
14940TIP3    H295289   4.439   4.543   4.298
14941TIP3   OH295290   5.592   4.268   4.889
14941TIP3    H195291   5.524   4.338   4.878
14941TIP3    H295292   5.589   4.251   4.984
14942TIP3   OH295293   4.203   4.100   4.744
14942TIP3    H195294   4.174   4.160   4.673
14942TIP3    H295295   4.137   4.124   4.814
14943TIP3   OH295296   4.929   5.050   4.104
14943TIP3    H195297   4.904   5.024   4.014
14943TIP3    H295298   4.901   5.144   4.106
14944TIP3   OH295299   4.453   4.866   4.772
14944TIP3    H195300   4.383   4.931   4.795
14944TIP3    H295301   4.524   4.925   4.744
14945TIP3   OH295302   5.266   4.155   4.381
14945TIP3    H195303   5.245   4.077   4.434
14945TIP3    H295304   5.334   4.198   4.434
14946TIP3   OH295305   4.159   4.288   4.551
14946TIP3    H195306   4.222   4.356   4.582
14946TIP3    H295307   4.211   4.246   4.477
14947TIP3   OH295308   4.298   5.067   4.855
14947TIP3    H195309   4.294   5.159   4.821
14947TIP3    H295310   4.209   5.060   4.897
14948TIP3   OH295311   3.905   5.027   3.931
14948TIP3    H195312   3.883   5.062   3.842
14948TIP3    H295313   3.913   5.110   3.983
14949TIP3   OH295314   5.268   5.194   4.607
14949TIP3    H195315   5.172   5.206   4.622
14949TIP3    H295316   5.295   5.287   4.590
14950TIP3   OH295317   5.299   4.027   4.752
14950TIP3    H195318   5.225   4.088   4.738
14950TIP3    H295319   5.368   4.066   4.697
14951TIP3   OH295320   4.597   3.835   4.493
14951TIP3    H195321   4.583   3.739   4.488
14951TIP3    H295322   4.510   3.866   4.526
14952TIP3   OH295323   5.094   5.373   4.268
14952TIP3    H195324   5.137   5.302   4.217
14952TIP3    H295325   5.137   5.452   4.229
14953TIP3   OH295326   5.216   5.166   4.121
14953TIP3    H195327   5.185   5.098   4.057
14953TIP3    H295328   5.218   5.115   4.204
14954TIP3   OH295329   5.381   5.025   4.969
14954TIP3    H195330   5.390   4.962   4.894
14954TIP3    H295331   5.398   5.111   4.927
14955TIP3   OH295332   4.826   4.715   3.944
14955TIP3    H195333   4.755   4.772   3.907
14955TIP3    H295334   4.897   4.725   3.877
14956TIP3   OH295335   4.831   4.564   3.654
14956TIP3    H195336   4.906   4.568   3.716
14956TIP3    H295337   4.864   4.504   3.588
14957TIP3   OH295338   5.567   4.654   4.773
14957TIP3    H195339   5.501   4.727   4.780
14957TIP3    H295340   5.614   4.680   4.692
14958TIP3   OH295341   5.170   4.733   4.036
14958TIP3    H195342   5.097   4.760   4.098
14958TIP3    H295343   5.218   4.669   4.091
14959TIP3   OH295344   5.161   4.551   4.948
14959TIP3    H195345   5.164   4.631   5.001
14959TIP3    H295346   5.099   4.582   4.878
14960TIP3   OH295347   4.332   4.801   4.228
14960TIP3    H195348   4.301   4.762   4.143
14960TIP3    H295349   4.394   4.732   4.262
14961TIP3   OH295350   4.465   5.140   4.497
14961TIP3    H195351   4.464   5.087   4.416
14961TIP3    H295352   4.543   5.104   4.543
14962TIP3   OH295353   4.366   4.676   4.595
14962TIP3    H195354   4.421   4.686   4.515
14962TIP3    H295355   4.404   4.743   4.657
14963TIP3   OH295356   5.007   5.233   4.666
14963TIP3    H195357   4.977   5.297   4.731
14963TIP3    H295358   4.982   5.147   4.709
14964TIP3   OH295359   4.458   5.116   5.070
14964TIP3    H195360   4.423   5.197   5.111
14964TIP3    H295361   4.395   5.099   4.996
14965TIP3   OH295362   5.061   4.653   3.803
14965TIP3    H195363   5.112   4.674   3.885
14965TIP3    H295364   5.097   4.713   3.736
14966TIP3   OH295365   4.153   4.737   4.983
14966TIP3    H195366   4.159   4.799   5.056
14966TIP3    H295367   4.060   4.745   4.955
14967TIP3   OH295368   4.828   5.327   4.154
14967TIP3    H195369   4.874   5.359   4.233
14967TIP3    H295370   4.775   5.402   4.126
14968TIP3   OH295371   4.280   5.321   5.139
14968TIP3    H195372   4.281   5.314   5.042
14968TIP3    H295373   4.186   5.313   5.161
14969TIP3   OH295374   5.430   3.827   3.794
14969TIP3    H195375   5.335   3.841   3.818
14969TIP3    H295376   5.452   3.912   3.753
14970TIP3   OH295377   4.229   4.703   3.990
14970TIP3    H195378   4.201   4.782   3.937
14970TIP3    H295379   4.163   4.637   3.967
14971TIP3   OH295380   5.544   5.262   3.632
14971TIP3    H195381   5.553   5.358   3.643
14971TIP3    H295382   5.636   5.234   3.624
14972TIP3   OH295383   3.843   4.946   4.874
14972TIP3    H195384   3.794   4.939   4.790
14972TIP3    H295385   3.845   4.852   4.900
14973TIP3   OH295386   3.815   5.220   4.558
14973TIP3    H195387   3.911   5.209   4.556
14973TIP3    H295388   3.806   5.301   4.610
14974TIP3   OH295389   5.646   5.288   5.072
14974TIP3    H195390   5.640   5.198   5.108
14974TIP3    H295391   5.578   5.326   5.132
14975TIP3   OH295392   4.734   5.244   5.012
14975TIP3    H195393   4.741   5.328   5.063
14975TIP3    H295394   4.646   5.210   5.036
14976TIP3   OH295395   4.776   5.619   3.992
14976TIP3    H195396   4.770   5.611   3.895
14976TIP3    H295397   4.780   5.715   4.008
14977TIP3   OH295398   4.142   5.507   4.175
14977TIP3    H195399   4.157   5.465   4.263
14977TIP3    H295400   4.057   5.466   4.151
14978TIP3   OH295401   5.087   5.548   3.691
14978TIP3    H195402   5.117   5.463   3.648
14978TIP3    H295403   5.086   5.513   3.781
14979TIP3   OH295404   5.053   5.537   3.973
14979TIP3    H195405   4.956   5.540   3.987
14979TIP3    H295406   5.077   5.458   4.023
14980TIP3   OH295407   4.068   5.076   4.977
14980TIP3    H195408   4.084   5.041   5.064
14980TIP3    H295409   3.980   5.040   4.950
14981TIP3   OH295410   4.335   3.926   4.567
14981TIP3    H195411   4.244   3.913   4.532
14981TIP3    H295412   4.323   4.008   4.617
14982TIP3   OH295413   4.798   3.895   4.908
14982TIP3    H195414   4.837   3.852   4.985
14982TIP3    H295415   4.701   3.879   4.921
14983TIP3   OH295416   5.113   4.275   4.988
14983TIP3    H195417   5.081   4.258   5.079
14983TIP3    H295418   5.115   4.371   4.976
14984TIP3   OH295419   4.760   4.152   3.639
14984TIP3    H195420   4.733   4.144   3.733
14984TIP3    H295421   4.737   4.063   3.611
14985TIP3   OH295422   4.343   4.422   4.693
14985TIP3    H195423   4.271   4.421   4.759
14985TIP3    H295424   4.339   4.514   4.658
14986TIP3   OH295425   4.341   4.435   4.181
14986TIP3    H195426   4.247   4.409   4.167
14986TIP3    H295427   4.379   4.405   4.096
14987TIP3   OH295428   4.893   4.484   4.058
14987TIP3    H195429   4.852   4.567   4.024
14987TIP3    H295430   4.961   4.468   3.991
14988TIP3   OH295431   4.997   4.433   4.343
14988TIP3    H195432   4.969   4.490   4.268
14988TIP3    H295433   5.006   4.348   4.295
14989TIP3   OH295434   4.105   4.451   4.864
14989TIP3    H195435   4.117   4.487   4.955
14989TIP3    H295436   4.066   4.364   4.883
14990TIP3   OH295437   3.771   4.154   4.261
14990TIP3    H195438   3.840   4.157   4.331
14990TIP3    H295439   3.820   4.123   4.183
14991TIP3   OH295440   3.902   4.235   3.801
14991TIP3    H195441   3.947   4.291   3.737
14991TIP3    H295442   3.831   4.295   3.830
14992TIP3   OH295443   4.920   4.592   4.803
14992TIP3    H195444   4.954   4.525   4.740
14992TIP3    H295445   4.869   4.537   4.866
14993TIP3   OH295446   4.597   4.190   4.282
14993TIP3    H195447   4.503   4.190   4.311
14993TIP3    H295448   4.645   4.174   4.364
14994TIP3   OH295449   4.078   4.345   4.167
14994TIP3    H195450   3.989   4.360   4.129
14994TIP3    H295451   4.107   4.261   4.127
14995TIP3   OH295452   4.441   4.352   3.931
14995TIP3    H195453   4.537   4.361   3.948
14995TIP3    H295454   4.418   4.418   3.863
14996TIP3   OH295455   5.037   4.113   4.607
14996TIP3    H195456   4.967   4.119   4.676
14996TIP3    H295457   4.987   4.089   4.528
14997TIP3   OH295458   4.312   4.464   3.692
14997TIP3    H195459   4.257   4.432   3.619
14997TIP3    H295460   4.393   4.490   3.645
14998TIP3   OH295461   4.725   4.465   4.471
14998TIP3    H195462   4.785   4.412   4.417
14998TIP3    H295463   4.710   4.411   4.549
14999TIP3   OH295464   4.226   4.080   4.116
14999TIP3    H195465   4.195   3.987   4.113
14999TIP3    H295466   4.304   4.074   4.059
15000TIP3   OH295467   4.589   4.298   4.711
15000TIP3    H195468   4.507   4.349   4.719
15000TIP3    H295469   4.644   4.332   4.784
15001TIP3   OH295470   4.646   4.915   3.887
15001TIP3    H195471   4.566   4.872   3.851
15001TIP3    H295472   4.624   4.931   3.980
15002TIP3   OH295473   5.367   4.837   4.763
15002TIP3    H195474   5.422   4.888   4.701
15002TIP3    H295475   5.281   4.845   4.717
15003TIP3   OH295476   5.033   4.200   3.701
15003TIP3    H195477   4.939   4.217   3.683
15003TIP3    H295478   5.064   4.288   3.732
15004TIP3   OH295479   4.797   4.949   5.001
15004TIP3    H195480   4.762   4.905   5.079
15004TIP3    H295481   4.772   5.041   5.014
15005TIP3   OH295482   5.106   4.394   3.866
15005TIP3    H195483   5.195   4.380   3.903
15005TIP3    H295484   5.113   4.475   3.814
15006TIP3   OH295485   4.158   4.860   4.462
15006TIP3    H195486   4.227   4.852   4.393
15006TIP3    H295487   4.164   4.774   4.507
15007TIP3   OH295488   4.856   5.057   3.804
15007TIP3    H195489   4.825   5.150   3.815
15007TIP3    H295490   4.776   5.004   3.807
15008TIP3   OH295491   3.854   4.702   4.988
15008TIP3    H195492   3.880   4.657   5.071
15008TIP3    H295493   3.796   4.638   4.943
15009TIP3   OH295494   5.024   5.190   5.001
15009TIP3    H195495   4.932   5.210   4.976
15009TIP3    H295496   5.025   5.213   5.094
15010TIP3   OH295497   5.591   4.408   3.842
15010TIP3    H195498   5.541   4.374   3.766
15010TIP3    H295499   5.603   4.501   3.812
15011TIP3   OH295500   5.590   4.982   5.117
15011TIP3    H195501   5.504   5.018   5.083
15011TIP3    H295502   5.646   4.992   5.038
15012TIP3   OH295503   5.430   5.289   3.882
15012TIP3    H195504   5.384   5.210   3.913
15012TIP3    H295505   5.451   5.272   3.788
15013TIP3   OH295506   5.144   4.772   4.591
15013TIP3    H195507   5.050   4.751   4.579
15013TIP3    H295508   5.187   4.696   4.547
15014TIP3   OH295509   4.395   5.205   4.201
15014TIP3    H195510   4.446   5.286   4.180
15014TIP3    H295511   4.308   5.229   4.167
15015TIP3   OH295512   3.969   4.693   3.654
15015TIP3    H195513   4.032   4.754   3.696
15015TIP3    H295514   3.882   4.719   3.687
15016TIP3   OH295515   4.538   4.971   4.153
15016TIP3    H195516   4.507   5.064   4.161
15016TIP3    H295517   4.465   4.923   4.197
15017TIP3   OH295518   4.582   5.391   4.791
15017TIP3    H195519   4.628   5.472   4.765
15017TIP3    H295520   4.644   5.356   4.858
15018TIP3   OH295521   4.405   5.472   4.105
15018TIP3    H195522   4.308   5.485   4.119
15018TIP3    H295523   4.441   5.555   4.141
15019TIP3   OH295524   4.936   4.990   4.753
15019TIP3    H195525   4.902   4.972   4.843
15019TIP3    H295526   5.001   4.919   4.740
15020TIP3   OH295527   5.182   5.039   3.659
15020TIP3    H195528   5.200   5.045   3.755
15020TIP3    H295529   5.092   5.080   3.661
15021TIP3   OH295530   5.208   5.449   5.008
15021TIP3    H195531   5.147   5.397   4.953
15021TIP3    H295532   5.237   5.517   4.944
15022TIP3   OH295533   5.616   5.536   3.690
15022TIP3    H195534   5.685   5.599   3.665
15022TIP3    H295535   5.544   5.596   3.719
15023TIP3   OH295536   4.024   4.176   4.942
15023TIP3    H195537   3.933   4.209   4.939
15023TIP3    H295538   4.014   4.091   4.987
15024TIP3   OH295539   5.248   4.961   3.898
15024TIP3    H195540   5.222   4.879   3.944
15024TIP3    H295541   5.344   4.966   3.911
15025TIP3   OH295542   3.986   5.352   4.785
15025TIP3    H195543   4.014   5.260   4.786
15025TIP3    H295544   4.009   5.382   4.874
15026TIP3   OH295545   4.453   5.159   3.758
15026TIP3    H195546   4.488   5.105   3.829
15026TIP3    H295547   4.470   5.251   3.789
15027TIP3   OH295548   4.109   4.884   3.804
15027TIP3    H195549   4.043   4.925   3.864
15027TIP3    H295550   4.165   4.960   3.782
15028TIP3   OH295551   4.893   4.150   4.837
15028TIP3    H195552   4.967   4.154   4.899
15028TIP3    H295553   4.856   4.062   4.853
15029TIP3   OH295554   4.969   4.110   3.950
15029TIP3    H195555   4.994   4.155   3.866
15029TIP3    H295556   5.028   4.153   4.012
15030TIP3   OH295557   4.737   5.328   3.836
15030TIP3    H195558   4.656   5.379   3.833
15030TIP3    H295559   4.796   5.367   3.768
15031TIP3   OH295560   4.692   4.283   4.029
15031TIP3    H195561   4.771   4.341   4.033
15031TIP3    H295562   4.666   4.270   4.122
15032TIP3   OH295563   4.757   4.391   4.941
15032TIP3    H195564   4.754   4.440   5.024
15032TIP3    H295565   4.809   4.311   4.957
15033TIP3   OH295566   4.778   3.989   4.118
15033TIP3    H195567   4.746   4.054   4.183
15033TIP3    H295568   4.847   4.044   4.073
15034TIP3   OH295569   4.471   5.428   3.831
15034TIP3    H195570   4.493   5.510   3.782
15034TIP3    H295571   4.451   5.463   3.921
15035TIP3   OH295572   4.346   4.099   3.793
15035TIP3    H195573   4.339   4.190   3.825
15035TIP3    H295574   4.437   4.075   3.818
15036TIP3   OH295575   5.366   4.179   5.037
15036TIP3    H195576   5.273   4.203   5.021
15036TIP3    H295577   5.396   4.169   4.945
15037TIP3   OH295578   5.228   4.551   4.434
15037TIP3    H195579   5.145   4.507   4.407
15037TIP3    H295580   5.275   4.483   4.486
15038TIP3   OH295581   4.169   5.145   3.694
15038TIP3    H195582   4.235   5.208   3.726
15038TIP3    H295583   4.220   5.100   3.625
15039TIP3   OH295584   5.334   5.477   4.600
15039TIP3    H195585   5.325   5.546   4.532
15039TIP3    H295586   5.430   5.483   4.620
15040TIP3   OH295587   4.083   3.890   4.482
15040TIP3    H195588   4.064   3.892   4.385
15040TIP3    H295589   4.042   3.805   4.507
15041TIP3   OH295590   3.978   5.282   4.097
15041TIP3    H195591   3.893   5.327   4.092
15041TIP3    H295592   4.026   5.328   4.027
15042TIP3   OH295593   5.258   5.384   3.547
15042TIP3    H195594   5.257   5.295   3.587
15042TIP3    H295595   5.327   5.383   3.481
15043TIP3   OH295596   5.133   4.911   4.986
15043TIP3    H195597   5.211   4.969   4.993
15043TIP3    H295598   5.063   4.973   5.009
15044TIP3   OH295599   4.448   4.762   3.770
15044TIP3    H195600   4.396   4.709   3.832
15044TIP3    H295601   4.477   4.694   3.704
15045TIP3   OH295602   4.370   4.540   4.994
15045TIP3    H195603   4.314   4.613   5.024
15045TIP3    H295604   4.412   4.579   4.915
15046TIP3   OH295605   4.553   4.581   3.590
15046TIP3    H195606   4.543   4.568   3.495
15046TIP3    H295607   4.651   4.592   3.600
15047TIP3   OH295608   4.405   4.280   5.104
15047TIP3    H195609   4.422   4.209   5.039
15047TIP3    H295610   4.407   4.362   5.050
15048TIP3   OH295611   4.452   4.115   4.860
15048TIP3    H195612   4.504   4.164   4.792
15048TIP3    H295613   4.364   4.107   4.816
15049TIP3   OH295614   4.609   4.663   4.882
15049TIP3    H195615   4.685   4.650   4.824
15049TIP3    H295616   4.571   4.748   4.852
15050TIP3   OH295617   4.534   3.864   4.898
15050TIP3    H195618   4.513   3.959   4.890
15050TIP3    H295619   4.458   3.825   4.852
15051TIP3   OH295620   4.538   5.652   3.690
15051TIP3    H195621   4.635   5.661   3.703
15051TIP3    H295622   4.519   5.719   3.626
15052TIP3   OH295623   3.895   5.112   3.644
15052TIP3    H195624   3.991   5.121   3.665
15052TIP3    H295625   3.898   5.051   3.569
15053TIP3   OH295626   3.770   5.649   4.141
15053TIP3    H195627   3.698   5.600   4.094
15053TIP3    H295628   3.798   5.583   4.207
15054TIP3   OH295629   3.852   5.462   4.328
15054TIP3    H195630   3.817   5.374   4.348
15054TIP3    H295631   3.875   5.495   4.416
15055TIP3   OH295632   5.606   5.541   4.622
15055TIP3    H195633   5.609   5.558   4.718
15055TIP3    H295634   5.677   5.599   4.592
15056TIP3   OH295635   5.567   5.501   4.909
15056TIP3    H195636   5.518   5.423   4.878
15056TIP3    H295637   5.616   5.458   4.982
15057TIP3   OH295638   5.541   4.904   3.925
15057TIP3    H195639   5.626   4.947   3.947
15057TIP3    H295640   5.538   4.835   3.995
15058TIP3   OH295641   5.576   4.713   4.113
15058TIP3    H195642   5.501   4.664   4.153
15058TIP3    H295643   5.635   4.728   4.189
15059TIP3   OH295644   5.550   4.982   4.609
15059TIP3    H195645   5.633   4.945   4.575
15059TIP3    H295646   5.565   5.078   4.595
15060TIP3   OH295647   5.404   5.273   4.840
15060TIP3    H195648   5.336   5.309   4.900
15060TIP3    H295649   5.350   5.233   4.769
15061TIP3   OH295650   5.603   4.696   3.753
15061TIP3    H195651   5.546   4.731   3.683
15061TIP3    H295652   5.598   4.767   3.819
15062TIP3   OH295653   5.357   4.561   4.170
15062TIP3    H195654   5.343   4.465   4.169
15062TIP3    H295655   5.325   4.584   4.259
15063TIP3   OH295656   3.858   4.770   4.577
15063TIP3    H195657   3.876   4.762   4.481
15063TIP3    H295658   3.947   4.753   4.613
15064TIP3   OH295659   5.448   4.755   5.139
15064TIP3    H195660   5.506   4.683   5.158
15064TIP3    H295661   5.503   4.836   5.135
15065TIP3   OH295662   5.367   4.159   3.515
15065TIP3    H195663   5.426   4.121   3.583
15065TIP3    H295664   5.279   4.127   3.538
15066TIP3   OH295665   5.325   4.320   4.018
15066TIP3    H195666   5.355   4.227   4.030
15066TIP3    H295667   5.404   4.359   3.979
15067TIP3   OH295668   5.388   4.374   4.560
15067TIP3    H195669   5.484   4.397   4.560
15067TIP3    H295670   5.369   4.388   4.654
15068TIP3   OH295671   5.395   4.448   4.840
15068TIP3    H195672   5.307   4.476   4.874
15068TIP3    H295673   5.437   4.534   4.817
15069TIP3   OH295674   5.391   4.047   4.021
15069TIP3    H195675   5.412   4.004   4.107
15069TIP3    H295676   5.330   3.984   3.978
15070TIP3   OH295677   3.939   4.129   4.478
15070TIP3    H195678   3.986   4.046   4.503
15070TIP3    H295679   3.994   4.198   4.517
15071TIP3   OH295680   3.768   4.428   4.581
15071TIP3    H195681   3.825   4.404   4.505
15071TIP3    H295682   3.814   4.509   4.608
15072TIP3   OH295683   5.573   4.053   3.680
15072TIP3    H195684   5.616   3.983   3.628
15072TIP3    H295685   5.644   4.119   3.679
15073TIP3   OH295686   3.803   4.056   3.987
15073TIP3    H195687   3.711   4.076   3.971
15073TIP3    H295688   3.848   4.104   3.915
15074TIP3   OH295689   5.278   5.550   4.184
15074TIP3    H195690   5.346   5.519   4.121
15074TIP3    H295691   5.330   5.600   4.249
15075TIP3   OH295692   3.800   3.924   4.816
15075TIP3    H195693   3.734   3.902   4.886
15075TIP3    H295694   3.752   3.990   4.764
15076TIP3   OH295695   4.312   5.338   4.859
15076TIP3    H195696   4.278   5.425   4.835
15076TIP3    H295697   4.406   5.350   4.834
15077TIP3   OH295698   4.748   5.477   5.157
15077TIP3    H195699   4.765   5.451   5.248
15077TIP3    H295700   4.834   5.513   5.129
15078TIP3   OH295701   4.971   5.615   5.079
15078TIP3    H195702   5.043   5.553   5.057
15078TIP3    H295703   5.011   5.648   5.162
15079TIP3   OH295704   5.481   3.875   4.982
15079TIP3    H195705   5.390   3.898   4.957
15079TIP3    H295706   5.490   3.786   4.944
15080TIP3   OH295707   4.055   5.666   4.863
15080TIP3    H195708   3.980   5.714   4.825
15080TIP3    H295709   4.023   5.647   4.952
15081TIP3   OH295710   4.302   5.624   4.769
15081TIP3    H195711   4.214   5.639   4.811
15081TIP3    H295712   4.296   5.681   4.690
15082TIP3   OH295713   4.774   5.614   4.685
15082TIP3    H195714   4.727   5.669   4.622
15082TIP3    H295715   4.786   5.676   4.760
15083TIP3   OH295716   5.004   5.494   4.784
15083TIP3    H195717   4.916   5.522   4.752
15083TIP3    H295718   5.049   5.580   4.778
15084TIP3   OH295719   5.261   5.654   4.813
15084TIP3    H195720   5.254   5.749   4.789
15084TIP3    H295721   5.282   5.616   4.725
15085TIP3   OH295722   4.001   5.530   4.557
15085TIP3    H195723   3.994   5.486   4.645
15085TIP3    H295724   4.083   5.492   4.518
15086TIP3   OH295725   4.209   5.401   4.422
15086TIP3    H195726   4.193   5.307   4.444
15086TIP3    H295727   4.295   5.416   4.467
15087TIP3   OH295728   4.469   5.449   4.510
15087TIP3    H195729   4.486   5.357   4.483
15087TIP3    H295730   4.474   5.443   4.606
15088TIP3   OH295731   4.815   4.014   4.423
15088TIP3    H195732   4.747   3.950   4.451
15088TIP3    H295733   4.870   3.961   4.364
15089TIP3   OH295734   5.330   3.820   4.431
15089TIP3    H195735   5.390   3.878   4.378
15089TIP3    H295736   5.241   3.854   4.407
15090TIP3   OH295737   5.497   3.942   4.262
15090TIP3    H195738   5.563   3.886   4.214
15090TIP3    H295739   5.545   4.028   4.266
15091TIP3   OH295740   4.052   3.876   4.209
15091TIP3    H195741   3.974   3.857   4.154
15091TIP3    H295742   4.099   3.791   4.202
15092TIP3   OH295743   3.927   3.853   3.779
15092TIP3    H195744   3.978   3.917   3.725
15092TIP3    H295745   3.873   3.911   3.835
15093TIP3   OH295746   4.500   3.869   4.186
15093TIP3    H195747   4.590   3.905   4.179
15093TIP3    H295748   4.496   3.848   4.280
15094TIP3   OH295749   5.070   3.871   4.349
15094TIP3    H195750   5.066   3.882   4.254
15094TIP3    H295751   5.033   3.780   4.362
15095TIP3   OH295752   5.198   3.874   3.915
15095TIP3    H195753   5.123   3.934   3.899
15095TIP3    H295754   5.154   3.789   3.938
15096TIP3   OH295755   3.921   5.449   3.881
15096TIP3    H195756   3.853   5.448   3.811
15096TIP3    H295757   3.923   5.544   3.898
15097TIP3   OH295758   4.111   4.039   3.634
15097TIP3    H195759   4.166   3.985   3.578
15097TIP3    H295760   4.179   4.080   3.691
15098TIP3   OH295761   4.617   4.071   3.872
15098TIP3    H195762   4.641   4.013   3.946
15098TIP3    H295763   4.621   4.157   3.919
15099TIP3   OH295764   4.802   5.587   3.709
15099TIP3    H195765   4.898   5.599   3.699
15099TIP3    H295766   4.789   5.523   3.638
15100TIP3   OH295767   5.477   5.528   3.987
15100TIP3    H195768   5.457   5.451   3.929
15100TIP3    H295769   5.469   5.602   3.924
15101TIP3   OH295770   4.021   3.894   5.130
15101TIP3    H195771   3.993   3.835   5.202
15101TIP3    H295772   4.109   3.912   5.164
15102TIP3   OH295773   4.102   5.544   3.577
15102TIP3    H195774   4.074   5.574   3.665
15102TIP3    H295775   4.181   5.492   3.594
15103TIP3   OH295776   6.847   4.791   4.194
15103TIP3    H195777   6.846   4.889   4.189
15103TIP3    H295778   6.774   4.767   4.134
15104TIP3   OH295779   6.732   4.716   4.543
15104TIP3    H195780   6.733   4.650   4.615
15104TIP3    H295781   6.697   4.666   4.468
15105TIP3   OH295782   5.967   4.685   4.700
15105TIP3    H195783   5.977   4.615   4.768
15105TIP3    H295784   6.043   4.741   4.721
15106TIP3   OH295785   7.094   5.015   4.370
15106TIP3    H195786   7.064   4.939   4.421
15106TIP3    H295787   7.105   5.081   4.440
15107TIP3   OH295788   6.060   5.129   4.549
15107TIP3    H195789   6.029   5.042   4.517
15107TIP3    H295790   6.156   5.110   4.554
15108TIP3   OH295791   5.724   4.484   4.095
15108TIP3    H195792   5.680   4.572   4.092
15108TIP3    H295793   5.666   4.431   4.039
15109TIP3   OH295794   5.795   4.707   4.312
15109TIP3    H195795   5.822   4.625   4.358
15109TIP3    H295796   5.865   4.717   4.246
15110TIP3   OH295797   6.813   5.526   4.397
15110TIP3    H195798   6.877   5.457   4.367
15110TIP3    H295799   6.793   5.494   4.485
15111TIP3   OH295800   6.569   4.956   4.590
15111TIP3    H195801   6.604   4.893   4.525
15111TIP3    H295802   6.650   4.972   4.643
15112TIP3   OH295803   7.434   4.118   4.669
15112TIP3    H195804   7.442   4.185   4.740
15112TIP3    H295805   7.485   4.164   4.600
15113TIP3   OH295806   6.877   4.403   4.621
15113TIP3    H195807   6.907   4.310   4.628
15113TIP3    H295808   6.877   4.415   4.525
15114TIP3   OH295809   6.196   4.211   4.345
15114TIP3    H195810   6.209   4.295   4.296
15114TIP3    H295811   6.159   4.155   4.273
15115TIP3   OH295812   6.972   4.220   4.181
15115TIP3    H195813   7.037   4.189   4.249
15115TIP3    H295814   7.028   4.277   4.127
15116TIP3   OH295815   5.860   4.454   4.417
15116TIP3    H195816   5.927   4.399   4.462
15116TIP3    H295817   5.871   4.422   4.326
15117TIP3   OH295818   6.376   4.609   4.349
15117TIP3    H195819   6.443   4.550   4.389
15117TIP3    H295820   6.324   4.543   4.298
15118TIP3   OH295821   7.479   4.267   4.891
15118TIP3    H195822   7.410   4.337   4.877
15118TIP3    H295823   7.472   4.254   4.986
15119TIP3   OH295824   6.083   4.097   4.744
15119TIP3    H195825   6.062   4.162   4.674
15119TIP3    H295826   6.023   4.127   4.816
15120TIP3   OH295827   6.817   5.050   4.103
15120TIP3    H195828   6.788   5.022   4.015
15120TIP3    H295829   6.787   5.144   4.107
15121TIP3   OH295830   6.338   4.866   4.772
15121TIP3    H195831   6.269   4.931   4.795
15121TIP3    H295832   6.410   4.925   4.744
15122TIP3   OH295833   7.153   4.153   4.377
15122TIP3    H195834   7.129   4.079   4.435
15122TIP3    H295835   7.217   4.200   4.435
15123TIP3   OH295836   6.046   4.284   4.552
15123TIP3    H195837   6.107   4.356   4.582
15123TIP3    H295838   6.097   4.247   4.476
15124TIP3   OH295839   6.184   5.068   4.855
15124TIP3    H195840   6.179   5.159   4.821
15124TIP3    H295841   6.095   5.060   4.897
15125TIP3   OH295842   5.791   5.027   3.931
15125TIP3    H195843   5.768   5.062   3.842
15125TIP3    H295844   5.798   5.110   3.983
15126TIP3   OH295845   7.152   5.196   4.608
15126TIP3    H195846   7.056   5.207   4.622
15126TIP3    H295847   7.181   5.287   4.590
15127TIP3   OH295848   7.185   4.016   4.745
15127TIP3    H195849   7.117   4.087   4.745
15127TIP3    H295850   7.254   4.067   4.699
15128TIP3   OH295851   6.484   3.835   4.492
15128TIP3    H195852   6.470   3.739   4.488
15128TIP3    H295853   6.397   3.866   4.525
15129TIP3   OH295854   6.980   5.373   4.268
15129TIP3    H195855   7.022   5.301   4.217
15129TIP3    H295856   7.022   5.452   4.229
15130TIP3   OH295857   7.099   5.167   4.119
15130TIP3    H195858   7.072   5.096   4.058
15130TIP3    H295859   7.105   5.117   4.203
15131TIP3   OH295860   7.263   5.022   4.965
15131TIP3    H195861   7.277   4.961   4.889
15131TIP3    H295862   7.283   5.110   4.928
15132TIP3   OH295863   6.711   4.715   3.944
15132TIP3    H195864   6.641   4.772   3.907
15132TIP3    H295865   6.782   4.724   3.878
15133TIP3   OH295866   6.718   4.567   3.653
15133TIP3    H195867   6.792   4.568   3.717
15133TIP3    H295868   6.750   4.503   3.589
15134TIP3   OH295869   7.460   4.664   4.774
15134TIP3    H195870   7.387   4.729   4.776
15134TIP3    H295871   7.499   4.683   4.686
15135TIP3   OH295872   7.054   4.731   4.035
15135TIP3    H195873   6.985   4.760   4.099
15135TIP3    H295874   7.106   4.670   4.092
15136TIP3   OH295875   7.045   4.559   4.954
15136TIP3    H195876   7.047   4.640   5.003
15136TIP3    H295877   6.986   4.581   4.879
15137TIP3   OH295878   6.218   4.801   4.228
15137TIP3    H195879   6.186   4.762   4.143
15137TIP3    H295880   6.279   4.732   4.262
15138TIP3   OH295881   6.350   5.140   4.497
15138TIP3    H195882   6.349   5.087   4.416
15138TIP3    H295883   6.429   5.104   4.543
15139TIP3   OH295884   6.251   4.676   4.595
15139TIP3    H195885   6.307   4.686   4.515
15139TIP3    H295886   6.290   4.743   4.657
15140TIP3   OH295887   6.892   5.232   4.666
15140TIP3    H195888   6.864   5.297   4.731
15140TIP3    H295889   6.868   5.147   4.709
15141TIP3   OH295890   6.343   5.116   5.071
15141TIP3    H195891   6.309   5.198   5.110
15141TIP3    H295892   6.281   5.099   4.996
15142TIP3   OH295893   6.946   4.653   3.803
15142TIP3    H195894   6.998   4.673   3.886
15142TIP3    H295895   6.983   4.710   3.736
15143TIP3   OH295896   6.038   4.737   4.983
15143TIP3    H195897   6.045   4.799   5.055
15143TIP3    H295898   5.946   4.745   4.955
15144TIP3   OH295899   6.716   5.328   4.151
15144TIP3    H195900   6.759   5.358   4.232
15144TIP3    H295901   6.659   5.402   4.127
15145TIP3   OH295902   6.166   5.321   5.139
15145TIP3    H195903   6.166   5.314   5.042
15145TIP3    H295904   6.072   5.313   5.162
15146TIP3   OH295905   7.315   3.827   3.794
15146TIP3    H195906   7.220   3.840   3.817
15146TIP3    H295907   7.338   3.912   3.753
15147TIP3   OH295908   6.115   4.703   3.990
15147TIP3    H195909   6.087   4.782   3.937
15147TIP3    H295910   6.049   4.638   3.967
15148TIP3   OH295911   7.427   5.263   3.633
15148TIP3    H195912   7.441   5.359   3.643
15148TIP3    H295913   7.519   5.234   3.623
15149TIP3   OH295914   5.728   4.946   4.874
15149TIP3    H195915   5.680   4.939   4.790
15149TIP3    H295916   5.730   4.852   4.900
15150TIP3   OH295917   5.700   5.220   4.558
15150TIP3    H195918   5.796   5.209   4.556
15150TIP3    H295919   5.692   5.301   4.610
15151TIP3   OH295920   7.533   5.288   5.069
15151TIP3    H195921   7.526   5.201   5.112
15151TIP3    H295922   7.465   5.326   5.129
15152TIP3   OH295923   6.620   5.244   5.012
15152TIP3    H195924   6.627   5.328   5.063
15152TIP3    H295925   6.532   5.210   5.037
15153TIP3   OH295926   6.663   5.618   3.991
15153TIP3    H195927   6.654   5.612   3.895
15153TIP3    H295928   6.666   5.714   4.009
15154TIP3   OH295929   6.028   5.506   4.175
15154TIP3    H195930   6.042   5.465   4.263
15154TIP3    H295931   5.943   5.466   4.151
15155TIP3   OH295932   6.965   5.540   3.689
15155TIP3    H195933   7.013   5.464   3.648
15155TIP3    H295934   6.974   5.515   3.783
15156TIP3   OH295935   6.938   5.534   3.969
15156TIP3    H195936   6.842   5.540   3.988
15156TIP3    H295937   6.963   5.460   4.026
15157TIP3   OH295938   5.953   5.075   4.977
15157TIP3    H195939   5.969   5.041   5.065
15157TIP3    H295940   5.865   5.040   4.950
15158TIP3   OH295941   6.218   3.923   4.572
15158TIP3    H195942   6.132   3.917   4.527
15158TIP3    H295943   6.211   4.009   4.616
15159TIP3   OH295944   6.682   3.892   4.907
15159TIP3    H195945   6.722   3.852   4.986
15159TIP3    H295946   6.585   3.878   4.921
15160TIP3   OH295947   6.921   4.272   5.037
15160TIP3    H195948   6.964   4.259   5.122
15160TIP3    H295949   6.986   4.325   4.986
15161TIP3   OH295950   6.645   4.152   3.639
15161TIP3    H195951   6.619   4.144   3.733
15161TIP3    H295952   6.622   4.063   3.611
15162TIP3   OH295953   6.228   4.422   4.693
15162TIP3    H195954   6.156   4.421   4.759
15162TIP3    H295955   6.226   4.514   4.659
15163TIP3   OH295956   6.226   4.435   4.181
15163TIP3    H195957   6.133   4.409   4.167
15163TIP3    H295958   6.264   4.405   4.096
15164TIP3   OH295959   6.778   4.484   4.057
15164TIP3    H195960   6.738   4.567   4.024
15164TIP3    H295961   6.847   4.468   3.990
15165TIP3   OH295962   6.880   4.434   4.341
15165TIP3    H195963   6.854   4.490   4.266
15165TIP3    H295964   6.892   4.349   4.296
15166TIP3   OH295965   5.991   4.451   4.865
15166TIP3    H195966   6.003   4.487   4.955
15166TIP3    H295967   5.952   4.365   4.883
15167TIP3   OH295968   5.658   4.157   4.262
15167TIP3    H195969   5.727   4.157   4.330
15167TIP3    H295970   5.703   4.122   4.183
15168TIP3   OH295971   5.786   4.234   3.800
15168TIP3    H195972   5.833   4.290   3.737
15168TIP3    H295973   5.717   4.296   3.829
15169TIP3   OH295974   6.799   4.592   4.800
15169TIP3    H195975   6.841   4.525   4.742
15169TIP3    H295976   6.757   4.535   4.867
15170TIP3   OH295977   6.482   4.190   4.282
15170TIP3    H195978   6.389   4.190   4.311
15170TIP3    H295979   6.531   4.174   4.364
15171TIP3   OH295980   5.963   4.345   4.167
15171TIP3    H195981   5.874   4.360   4.129
15171TIP3    H295982   5.992   4.261   4.127
15172TIP3   OH295983   6.326   4.352   3.931
15172TIP3    H195984   6.422   4.361   3.948
15172TIP3    H295985   6.304   4.418   3.863
15173TIP3   OH295986   6.921   4.108   4.605
15173TIP3    H195987   6.856   4.121   4.677
15173TIP3    H295988   6.869   4.090   4.527
15174TIP3   OH295989   6.198   4.464   3.691
15174TIP3    H195990   6.143   4.432   3.617
15174TIP3    H295991   6.279   4.490   3.645
15175TIP3   OH295992   6.610   4.465   4.471
15175TIP3    H195993   6.671   4.412   4.418
15175TIP3    H295994   6.598   4.411   4.550
15176TIP3   OH295995   6.112   4.079   4.116
15176TIP3    H195996   6.082   3.987   4.109
15176TIP3    H295997   6.190   4.075   4.059
15177TIP3   OH295998   6.475   4.298   4.711
15177TIP3    H195999   6.392   4.349   4.720
15177TIP3    H296000   6.531   4.332   4.783
15178TIP3   OH296001   6.534   4.918   3.885
15178TIP3    H196002   6.454   4.874   3.850
15178TIP3    H296003   6.511   4.931   3.979
15179TIP3   OH296004   7.253   4.841   4.763
15179TIP3    H196005   7.310   4.887   4.698
15179TIP3    H296006   7.167   4.842   4.715
15180TIP3   OH296007   6.919   4.201   3.700
15180TIP3    H196008   6.825   4.217   3.683
15180TIP3    H296009   6.950   4.288   3.731
15181TIP3   OH296010   6.683   4.949   5.001
15181TIP3    H196011   6.648   4.905   5.079
15181TIP3    H296012   6.658   5.041   5.014
15182TIP3   OH296013   6.991   4.393   3.866
15182TIP3    H196014   7.081   4.380   3.903
15182TIP3    H296015   6.999   4.475   3.815
15183TIP3   OH296016   6.044   4.860   4.462
15183TIP3    H196017   6.113   4.852   4.393
15183TIP3    H296018   6.050   4.774   4.507
15184TIP3   OH296019   6.744   5.068   3.791
15184TIP3    H196020   6.706   5.152   3.821
15184TIP3    H296021   6.669   5.006   3.806
15185TIP3   OH296022   5.740   4.702   4.989
15185TIP3    H196023   5.765   4.657   5.071
15185TIP3    H296024   5.682   4.638   4.943
15186TIP3   OH296025   6.907   5.185   5.001
15186TIP3    H196026   6.817   5.212   4.977
15186TIP3    H296027   6.913   5.215   5.093
15187TIP3   OH296028   7.476   4.408   3.842
15187TIP3    H196029   7.427   4.374   3.766
15187TIP3    H296030   7.489   4.501   3.812
15188TIP3   OH296031   7.474   4.981   5.115
15188TIP3    H196032   7.390   5.021   5.084
15188TIP3    H296033   7.531   4.991   5.037
15189TIP3   OH296034   7.310   5.291   3.880
15189TIP3    H196035   7.272   5.209   3.914
15189TIP3    H296036   7.339   5.271   3.789
15190TIP3   OH296037   7.029   4.773   4.590
15190TIP3    H196038   6.936   4.749   4.579
15190TIP3    H296039   7.074   4.698   4.548
15191TIP3   OH296040   6.281   5.205   4.200
15191TIP3    H196041   6.331   5.286   4.180
15191TIP3    H296042   6.194   5.229   4.168
15192TIP3   OH296043   5.855   4.693   3.654
15192TIP3    H196044   5.917   4.754   3.696
15192TIP3    H296045   5.768   4.719   3.687
15193TIP3   OH296046   6.423   4.972   4.153
15193TIP3    H196047   6.392   5.064   4.161
15193TIP3    H296048   6.351   4.923   4.197
15194TIP3   OH296049   6.468   5.392   4.791
15194TIP3    H196050   6.512   5.474   4.767
15194TIP3    H296051   6.529   5.356   4.858
15195TIP3   OH296052   6.291   5.471   4.105
15195TIP3    H196053   6.194   5.485   4.119
15195TIP3    H296054   6.327   5.555   4.141
15196TIP3   OH296055   6.821   4.990   4.752
15196TIP3    H196056   6.788   4.972   4.843
15196TIP3    H296057   6.887   4.920   4.740
15197TIP3   OH296058   7.049   5.092   3.667
15197TIP3    H196059   7.079   5.049   3.750
15197TIP3    H296060   6.953   5.080   3.674
15198TIP3   OH296061   7.096   5.427   4.971
15198TIP3    H196062   7.014   5.397   4.932
15198TIP3    H296063   7.115   5.516   4.934
15199TIP3   OH296064   7.502   5.536   3.689
15199TIP3    H196065   7.571   5.599   3.665
15199TIP3    H296066   7.430   5.595   3.719
15200TIP3   OH296067   5.908   4.173   4.938
15200TIP3    H196068   5.818   4.211   4.941
15200TIP3    H296069   5.900   4.092   4.990
15201TIP3   OH296070   7.133   4.958   3.888
15201TIP3    H196071   7.109   4.881   3.944
15201TIP3    H296072   7.227   4.966   3.911
15202TIP3   OH296073   5.871   5.352   4.785
15202TIP3    H196074   5.899   5.260   4.786
15202TIP3    H296075   5.895   5.382   4.874
15203TIP3   OH296076   6.342   5.160   3.756
15203TIP3    H196077   6.371   5.105   3.830
15203TIP3    H296078   6.354   5.251   3.790
15204TIP3   OH296079   5.994   4.884   3.804
15204TIP3    H196080   5.928   4.925   3.864
15204TIP3    H296081   6.051   4.959   3.782
15205TIP3   OH296082   6.778   4.149   4.834
15205TIP3    H196083   6.851   4.160   4.898
15205TIP3    H296084   6.744   4.061   4.855
15206TIP3   OH296085   6.855   4.110   3.950
15206TIP3    H196086   6.879   4.155   3.866
15206TIP3    H296087   6.914   4.154   4.012
15207TIP3   OH296088   6.625   5.326   3.831
15207TIP3    H196089   6.542   5.377   3.835
15207TIP3    H296090   6.678   5.375   3.767
15208TIP3   OH296091   6.578   4.283   4.029
15208TIP3    H196092   6.657   4.341   4.033
15208TIP3    H296093   6.552   4.270   4.122
15209TIP3   OH296094   6.637   4.389   4.943
15209TIP3    H196095   6.643   4.441   5.023
15209TIP3    H296096   6.698   4.314   4.955
15210TIP3   OH296097   6.664   3.989   4.118
15210TIP3    H196098   6.632   4.054   4.183
15210TIP3    H296099   6.733   4.044   4.073
15211TIP3   OH296100   6.360   5.428   3.831
15211TIP3    H196101   6.378   5.510   3.782
15211TIP3    H296102   6.337   5.462   3.921
15212TIP3   OH296103   6.231   4.099   3.793
15212TIP3    H196104   6.224   4.190   3.826
15212TIP3    H296105   6.322   4.075   3.818
15213TIP3   OH296106   7.254   4.171   5.041
15213TIP3    H196107   7.163   4.201   5.022
15213TIP3    H296108   7.281   4.173   4.948
15214TIP3   OH296109   7.112   4.551   4.432
15214TIP3    H196110   7.030   4.506   4.408
15214TIP3    H296111   7.160   4.485   4.487
15215TIP3   OH296112   6.055   5.144   3.694
15215TIP3    H196113   6.120   5.208   3.726
15215TIP3    H296114   6.105   5.100   3.625
15216TIP3   OH296115   7.219   5.477   4.599
15216TIP3    H196116   7.211   5.546   4.532
15216TIP3    H296117   7.315   5.483   4.620
15217TIP3   OH296118   5.970   3.891   4.472
15217TIP3    H196119   5.955   3.900   4.374
15217TIP3    H296120   5.944   3.798   4.480
15218TIP3   OH296121   5.864   5.282   4.096
15218TIP3    H196122   5.779   5.327   4.092
15218TIP3    H296123   5.912   5.328   4.026
15219TIP3   OH296124   7.124   5.369   3.547
15219TIP3    H196125   7.148   5.286   3.593
15219TIP3    H296126   7.200   5.387   3.492
15220TIP3   OH296127   7.018   4.911   4.985
15220TIP3    H196128   7.097   4.968   4.992
15220TIP3    H296129   6.948   4.974   5.009
15221TIP3   OH296130   6.334   4.762   3.770
15221TIP3    H196131   6.282   4.709   3.832
15221TIP3    H296132   6.362   4.694   3.704
15222TIP3   OH296133   6.256   4.540   4.994
15222TIP3    H196134   6.200   4.613   5.024
15222TIP3    H296135   6.298   4.578   4.916
15223TIP3   OH296136   6.438   4.580   3.589
15223TIP3    H196137   6.429   4.568   3.493
15223TIP3    H296138   6.536   4.592   3.600
15224TIP3   OH296139   6.289   4.281   5.104
15224TIP3    H196140   6.307   4.209   5.042
15224TIP3    H296141   6.293   4.361   5.050
15225TIP3   OH296142   6.337   4.114   4.859
15225TIP3    H196143   6.390   4.164   4.792
15225TIP3    H296144   6.250   4.108   4.816
15226TIP3   OH296145   6.494   4.664   4.883
15226TIP3    H196146   6.570   4.649   4.826
15226TIP3    H296147   6.457   4.748   4.852
15227TIP3   OH296148   6.421   3.864   4.899
15227TIP3    H196149   6.399   3.959   4.890
15227TIP3    H296150   6.345   3.824   4.853
15228TIP3   OH296151   6.423   5.652   3.690
15228TIP3    H196152   6.519   5.663   3.704
15228TIP3    H296153   6.404   5.719   3.625
15229TIP3   OH296154   5.782   5.111   3.644
15229TIP3    H196155   5.877   5.120   3.665
15229TIP3    H296156   5.782   5.051   3.569
15230TIP3   OH296157   5.655   5.649   4.141
15230TIP3    H196158   5.584   5.600   4.094
15230TIP3    H296159   5.684   5.583   4.207
15231TIP3   OH296160   5.738   5.462   4.328
15231TIP3    H196161   5.702   5.374   4.348
15231TIP3    H296162   5.760   5.495   4.417
15232TIP3   OH296163   7.488   5.544   4.621
15232TIP3    H196164   7.493   5.557   4.718
15232TIP3    H296165   7.562   5.598   4.593
15233TIP3   OH296166   7.457   5.501   4.905
15233TIP3    H196167   7.401   5.425   4.880
15233TIP3    H296168   7.499   5.459   4.983
15234TIP3   OH296169   7.428   4.904   3.923
15234TIP3    H196170   7.511   4.946   3.949
15234TIP3    H296171   7.424   4.836   3.995
15235TIP3   OH296172   7.464   4.707   4.104
15235TIP3    H196173   7.388   4.668   4.154
15235TIP3    H296174   7.514   4.731   4.187
15236TIP3   OH296175   7.441   4.989   4.625
15236TIP3    H196176   7.509   4.941   4.572
15236TIP3    H296177   7.453   5.080   4.592
15237TIP3   OH296178   7.291   5.272   4.839
15237TIP3    H196179   7.225   5.311   4.901
15237TIP3    H296180   7.234   5.233   4.770
15238TIP3   OH296181   7.489   4.696   3.753
15238TIP3    H196182   7.433   4.731   3.683
15238TIP3    H296183   7.484   4.766   3.822
15239TIP3   OH296184   7.239   4.560   4.168
15239TIP3    H196185   7.229   4.465   4.171
15239TIP3    H296186   7.216   4.586   4.260
15240TIP3   OH296187   5.744   4.770   4.577
15240TIP3    H196188   5.762   4.762   4.481
15240TIP3    H296189   5.833   4.753   4.613
15241TIP3   OH296190   7.334   4.754   5.136
15241TIP3    H196191   7.393   4.684   5.160
15241TIP3    H296192   7.388   4.837   5.137
15242TIP3   OH296193   7.253   4.161   3.515
15242TIP3    H196194   7.311   4.121   3.582
15242TIP3    H296195   7.165   4.127   3.537
15243TIP3   OH296196   7.210   4.319   4.018
15243TIP3    H196197   7.240   4.226   4.030
15243TIP3    H296198   7.290   4.359   3.979
15244TIP3   OH296199   7.276   4.373   4.558
15244TIP3    H196200   7.371   4.400   4.560
15244TIP3    H296201   7.252   4.385   4.652
15245TIP3   OH296202   7.313   4.470   4.860
15245TIP3    H196203   7.213   4.468   4.865
15245TIP3    H296204   7.329   4.554   4.811
15246TIP3   OH296205   7.277   4.048   4.021
15246TIP3    H196206   7.298   4.004   4.107
15246TIP3    H296207   7.216   3.984   3.978
15247TIP3   OH296208   5.824   4.127   4.482
15247TIP3    H196209   5.877   4.049   4.500
15247TIP3    H296210   5.879   4.200   4.515
15248TIP3   OH296211   5.653   4.428   4.581
15248TIP3    H196212   5.710   4.404   4.505
15248TIP3    H296213   5.700   4.509   4.608
15249TIP3   OH296214   7.459   4.053   3.680
15249TIP3    H196215   7.501   3.983   3.628
15249TIP3    H296216   7.529   4.119   3.678
15250TIP3   OH296217   5.690   4.056   3.987
15250TIP3    H196218   5.596   4.073   3.976
15250TIP3    H296219   5.731   4.105   3.914
15251TIP3   OH296220   7.164   5.550   4.184
15251TIP3    H196221   7.232   5.519   4.122
15251TIP3    H296222   7.216   5.600   4.249
15252TIP3   OH296223   5.688   3.921   4.812
15252TIP3    H196224   5.623   3.901   4.884
15252TIP3    H296225   5.636   3.992   4.765
15253TIP3   OH296226   6.198   5.339   4.860
15253TIP3    H196227   6.164   5.426   4.835
15253TIP3    H296228   6.292   5.350   4.834
15254TIP3   OH296229   6.634   5.473   5.156
15254TIP3    H196230   6.653   5.452   5.249
15254TIP3    H296231   6.718   5.514   5.129
15255TIP3   OH296232   6.860   5.614   5.077
15255TIP3    H196233   6.933   5.552   5.060
15255TIP3    H296234   6.896   5.648   5.161
15256TIP3   OH296235   7.356   3.881   4.977
15256TIP3    H196236   7.266   3.910   4.951
15256TIP3    H296237   7.361   3.801   4.923
15257TIP3   OH296238   5.940   5.664   4.862
15257TIP3    H196239   5.866   5.714   4.824
15257TIP3    H296240   5.908   5.647   4.952
15258TIP3   OH296241   6.185   5.620   4.766
15258TIP3    H196242   6.100   5.641   4.812
15258TIP3    H296243   6.182   5.683   4.692
15259TIP3   OH296244   6.661   5.615   4.683
15259TIP3    H196245   6.611   5.671   4.623
15259TIP3    H296246   6.670   5.676   4.760
15260TIP3   OH296247   6.888   5.494   4.780
15260TIP3    H196248   6.801   5.524   4.751
15260TIP3    H296249   6.935   5.579   4.780
15261TIP3   OH296250   7.145   5.655   4.811
15261TIP3    H196251   7.141   5.750   4.787
15261TIP3    H296252   7.169   5.615   4.725
15262TIP3   OH296253   5.887   5.529   4.557
15262TIP3    H196254   5.880   5.486   4.645
15262TIP3    H296255   5.968   5.492   4.518
15263TIP3   OH296256   6.095   5.401   4.421
15263TIP3    H196257   6.078   5.307   4.444
15263TIP3    H296258   6.180   5.416   4.467
15264TIP3   OH296259   6.355   5.449   4.509
15264TIP3    H196260   6.371   5.357   4.483
15264TIP3    H296261   6.360   5.445   4.606
15265TIP3   OH296262   6.700   4.014   4.423
15265TIP3    H196263   6.633   3.950   4.451
15265TIP3    H296264   6.756   3.961   4.365
15266TIP3   OH296265   7.214   3.819   4.429
15266TIP3    H196266   7.276   3.878   4.379
15266TIP3    H296267   7.126   3.856   4.407
15267TIP3   OH296268   7.382   3.943   4.257
15267TIP3    H196269   7.451   3.886   4.216
15267TIP3    H296270   7.432   4.028   4.268
15268TIP3   OH296271   5.935   3.875   4.209
15268TIP3    H196272   5.858   3.857   4.153
15268TIP3    H296273   5.984   3.791   4.199
15269TIP3   OH296274   5.812   3.854   3.779
15269TIP3    H196275   5.863   3.917   3.725
15269TIP3    H296276   5.757   3.910   3.836
15270TIP3   OH296277   6.385   3.869   4.186
15270TIP3    H196278   6.475   3.905   4.179
15270TIP3    H296279   6.381   3.848   4.280
15271TIP3   OH296280   6.955   3.871   4.349
15271TIP3    H196281   6.951   3.882   4.254
15271TIP3    H296282   6.918   3.781   4.362
15272TIP3   OH296283   7.083   3.874   3.915
15272TIP3    H196284   7.009   3.934   3.899
15272TIP3    H296285   7.040   3.789   3.939
15273TIP3   OH296286   5.807   5.449   3.881
15273TIP3    H196287   5.739   5.448   3.811
15273TIP3    H296288   5.809   5.544   3.898
15274TIP3   OH296289   5.997   4.038   3.635
15274TIP3    H196290   6.052   3.985   3.578
15274TIP3    H296291   6.065   4.080   3.691
15275TIP3   OH296292   6.502   4.071   3.871
15275TIP3    H196293   6.526   4.013   3.946
15275TIP3    H296294   6.506   4.158   3.919
15276TIP3   OH296295   6.690   5.580   3.712
15276TIP3    H196296   6.784   5.601   3.699
15276TIP3    H296297   6.674   5.525   3.635
15277TIP3   OH296298   7.364   5.529   3.988
15277TIP3    H196299   7.343   5.451   3.930
15277TIP3    H296300   7.355   5.602   3.924
15278TIP3   OH296301   5.908   3.893   5.128
15278TIP3    H196302   5.879   3.837   5.201
15278TIP3    H296303   5.996   3.910   5.164
15279TIP3   OH296304   5.988   5.544   3.577
15279TIP3    H196305   5.960   5.574   3.665
15279TIP3    H296306   6.066   5.492   3.594
15280TIP3   OH296307   7.857   4.682   4.700
15280TIP3    H196308   7.862   4.614   4.771
15280TIP3    H296309   7.929   4.742   4.722
15281TIP3   OH296310   7.943   5.125   4.554
15281TIP3    H196311   7.913   5.039   4.517
15281TIP3    H296312   8.040   5.111   4.557
15282TIP3   OH296313   7.614   4.483   4.090
15282TIP3    H196314   7.569   4.571   4.096
15282TIP3    H296315   7.549   4.432   4.040
15283TIP3   OH296316   7.703   4.705   4.303
15283TIP3    H196317   7.715   4.624   4.355
15283TIP3    H296318   7.773   4.709   4.239
15284TIP3   OH296319   8.041   4.224   4.366
15284TIP3    H196320   8.085   4.296   4.315
15284TIP3    H296321   8.040   4.159   4.296
15285TIP3   OH296322   7.748   4.451   4.417
15285TIP3    H196323   7.818   4.399   4.462
15285TIP3    H296324   7.756   4.421   4.325
15286TIP3   OH296325   7.971   4.098   4.747
15286TIP3    H196326   7.944   4.158   4.674
15286TIP3    H296327   7.905   4.124   4.814
15287TIP3   OH296328   7.922   4.297   4.573
15287TIP3    H196329   7.994   4.362   4.584
15287TIP3    H296330   7.967   4.255   4.493
15288TIP3   OH296331   8.052   5.076   4.843
15288TIP3    H196332   8.057   5.172   4.825
15288TIP3    H296333   7.970   5.072   4.898
15289TIP3   OH296334   7.680   5.030   3.929
15289TIP3    H196335   7.653   5.063   3.842
15289TIP3    H296336   7.682   5.111   3.985
15290TIP3   OH296337   8.084   4.804   4.229
15290TIP3    H196338   8.071   4.767   4.140
15290TIP3    H296339   8.158   4.748   4.264
15291TIP3   OH296340   7.922   4.735   4.986
15291TIP3    H196341   7.929   4.803   5.052
15291TIP3    H296342   7.831   4.743   4.955
15292TIP3   OH296343   8.047   5.328   5.139
15292TIP3    H196344   8.054   5.310   5.044
15292TIP3    H296345   7.955   5.310   5.162
15293TIP3   OH296346   8.002   4.702   3.992
15293TIP3    H196347   7.975   4.781   3.940
15293TIP3    H296348   7.931   4.641   3.969
15294TIP3   OH296349   7.613   4.947   4.875
15294TIP3    H196350   7.567   4.939   4.788
15294TIP3    H296351   7.615   4.852   4.898
15295TIP3   OH296352   7.589   5.222   4.559
15295TIP3    H196353   7.684   5.208   4.557
15295TIP3    H296354   7.580   5.302   4.611
15296TIP3   OH296355   7.910   5.507   4.174
15296TIP3    H196356   7.927   5.464   4.260
15296TIP3    H296357   7.827   5.462   4.151
15297TIP3   OH296358   7.834   5.078   4.977
15297TIP3    H196359   7.855   5.042   5.063
15297TIP3    H296360   7.748   5.038   4.953
15298TIP3   OH296361   8.101   3.925   4.569
15298TIP3    H196362   8.012   3.916   4.529
15298TIP3    H296363   8.095   4.013   4.608
15299TIP3   OH296364   8.112   4.437   4.762
15299TIP3    H196365   8.018   4.414   4.774
15299TIP3    H296366   8.100   4.489   4.680
15300TIP3   OH296367   8.083   4.419   4.208
15300TIP3    H196368   7.994   4.403   4.171
15300TIP3    H296369   8.144   4.398   4.137
15301TIP3   OH296370   7.875   4.453   4.870
15301TIP3    H196371   7.880   4.491   4.959
15301TIP3    H296372   7.837   4.365   4.884
15302TIP3   OH296373   7.545   4.159   4.261
15302TIP3    H196374   7.613   4.156   4.331
15302TIP3    H296375   7.590   4.123   4.183
15303TIP3   OH296376   7.677   4.235   3.803
15303TIP3    H196377   7.718   4.290   3.736
15303TIP3    H296378   7.603   4.294   3.830
15304TIP3   OH296379   7.842   4.343   4.168
15304TIP3    H196380   7.754   4.359   4.129
15304TIP3    H296381   7.875   4.258   4.134
15305TIP3   OH296382   8.087   4.459   3.691
15305TIP3    H196383   8.026   4.434   3.620
15305TIP3    H296384   8.164   4.489   3.643
15306TIP3   OH296385   7.974   4.078   4.107
15306TIP3    H196386   7.955   3.983   4.120
15306TIP3    H296387   8.070   4.077   4.090
15307TIP3   OH296388   7.932   4.860   4.462
15307TIP3    H196389   8.000   4.851   4.393
15307TIP3    H296390   7.935   4.773   4.506
15308TIP3   OH296391   7.627   4.701   4.988
15308TIP3    H196392   7.650   4.658   5.071
15308TIP3    H296393   7.566   4.640   4.942
15309TIP3   OH296394   7.741   4.695   3.650
15309TIP3    H196395   7.803   4.753   3.696
15309TIP3    H296396   7.654   4.718   3.686
15310TIP3   OH296397   7.795   4.176   4.944
15310TIP3    H196398   7.704   4.210   4.938
15310TIP3    H296399   7.784   4.090   4.988
15311TIP3   OH296400   7.759   5.353   4.785
15311TIP3    H196401   7.784   5.260   4.788
15311TIP3    H296402   7.782   5.383   4.874
15312TIP3   OH296403   7.880   4.884   3.803
15312TIP3    H196404   7.814   4.924   3.864
15312TIP3    H296405   7.933   4.962   3.782
15313TIP3   OH296406  -0.047   4.097   3.769
15313TIP3    H196407  -0.045   4.183   3.812
15313TIP3    H296408   0.044   4.070   3.791
15314TIP3   OH296409   7.943   5.139   3.696
15314TIP3    H196410   8.003   5.209   3.725
15314TIP3    H296411   7.993   5.101   3.624
15315TIP3   OH296412   7.855   3.889   4.480
15315TIP3    H196413   7.834   3.893   4.384
15315TIP3    H296414   7.813   3.805   4.508
15316TIP3   OH296415   7.749   5.282   4.095
15316TIP3    H196416   7.665   5.329   4.090
15316TIP3    H296417   7.801   5.329   4.028
15317TIP3   OH296418   7.669   5.112   3.643
15317TIP3    H196419   7.764   5.120   3.665
15317TIP3    H296420   7.669   5.051   3.569
15318TIP3   OH296421   7.541   5.650   4.140
15318TIP3    H196422   7.469   5.601   4.094
15318TIP3    H296423   7.571   5.584   4.206
15319TIP3   OH296424   7.625   5.462   4.327
15319TIP3    H196425   7.590   5.374   4.348
15319TIP3    H296426   7.648   5.495   4.416
15320TIP3   OH296427   7.636   4.767   4.591
15320TIP3    H196428   7.639   4.762   4.493
15320TIP3    H296429   7.729   4.748   4.614
15321TIP3   OH296430   7.711   4.127   4.479
15321TIP3    H196431   7.762   4.046   4.500
15321TIP3    H296432   7.766   4.197   4.517
15322TIP3   OH296433   7.542   4.426   4.583
15322TIP3    H196434   7.598   4.407   4.504
15322TIP3    H296435   7.583   4.510   4.607
15323TIP3   OH296436   7.576   4.056   3.987
15323TIP3    H196437   7.482   4.073   3.975
15323TIP3    H296438   7.618   4.105   3.915
15324TIP3   OH296439   7.571   3.921   4.819
15324TIP3    H196440   7.499   3.909   4.882
15324TIP3    H296441   7.527   3.990   4.763
15325TIP3   OH296442   8.090   5.340   4.862
15325TIP3    H196443   8.051   5.426   4.836
15325TIP3    H296444   8.182   5.354   4.833
15326TIP3   OH296445   7.828   5.666   4.863
15326TIP3    H196446   7.752   5.712   4.824
15326TIP3    H296447   7.793   5.647   4.952
15327TIP3   OH296448   8.057   5.599   4.753
15327TIP3    H196449   7.983   5.632   4.809
15327TIP3    H296450   8.070   5.677   4.694
15328TIP3   OH296451   7.768   5.529   4.558
15328TIP3    H196452   7.765   5.485   4.646
15328TIP3    H296453   7.851   5.494   4.519
15329TIP3   OH296454   7.980   5.402   4.425
15329TIP3    H196455   7.962   5.308   4.445
15329TIP3    H296456   8.065   5.414   4.470
15330TIP3   OH296457   7.821   3.877   4.210
15330TIP3    H196458   7.742   3.855   4.156
15330TIP3    H296459   7.869   3.792   4.206
15331TIP3   OH296460   7.694   3.853   3.778
15331TIP3    H196461   7.749   3.916   3.727
15331TIP3    H296462   7.642   3.911   3.836
15332TIP3   OH296463   7.691   5.448   3.881
15332TIP3    H196464   7.624   5.448   3.810
15332TIP3    H296465   7.692   5.543   3.898
15333TIP3   OH296466   7.881   4.038   3.636
15333TIP3    H196467   7.936   3.990   3.573
15333TIP3    H296468   7.952   4.078   3.692
15334TIP3   OH296469   7.793   3.891   5.129
15334TIP3    H196470   7.768   3.837   5.204
15334TIP3    H296471   7.880   3.915   5.165
15335TIP3   OH296472   7.873   5.545   3.576
15335TIP3    H196473   7.846   5.575   3.664
15335TIP3    H296474   7.952   5.493   3.592
15336TIP3   OH296475   1.190   6.676   4.194
15336TIP3    H196476   1.189   6.774   4.189
15336TIP3    H296477   1.117   6.653   4.133
15337TIP3   OH296478   1.075   6.602   4.544
15337TIP3    H196479   1.074   6.536   4.615
15337TIP3    H296480   1.041   6.552   4.468
15338TIP3   OH296481   0.313   6.567   4.693
15338TIP3    H196482   0.318   6.501   4.766
15338TIP3    H296483   0.383   6.627   4.723
15339TIP3   OH296484   1.444   6.897   4.372
15339TIP3    H196485   1.402   6.826   4.421
15339TIP3    H296486   1.446   6.967   4.439
15340TIP3   OH296487   0.411   7.021   4.563
15340TIP3    H196488   0.373   6.932   4.562
15340TIP3    H296489   0.507   7.001   4.566
15341TIP3   OH296490   0.100   6.399   4.042
15341TIP3    H196491   0.042   6.463   4.088
15341TIP3    H296492   0.033   6.335   4.021
15342TIP3   OH296493   0.160   6.591   4.321
15342TIP3    H196494   0.168   6.500   4.359
15342TIP3    H296495   0.216   6.592   4.243
15343TIP3   OH296496   1.156   7.413   4.395
15343TIP3    H196497   1.221   7.343   4.367
15343TIP3    H296498   1.135   7.380   4.483
15344TIP3   OH296499   0.912   6.842   4.590
15344TIP3    H196500   0.947   6.779   4.525
15344TIP3    H296501   0.992   6.858   4.643
15345TIP3   OH296502   1.774   6.008   4.665
15345TIP3    H196503   1.790   6.066   4.742
15345TIP3    H296504   1.830   6.050   4.598
15346TIP3   OH296505   1.227   6.288   4.623
15346TIP3    H196506   1.246   6.193   4.622
15346TIP3    H296507   1.219   6.303   4.527
15347TIP3   OH296508   0.543   6.098   4.342
15347TIP3    H196509   0.550   6.185   4.298
15347TIP3    H296510   0.498   6.041   4.276
15348TIP3   OH296511   1.315   6.105   4.180
15348TIP3    H196512   1.381   6.074   4.248
15348TIP3    H296513   1.371   6.163   4.126
15349TIP3   OH296514   0.222   6.340   4.412
15349TIP3    H196515   0.279   6.277   4.460
15349TIP3    H296516   0.216   6.302   4.324
15350TIP3   OH296517   0.717   6.495   4.348
15350TIP3    H196518   0.785   6.438   4.389
15350TIP3    H296519   0.667   6.428   4.299
15351TIP3   OH296520   1.821   6.155   4.889
15351TIP3    H196521   1.752   6.224   4.878
15351TIP3    H296522   1.818   6.137   4.984
15352TIP3   OH296523   0.431   5.986   4.745
15352TIP3    H196524   0.400   6.044   4.672
15352TIP3    H296525   0.363   6.007   4.814
15353TIP3   OH296526   1.160   6.936   4.103
15353TIP3    H196527   1.132   6.908   4.015
15353TIP3    H296528   1.130   7.029   4.107
15354TIP3   OH296529   0.682   6.752   4.769
15354TIP3    H196530   0.613   6.817   4.797
15354TIP3    H296531   0.755   6.811   4.745
15355TIP3   OH296532   1.495   6.040   4.380
15355TIP3    H196533   1.474   5.963   4.434
15355TIP3    H296534   1.563   6.084   4.434
15356TIP3   OH296535   0.386   6.172   4.552
15356TIP3    H196536   0.449   6.242   4.583
15356TIP3    H296537   0.440   6.131   4.480
15357TIP3   OH296538   0.524   6.953   4.851
15357TIP3    H196539   0.524   7.046   4.823
15357TIP3    H296540   0.438   6.946   4.897
15358TIP3   OH296541   0.136   6.917   3.934
15358TIP3    H196542   0.112   6.941   3.844
15358TIP3    H296543   0.140   7.002   3.981
15359TIP3   OH296544   1.497   7.080   4.607
15359TIP3    H196545   1.400   7.091   4.622
15359TIP3    H296546   1.524   7.172   4.590
15360TIP3   OH296547   1.529   5.912   4.752
15360TIP3    H196548   1.455   5.973   4.738
15360TIP3    H296549   1.599   5.951   4.697
15361TIP3   OH296550   0.826   5.721   4.492
15361TIP3    H196551   0.813   5.624   4.488
15361TIP3    H296552   0.739   5.751   4.525
15362TIP3   OH296553   1.323   7.259   4.268
15362TIP3    H196554   1.366   7.187   4.217
15362TIP3    H296555   1.366   7.338   4.229
15363TIP3   OH296556   1.444   7.051   4.119
15363TIP3    H196557   1.414   6.982   4.058
15363TIP3    H296558   1.447   7.002   4.203
15364TIP3   OH296559   1.609   6.910   4.969
15364TIP3    H196560   1.619   6.848   4.894
15364TIP3    H296561   1.627   6.997   4.927
15365TIP3   OH296562   1.055   6.601   3.944
15365TIP3    H196563   0.985   6.658   3.906
15365TIP3    H296564   1.125   6.609   3.877
15366TIP3   OH296565   1.061   6.452   3.653
15366TIP3    H196566   1.134   6.454   3.716
15366TIP3    H296567   1.093   6.389   3.589
15367TIP3   OH296568   1.795   6.539   4.772
15367TIP3    H196569   1.730   6.613   4.779
15367TIP3    H296570   1.844   6.565   4.692
15368TIP3   OH296571   1.400   6.619   4.037
15368TIP3    H196572   1.327   6.646   4.098
15368TIP3    H296573   1.447   6.554   4.092
15369TIP3   OH296574   1.389   6.437   4.948
15369TIP3    H196575   1.393   6.517   5.001
15369TIP3    H296576   1.328   6.468   4.878
15370TIP3   OH296577   0.558   6.690   4.231
15370TIP3    H196578   0.528   6.649   4.146
15370TIP3    H296579   0.622   6.619   4.262
15371TIP3   OH296580   0.689   7.022   4.497
15371TIP3    H196581   0.698   6.973   4.415
15371TIP3    H296582   0.771   6.992   4.543
15372TIP3   OH296583   0.592   6.564   4.593
15372TIP3    H196584   0.652   6.570   4.516
15372TIP3    H296585   0.632   6.628   4.657
15373TIP3   OH296586   1.234   7.119   4.666
15373TIP3    H196587   1.206   7.183   4.731
15373TIP3    H296588   1.211   7.033   4.709
15374TIP3   OH296589   0.686   7.002   5.070
15374TIP3    H196590   0.651   7.083   5.110
15374TIP3    H296591   0.624   6.985   4.996
15375TIP3   OH296592   1.288   6.538   3.804
15375TIP3    H196593   1.341   6.559   3.886
15375TIP3    H296594   1.326   6.595   3.736
15376TIP3   OH296595   0.381   6.622   4.984
15376TIP3    H196596   0.387   6.688   5.053
15376TIP3    H296597   0.290   6.632   4.955
15377TIP3   OH296598   1.059   7.213   4.151
15377TIP3    H196599   1.102   7.244   4.231
15377TIP3    H296600   1.002   7.288   4.127
15378TIP3   OH296601   0.510   7.206   5.138
15378TIP3    H196602   0.509   7.200   5.042
15378TIP3    H296603   0.417   7.199   5.162
15379TIP3   OH296604   1.659   5.713   3.794
15379TIP3    H196605   1.564   5.727   3.818
15379TIP3    H296606   1.681   5.798   3.753
15380TIP3   OH296607   0.457   6.589   3.993
15380TIP3    H196608   0.431   6.666   3.937
15380TIP3    H296609   0.389   6.525   3.969
15381TIP3   OH296610   1.770   7.148   3.633
15381TIP3    H196611   1.783   7.245   3.643
15381TIP3    H296612   1.862   7.120   3.623
15382TIP3   OH296613   0.110   6.807   4.859
15382TIP3    H196614   0.031   6.830   4.805
15382TIP3    H296615   0.073   6.729   4.904
15383TIP3   OH296616   0.050   7.112   4.551
15383TIP3    H196617   0.143   7.092   4.563
15383TIP3    H296618   0.034   7.184   4.613
15384TIP3   OH296619   1.874   7.173   5.072
15384TIP3    H196620   1.868   7.084   5.108
15384TIP3    H296621   1.807   7.211   5.132
15385TIP3   OH296622   0.963   7.129   5.012
15385TIP3    H196623   0.970   7.214   5.063
15385TIP3    H296624   0.874   7.096   5.036
15386TIP3   OH296625   1.004   7.504   3.991
15386TIP3    H196626   0.997   7.498   3.895
15386TIP3    H296627   1.009   7.600   4.009
15387TIP3   OH296628   0.372   7.390   4.173
15387TIP3    H196629   0.383   7.352   4.263
15387TIP3    H296630   0.285   7.353   4.150
15388TIP3   OH296631   1.309   7.425   3.689
15388TIP3    H196632   1.356   7.349   3.648
15388TIP3    H296633   1.317   7.400   3.783
15389TIP3   OH296634   1.281   7.420   3.969
15389TIP3    H196635   1.186   7.426   3.988
15389TIP3    H296636   1.307   7.345   4.026
15390TIP3   OH296637   0.292   6.966   4.979
15390TIP3    H196638   0.311   6.926   5.064
15390TIP3    H296639   0.208   6.924   4.948
15391TIP3   OH296640   0.565   5.812   4.567
15391TIP3    H196641   0.473   5.800   4.532
15391TIP3    H296642   0.552   5.894   4.617
15392TIP3   OH296643   1.027   5.781   4.908
15392TIP3    H196644   1.066   5.737   4.985
15392TIP3    H296645   0.929   5.764   4.921
15393TIP3   OH296646   1.342   6.161   4.988
15393TIP3    H196647   1.310   6.144   5.079
15393TIP3    H296648   1.344   6.257   4.976
15394TIP3   OH296649   0.985   6.038   3.640
15394TIP3    H196650   0.964   6.029   3.733
15394TIP3    H296651   0.967   5.948   3.610
15395TIP3   OH296652   0.570   6.308   4.692
15395TIP3    H196653   0.500   6.307   4.759
15395TIP3    H296654   0.567   6.400   4.658
15396TIP3   OH296655   0.570   6.316   4.185
15396TIP3    H196656   0.474   6.299   4.169
15396TIP3    H296657   0.610   6.301   4.097
15397TIP3   OH296658   1.121   6.369   4.057
15397TIP3    H196659   1.081   6.453   4.024
15397TIP3    H296660   1.190   6.353   3.990
15398TIP3   OH296661   1.224   6.319   4.342
15398TIP3    H196662   1.197   6.375   4.268
15398TIP3    H296663   1.235   6.234   4.295
15399TIP3   OH296664   0.334   6.337   4.865
15399TIP3    H196665   0.343   6.374   4.955
15399TIP3    H296666   0.293   6.251   4.884
15400TIP3   OH296667   0.084   6.055   4.211
15400TIP3    H196668   0.073   6.036   4.307
15400TIP3    H296669   0.070   5.968   4.169
15401TIP3   OH296670   0.148   6.140   3.816
15401TIP3    H196671   0.181   6.182   3.735
15401TIP3    H296672   0.065   6.190   3.825
15402TIP3   OH296673   1.148   6.477   4.803
15402TIP3    H196674   1.183   6.411   4.740
15402TIP3    H296675   1.098   6.422   4.866
15403TIP3   OH296676   0.822   6.074   4.280
15403TIP3    H196677   0.730   6.076   4.316
15403TIP3    H296678   0.874   6.060   4.361
15404TIP3   OH296679   0.313   6.232   4.158
15404TIP3    H196680   0.220   6.245   4.130
15404TIP3    H296681   0.330   6.140   4.131
15405TIP3   OH296682   0.680   6.270   3.939
15405TIP3    H196683   0.778   6.263   3.943
15405TIP3    H296684   0.655   6.317   3.856
15406TIP3   OH296685   1.266   5.999   4.607
15406TIP3    H196686   1.197   6.005   4.676
15406TIP3    H296687   1.216   5.974   4.528
15407TIP3   OH296688   0.546   6.343   3.693
15407TIP3    H196689   0.486   6.321   3.620
15407TIP3    H296690   0.622   6.378   3.643
15408TIP3   OH296691   0.953   6.351   4.471
15408TIP3    H196692   1.013   6.297   4.417
15408TIP3    H296693   0.939   6.296   4.549
15409TIP3   OH296694   0.450   5.966   4.107
15409TIP3    H196695   0.415   5.875   4.118
15409TIP3    H296696   0.535   5.939   4.071
15410TIP3   OH296697   0.818   6.183   4.712
15410TIP3    H196698   0.735   6.234   4.719
15410TIP3    H296699   0.873   6.218   4.785
15411TIP3   OH296700   0.877   6.805   3.885
15411TIP3    H196701   0.797   6.759   3.850
15411TIP3    H296702   0.854   6.816   3.979
15412TIP3   OH296703   1.596   6.723   4.763
15412TIP3    H196704   1.651   6.774   4.701
15412TIP3    H296705   1.509   6.730   4.717
15413TIP3   OH296706   1.261   6.086   3.700
15413TIP3    H196707   1.168   6.103   3.683
15413TIP3    H296708   1.293   6.173   3.732
15414TIP3   OH296709   1.026   6.834   5.001
15414TIP3    H196710   0.991   6.790   5.079
15414TIP3    H296711   1.001   6.927   5.014
15415TIP3   OH296712   1.334   6.279   3.867
15415TIP3    H196713   1.424   6.265   3.903
15415TIP3    H296714   1.342   6.360   3.814
15416TIP3   OH296715   0.390   6.738   4.464
15416TIP3    H196716   0.459   6.724   4.397
15416TIP3    H296717   0.395   6.652   4.511
15417TIP3   OH296718   1.087   6.953   3.791
15417TIP3    H196719   1.049   7.038   3.821
15417TIP3    H296720   1.012   6.891   3.805
15418TIP3   OH296721   0.085   6.582   4.987
15418TIP3    H196722   0.107   6.541   5.071
15418TIP3    H296723   0.023   6.521   4.945
15419TIP3   OH296724   1.252   7.075   5.001
15419TIP3    H196725   1.161   7.096   4.976
15419TIP3    H296726   1.254   7.098   5.094
15420TIP3   OH296727   1.819   6.294   3.842
15420TIP3    H196728   1.770   6.260   3.766
15420TIP3    H296729   1.832   6.387   3.812
15421TIP3   OH296730   1.819   6.867   5.117
15421TIP3    H196731   1.733   6.904   5.082
15421TIP3    H296732   1.874   6.876   5.037
15422TIP3   OH296733   1.653   7.177   3.880
15422TIP3    H196734   1.615   7.095   3.914
15422TIP3    H296735   1.682   7.156   3.788
15423TIP3   OH296736   1.373   6.657   4.591
15423TIP3    H196737   1.279   6.636   4.579
15423TIP3    H296738   1.416   6.582   4.547
15424TIP3   OH296739   0.619   7.092   4.206
15424TIP3    H196740   0.675   7.168   4.181
15424TIP3    H296741   0.537   7.118   4.162
15425TIP3   OH296742   0.192   6.572   3.660
15425TIP3    H196743   0.259   6.636   3.693
15425TIP3    H296744   0.110   6.611   3.688
15426TIP3   OH296745   0.765   6.857   4.154
15426TIP3    H196746   0.736   6.949   4.161
15426TIP3    H296747   0.693   6.807   4.197
15427TIP3   OH296748   0.810   7.276   4.790
15427TIP3    H196749   0.855   7.357   4.765
15427TIP3    H296750   0.871   7.241   4.857
15428TIP3   OH296751   0.633   7.355   4.107
15428TIP3    H196752   0.537   7.371   4.119
15428TIP3    H296753   0.670   7.439   4.140
15429TIP3   OH296754   1.165   6.876   4.753
15429TIP3    H196755   1.131   6.858   4.843
15429TIP3    H296756   1.230   6.805   4.740
15430TIP3   OH296757   1.392   6.978   3.667
15430TIP3    H196758   1.423   6.935   3.749
15430TIP3    H296759   1.296   6.965   3.674
15431TIP3   OH296760   1.437   7.334   5.008
15431TIP3    H196761   1.376   7.283   4.953
15431TIP3    H296762   1.465   7.403   4.944
15432TIP3   OH296763   1.844   7.422   3.689
15432TIP3    H196764   1.914   7.484   3.665
15432TIP3    H296765   1.773   7.482   3.719
15433TIP3   OH296766   0.252   6.063   4.944
15433TIP3    H196767   0.162   6.096   4.940
15433TIP3    H296768   0.240   5.975   4.984
15434TIP3   OH296769   1.476   6.844   3.887
15434TIP3    H196770   1.451   6.767   3.942
15434TIP3    H296771   1.570   6.853   3.909
15435TIP3   OH296772   0.212   7.235   4.786
15435TIP3    H196773   0.242   7.144   4.789
15435TIP3    H296774   0.242   7.270   4.871
15436TIP3   OH296775   0.684   7.045   3.756
15436TIP3    H196776   0.714   6.991   3.830
15436TIP3    H296777   0.697   7.137   3.790
15437TIP3   OH296778   0.336   6.770   3.804
15437TIP3    H196779   0.268   6.809   3.863
15437TIP3    H296780   0.393   6.846   3.782
15438TIP3   OH296781   1.122   6.036   4.837
15438TIP3    H196782   1.196   6.040   4.899
15438TIP3    H296783   1.085   5.947   4.853
15439TIP3   OH296784   1.199   5.995   3.949
15439TIP3    H196785   1.223   6.040   3.866
15439TIP3    H296786   1.257   6.039   4.012
15440TIP3   OH296787   0.968   7.211   3.831
15440TIP3    H196788   0.886   7.262   3.835
15440TIP3    H296789   1.021   7.261   3.767
15441TIP3   OH296790   0.918   6.169   4.029
15441TIP3    H196791   0.999   6.225   4.031
15441TIP3    H296792   0.898   6.157   4.124
15442TIP3   OH296793   0.986   6.277   4.941
15442TIP3    H196794   0.983   6.326   5.024
15442TIP3    H296795   1.038   6.197   4.957
15443TIP3   OH296796   1.005   5.876   4.115
15443TIP3    H196797   0.978   5.938   4.185
15443TIP3    H296798   1.078   5.929   4.074
15444TIP3   OH296799   0.703   7.314   3.831
15444TIP3    H196800   0.722   7.396   3.781
15444TIP3    H296801   0.681   7.348   3.920
15445TIP3   OH296802   0.574   5.974   3.784
15445TIP3    H196803   0.563   6.070   3.793
15445TIP3    H296804   0.668   5.954   3.805
15446TIP3   OH296805   1.594   6.064   5.037
15446TIP3    H196806   1.501   6.088   5.021
15446TIP3    H296807   1.625   6.054   4.945
15447TIP3   OH296808   1.456   6.437   4.434
15447TIP3    H196809   1.374   6.393   4.407
15447TIP3    H296810   1.504   6.368   4.486
15448TIP3   OH296811   0.398   7.031   3.692
15448TIP3    H196812   0.463   7.094   3.726
15448TIP3    H296813   0.450   6.985   3.625
15449TIP3   OH296814   1.563   7.362   4.599
15449TIP3    H196815   1.554   7.432   4.532
15449TIP3    H296816   1.659   7.369   4.620
15450TIP3   OH296817   0.316   5.773   4.479
15450TIP3    H196818   0.289   5.776   4.385
15450TIP3    H296819   0.267   5.693   4.507
15451TIP3   OH296820   0.210   7.166   4.100
15451TIP3    H196821   0.123   7.209   4.093
15451TIP3    H296822   0.254   7.214   4.028
15452TIP3   OH296823   1.467   7.255   3.547
15452TIP3    H196824   1.492   7.172   3.593
15452TIP3    H296825   1.543   7.273   3.491
15453TIP3   OH296826   1.362   6.796   4.986
15453TIP3    H196827   1.440   6.854   4.993
15453TIP3    H296828   1.292   6.859   5.009
15454TIP3   OH296829   0.677   6.649   3.769
15454TIP3    H196830   0.626   6.596   3.832
15454TIP3    H296831   0.706   6.581   3.703
15455TIP3   OH296832   0.599   6.426   4.995
15455TIP3    H196833   0.543   6.499   5.024
15455TIP3    H296834   0.640   6.464   4.916
15456TIP3   OH296835   0.780   6.465   3.592
15456TIP3    H196836   0.772   6.453   3.496
15456TIP3    H296837   0.878   6.477   3.602
15457TIP3   OH296838   0.631   6.163   5.104
15457TIP3    H196839   0.652   6.095   5.038
15457TIP3    H296840   0.636   6.246   5.052
15458TIP3   OH296841   0.681   6.001   4.859
15458TIP3    H196842   0.733   6.050   4.791
15458TIP3    H296843   0.593   5.993   4.816
15459TIP3   OH296844   0.837   6.549   4.883
15459TIP3    H196845   0.913   6.535   4.825
15459TIP3    H296846   0.800   6.633   4.852
15460TIP3   OH296847   0.763   5.749   4.898
15460TIP3    H196848   0.742   5.845   4.889
15460TIP3    H296849   0.686   5.711   4.852
15461TIP3   OH296850   0.766   7.538   3.691
15461TIP3    H196851   0.863   7.548   3.704
15461TIP3    H296852   0.747   7.606   3.626
15462TIP3   OH296853   0.126   6.994   3.642
15462TIP3    H196854   0.220   7.007   3.665
15462TIP3    H296855   0.133   6.934   3.567
15463TIP3   OH296856   8.143   7.539   4.136
15463TIP3    H196857   8.067   7.492   4.100
15463TIP3    H296858   8.169   7.477   4.207
15464TIP3   OH296859   0.088   7.347   4.324
15464TIP3    H196860   0.045   7.262   4.343
15464TIP3    H296861   0.107   7.385   4.413
15465TIP3   OH296862   1.835   7.427   4.622
15465TIP3    H196863   1.837   7.443   4.718
15465TIP3    H296864   1.906   7.485   4.592
15466TIP3   OH296865   1.796   7.387   4.910
15466TIP3    H196866   1.746   7.309   4.878
15466TIP3    H296867   1.846   7.342   4.982
15467TIP3   OH296868   1.770   6.790   3.925
15467TIP3    H196869   1.854   6.832   3.947
15467TIP3    H296870   1.767   6.721   3.995
15468TIP3   OH296871   1.804   6.599   4.113
15468TIP3    H196872   1.730   6.549   4.153
15468TIP3    H296873   1.864   6.613   4.189
15469TIP3   OH296874   1.779   6.867   4.609
15469TIP3    H196875   1.862   6.831   4.575
15469TIP3    H296876   1.794   6.963   4.595
15470TIP3   OH296877   1.633   7.159   4.840
15470TIP3    H196878   1.565   7.194   4.900
15470TIP3    H296879   1.579   7.118   4.769
15471TIP3   OH296880   1.832   6.582   3.752
15471TIP3    H196881   1.776   6.617   3.682
15471TIP3    H296882   1.827   6.653   3.819
15472TIP3   OH296883   1.586   6.446   4.170
15472TIP3    H196884   1.571   6.351   4.169
15472TIP3    H296885   1.553   6.469   4.259
15473TIP3   OH296886   0.084   6.656   4.573
15473TIP3    H196887   0.104   6.644   4.478
15473TIP3    H296888   0.170   6.638   4.616
15474TIP3   OH296889   1.677   6.641   5.139
15474TIP3    H196890   1.736   6.569   5.158
15474TIP3    H296891   1.732   6.722   5.135
15475TIP3   OH296892   1.596   6.045   3.515
15475TIP3    H196893   1.655   6.007   3.583
15475TIP3    H296894   1.508   6.012   3.537
15476TIP3   OH296895   1.554   6.205   4.018
15476TIP3    H196896   1.584   6.112   4.030
15476TIP3    H296897   1.633   6.245   3.979
15477TIP3   OH296898   1.617   6.260   4.560
15477TIP3    H196899   1.713   6.283   4.560
15477TIP3    H296900   1.598   6.273   4.654
15478TIP3   OH296901   1.624   6.334   4.840
15478TIP3    H196902   1.536   6.362   4.874
15478TIP3    H296903   1.666   6.420   4.817
15479TIP3   OH296904   1.620   5.933   4.021
15479TIP3    H196905   1.641   5.890   4.107
15479TIP3    H296906   1.559   5.869   3.978
15480TIP3   OH296907   0.166   6.013   4.476
15480TIP3    H196908   0.213   5.932   4.504
15480TIP3    H296909   0.219   6.082   4.517
15481TIP3   OH296910  -0.006   6.340   4.519
15481TIP3    H196911   0.067   6.284   4.487
15481TIP3    H296912   0.048   6.388   4.585
15482TIP3   OH296913   1.802   5.939   3.680
15482TIP3    H196914   1.844   5.868   3.628
15482TIP3    H296915   1.873   6.005   3.679
15483TIP3   OH296916   0.053   5.931   3.988
15483TIP3    H196917  -0.042   5.945   3.966
15483TIP3    H296918   0.092   5.993   3.926
15484TIP3   OH296919   1.507   7.434   4.185
15484TIP3    H196920   1.575   7.404   4.122
15484TIP3    H296921   1.559   7.485   4.249
15485TIP3   OH296922   8.180   5.826   4.830
15485TIP3    H196923   8.112   5.785   4.885
15485TIP3    H296924   8.123   5.876   4.769
15486TIP3   OH296925   0.539   7.223   4.857
15486TIP3    H196926   0.506   7.311   4.834
15486TIP3    H296927   0.634   7.235   4.834
15487TIP3   OH296928   0.977   7.362   5.157
15487TIP3    H196929   0.994   7.336   5.248
15487TIP3    H296930   1.062   7.398   5.129
15488TIP3   OH296931   1.200   7.500   5.079
15488TIP3    H196932   1.271   7.439   5.057
15488TIP3    H296933   1.240   7.534   5.162
15489TIP3   OH296934   1.708   5.759   4.985
15489TIP3    H196935   1.619   5.784   4.955
15489TIP3    H296936   1.721   5.672   4.942
15490TIP3   OH296937   0.283   7.544   4.861
15490TIP3    H196938   0.213   7.600   4.823
15490TIP3    H296939   0.249   7.535   4.952
15491TIP3   OH296940   0.532   7.508   4.770
15491TIP3    H196941   0.443   7.525   4.810
15491TIP3    H296942   0.525   7.566   4.691
15492TIP3   OH296943   1.002   7.499   4.686
15492TIP3    H196944   0.957   7.555   4.621
15492TIP3    H296945   1.015   7.563   4.759
15493TIP3   OH296946   1.232   7.380   4.784
15493TIP3    H196947   1.145   7.408   4.752
15493TIP3    H296948   1.278   7.466   4.778
15494TIP3   OH296949   1.489   7.540   4.812
15494TIP3    H196950   1.483   7.635   4.789
15494TIP3    H296951   1.511   7.502   4.725
15495TIP3   OH296952   0.227   7.410   4.555
15495TIP3    H196953   0.226   7.374   4.646
15495TIP3    H296954   0.313   7.381   4.518
15496TIP3   OH296955   0.436   7.284   4.421
15496TIP3    H196956   0.422   7.193   4.449
15496TIP3    H296957   0.521   7.305   4.467
15497TIP3   OH296958   0.694   7.334   4.510
15497TIP3    H196959   0.718   7.244   4.483
15497TIP3    H296960   0.704   7.330   4.606
15498TIP3   OH296961   1.044   5.900   4.423
15498TIP3    H196962   0.977   5.835   4.451
15498TIP3    H296963   1.099   5.846   4.365
15499TIP3   OH296964   1.557   5.705   4.430
15499TIP3    H196965   1.619   5.764   4.379
15499TIP3    H296966   1.469   5.741   4.407
15500TIP3   OH296967   1.724   5.829   4.258
15500TIP3    H196968   1.793   5.772   4.216
15500TIP3    H296969   1.775   5.913   4.268
15501TIP3   OH296970   0.283   5.762   4.205
15501TIP3    H196971   0.199   5.740   4.158
15501TIP3    H296972   0.328   5.676   4.202
15502TIP3   OH296973   0.165   5.738   3.789
15502TIP3    H196974   0.204   5.800   3.724
15502TIP3    H296975   0.096   5.789   3.832
15503TIP3   OH296976   0.727   5.762   4.186
15503TIP3    H196977   0.820   5.788   4.180
15503TIP3    H296978   0.724   5.733   4.278
15504TIP3   OH296979   1.299   5.757   4.349
15504TIP3    H196980   1.295   5.768   4.254
15504TIP3    H296981   1.261   5.666   4.361
15505TIP3   OH296982   1.427   5.760   3.915
15505TIP3    H196983   1.352   5.819   3.899
15505TIP3    H296984   1.383   5.675   3.938
15506TIP3   OH296985   0.147   7.335   3.885
15506TIP3    H196986   0.086   7.334   3.810
15506TIP3    H296987   0.155   7.430   3.897
15507TIP3   OH296988   0.339   5.928   3.632
15507TIP3    H196989   0.390   5.870   3.576
15507TIP3    H296990   0.410   5.963   3.688
15508TIP3   OH296991   0.831   5.960   3.879
15508TIP3    H196992   0.872   5.898   3.943
15508TIP3    H296993   0.860   6.045   3.921
15509TIP3   OH296994   1.033   7.465   3.712
15509TIP3    H196995   1.128   7.486   3.698
15509TIP3    H296996   1.017   7.410   3.634
15510TIP3   OH296997   1.707   7.414   3.988
15510TIP3    H196998   1.687   7.337   3.930
15510TIP3    H296999   1.698   7.488   3.924
15511TIP3   OH297000   0.251   5.781   5.126
15511TIP3    H197001   0.219   5.718   5.193
15511TIP3    H297002   0.339   5.797   5.160
15512TIP3   OH297003   0.331   7.428   3.579
15512TIP3    H197004   0.303   7.461   3.665
15512TIP3    H297005   0.410   7.377   3.596
15513TIP3   OH297006   3.077   6.678   4.191
15513TIP3    H197007   3.074   6.775   4.189
15513TIP3    H297008   3.003   6.653   4.134
15514TIP3   OH297009   2.971   6.621   4.532
15514TIP3    H197010   2.963   6.559   4.608
15514TIP3    H297011   2.929   6.562   4.468
15515TIP3   OH297012   2.196   6.571   4.700
15515TIP3    H197013   2.206   6.501   4.768
15515TIP3    H297014   2.272   6.627   4.721
15516TIP3   OH297015   3.330   6.897   4.372
15516TIP3    H197016   3.288   6.825   4.421
15516TIP3    H297017   3.332   6.967   4.439
15517TIP3   OH297018   2.289   7.014   4.549
15517TIP3    H197019   2.257   6.927   4.517
15517TIP3    H297020   2.384   6.995   4.554
15518TIP3   OH297021   1.953   6.370   4.095
15518TIP3    H197022   1.909   6.457   4.092
15518TIP3    H297023   1.895   6.316   4.039
15519TIP3   OH297024   2.024   6.592   4.312
15519TIP3    H197025   2.051   6.510   4.358
15519TIP3    H297026   2.094   6.603   4.246
15520TIP3   OH297027   3.042   7.413   4.395
15520TIP3    H197028   3.106   7.343   4.367
15520TIP3    H297029   3.020   7.380   4.483
15521TIP3   OH297030   2.799   6.845   4.588
15521TIP3    H197031   2.832   6.778   4.527
15521TIP3    H297032   2.878   6.857   4.644
15522TIP3   OH297033   3.662   6.006   4.665
15522TIP3    H197034   3.675   6.067   4.741
15522TIP3    H297035   3.715   6.051   4.598
15523TIP3   OH297036   3.150   6.284   4.617
15523TIP3    H197037   3.131   6.189   4.622
15523TIP3    H297038   3.104   6.303   4.533
15524TIP3   OH297039   2.426   6.098   4.344
15524TIP3    H197040   2.437   6.181   4.295
15524TIP3    H297041   2.387   6.040   4.275
15525TIP3   OH297042   3.201   6.105   4.180
15525TIP3    H197043   3.266   6.074   4.248
15525TIP3    H297044   3.256   6.163   4.126
15526TIP3   OH297045   2.089   6.338   4.417
15526TIP3    H197046   2.156   6.284   4.462
15526TIP3    H297047   2.099   6.307   4.326
15527TIP3   OH297048   2.604   6.495   4.348
15527TIP3    H197049   2.672   6.435   4.387
15527TIP3    H297050   2.554   6.428   4.299
15528TIP3   OH297051   3.706   6.155   4.889
15528TIP3    H197052   3.637   6.224   4.878
15528TIP3    H297053   3.704   6.137   4.984
15529TIP3   OH297054   2.317   5.985   4.744
15529TIP3    H197055   2.289   6.045   4.673
15529TIP3    H297056   2.251   6.009   4.814
15530TIP3   OH297057   3.046   6.937   4.103
15530TIP3    H197058   3.017   6.907   4.017
15530TIP3    H297059   3.015   7.029   4.108
15531TIP3   OH297060   2.568   6.752   4.771
15531TIP3    H197061   2.498   6.816   4.795
15531TIP3    H297062   2.640   6.811   4.745
15532TIP3   OH297063   3.381   6.040   4.380
15532TIP3    H197064   3.359   5.963   4.434
15532TIP3    H297065   3.448   6.085   4.434
15533TIP3   OH297066   2.274   6.174   4.550
15533TIP3    H197067   2.338   6.241   4.583
15533TIP3    H297068   2.326   6.132   4.477
15534TIP3   OH297069   2.413   6.953   4.855
15534TIP3    H197070   2.408   7.044   4.821
15534TIP3    H297071   2.324   6.946   4.897
15535TIP3   OH297072   2.019   6.913   3.931
15535TIP3    H197073   1.997   6.947   3.842
15535TIP3    H297074   2.027   6.996   3.983
15536TIP3   OH297075   3.382   7.080   4.607
15536TIP3    H197076   3.286   7.091   4.622
15536TIP3    H297077   3.410   7.172   4.590
15537TIP3   OH297078   3.415   5.911   4.752
15537TIP3    H197079   3.341   5.972   4.738
15537TIP3    H297080   3.485   5.951   4.697
15538TIP3   OH297081   2.712   5.720   4.493
15538TIP3    H197082   2.697   5.624   4.488
15538TIP3    H297083   2.625   5.753   4.525
15539TIP3   OH297084   3.208   7.259   4.268
15539TIP3    H197085   3.251   7.187   4.217
15539TIP3    H297086   3.251   7.338   4.229
15540TIP3   OH297087   3.330   7.051   4.119
15540TIP3    H197088   3.300   6.982   4.058
15540TIP3    H297089   3.332   7.002   4.203
15541TIP3   OH297090   3.495   6.910   4.967
15541TIP3    H197091   3.503   6.847   4.893
15541TIP3    H297092   3.512   6.997   4.928
15542TIP3   OH297093   2.940   6.600   3.943
15542TIP3    H197094   2.870   6.658   3.907
15542TIP3    H297095   3.011   6.610   3.877
15543TIP3   OH297096   2.948   6.453   3.650
15543TIP3    H197097   3.020   6.454   3.716
15543TIP3    H297098   2.979   6.386   3.589
15544TIP3   OH297099   3.680   6.539   4.772
15544TIP3    H197100   3.614   6.612   4.779
15544TIP3    H297101   3.729   6.565   4.692
15545TIP3   OH297102   3.286   6.619   4.035
15545TIP3    H197103   3.213   6.645   4.097
15545TIP3    H297104   3.333   6.554   4.091
15546TIP3   OH297105   3.285   6.437   4.952
15546TIP3    H197106   3.277   6.517   5.002
15546TIP3    H297107   3.216   6.463   4.884
15547TIP3   OH297108   2.448   6.686   4.229
15547TIP3    H197109   2.416   6.647   4.144
15547TIP3    H297110   2.509   6.617   4.264
15548TIP3   OH297111   2.579   7.026   4.497
15548TIP3    H197112   2.577   6.973   4.416
15548TIP3    H297113   2.657   6.990   4.543
15549TIP3   OH297114   2.479   6.563   4.595
15549TIP3    H197115   2.536   6.570   4.516
15549TIP3    H297116   2.521   6.627   4.657
15550TIP3   OH297117   3.121   7.118   4.667
15550TIP3    H197118   3.092   7.182   4.733
15550TIP3    H297119   3.097   7.032   4.709
15551TIP3   OH297120   2.572   7.001   5.070
15551TIP3    H197121   2.537   7.083   5.111
15551TIP3    H297122   2.509   6.985   4.996
15552TIP3   OH297123   3.175   6.539   3.803
15552TIP3    H197124   3.227   6.559   3.886
15552TIP3    H297125   3.213   6.596   3.737
15553TIP3   OH297126   2.267   6.623   4.982
15553TIP3    H197127   2.274   6.685   5.055
15553TIP3    H297128   2.175   6.631   4.955
15554TIP3   OH297129   2.944   7.213   4.151
15554TIP3    H197130   2.988   7.244   4.231
15554TIP3    H297131   2.888   7.288   4.127
15555TIP3   OH297132   2.394   7.207   5.139
15555TIP3    H197133   2.395   7.200   5.042
15555TIP3    H297134   2.300   7.199   5.161
15556TIP3   OH297135   3.544   5.713   3.794
15556TIP3    H197136   3.450   5.726   3.818
15556TIP3    H297137   3.567   5.798   3.753
15557TIP3   OH297138   2.344   6.589   3.989
15557TIP3    H197139   2.316   6.667   3.938
15557TIP3    H297140   2.277   6.523   3.967
15558TIP3   OH297141   3.656   7.149   3.633
15558TIP3    H197142   3.669   7.245   3.643
15558TIP3    H297143   3.748   7.120   3.623
15559TIP3   OH297144   1.957   6.831   4.874
15559TIP3    H197145   1.909   6.825   4.790
15559TIP3    H297146   1.959   6.737   4.900
15560TIP3   OH297147   1.929   7.106   4.558
15560TIP3    H197148   2.025   7.094   4.556
15560TIP3    H297149   1.921   7.187   4.610
15561TIP3   OH297150   3.761   7.173   5.069
15561TIP3    H197151   3.754   7.085   5.109
15561TIP3    H297152   3.694   7.210   5.131
15562TIP3   OH297153   2.849   7.129   5.014
15562TIP3    H197154   2.855   7.214   5.063
15562TIP3    H297155   2.761   7.095   5.036
15563TIP3   OH297156   2.890   7.504   3.991
15563TIP3    H197157   2.883   7.498   3.894
15563TIP3    H297158   2.895   7.601   4.008
15564TIP3   OH297159   2.257   7.392   4.175
15564TIP3    H197160   2.271   7.351   4.263
15564TIP3    H297161   2.172   7.352   4.151
15565TIP3   OH297162   3.194   7.425   3.689
15565TIP3    H197163   3.242   7.349   3.648
15565TIP3    H297164   3.203   7.400   3.784
15566TIP3   OH297165   3.167   7.420   3.969
15566TIP3    H197166   3.071   7.426   3.988
15566TIP3    H297167   3.192   7.345   4.026
15567TIP3   OH297168   2.182   6.960   4.977
15567TIP3    H197169   2.198   6.926   5.065
15567TIP3    H297170   2.094   6.925   4.950
15568TIP3   OH297171   2.449   5.812   4.567
15568TIP3    H197172   2.358   5.799   4.533
15568TIP3    H297173   2.438   5.895   4.616
15569TIP3   OH297174   2.912   5.780   4.907
15569TIP3    H197175   2.951   5.738   4.985
15569TIP3    H297176   2.815   5.765   4.921
15570TIP3   OH297177   3.229   6.160   4.989
15570TIP3    H197178   3.194   6.145   5.078
15570TIP3    H297179   3.227   6.256   4.973
15571TIP3   OH297180   2.874   6.037   3.639
15571TIP3    H197181   2.847   6.030   3.733
15571TIP3    H297182   2.851   5.948   3.611
15572TIP3   OH297183   2.454   6.307   4.691
15572TIP3    H197184   2.386   6.308   4.760
15572TIP3    H297185   2.456   6.399   4.659
15573TIP3   OH297186   2.454   6.321   4.180
15573TIP3    H197187   2.361   6.295   4.167
15573TIP3    H297188   2.493   6.291   4.096
15574TIP3   OH297189   3.008   6.369   4.057
15574TIP3    H197190   2.967   6.452   4.024
15574TIP3    H297191   3.076   6.353   3.990
15575TIP3   OH297192   3.112   6.320   4.341
15575TIP3    H197193   3.081   6.376   4.268
15575TIP3    H297194   3.121   6.234   4.295
15576TIP3   OH297195   2.220   6.337   4.865
15576TIP3    H197196   2.231   6.372   4.955
15576TIP3    H297197   2.181   6.250   4.883
15577TIP3   OH297198   1.887   6.045   4.261
15577TIP3    H197199   1.955   6.041   4.331
15577TIP3    H297200   1.933   6.007   4.183
15578TIP3   OH297201   2.015   6.120   3.800
15578TIP3    H197202   2.061   6.176   3.737
15578TIP3    H297203   1.945   6.181   3.830
15579TIP3   OH297204   3.067   6.480   4.834
15579TIP3    H197205   3.066   6.430   4.749
15579TIP3    H297206   2.986   6.435   4.866
15580TIP3   OH297207   2.710   6.064   4.280
15580TIP3    H197208   2.619   6.078   4.312
15580TIP3    H297209   2.760   6.066   4.364
15581TIP3   OH297210   2.192   6.231   4.167
15581TIP3    H197211   2.103   6.246   4.129
15581TIP3    H297212   2.221   6.147   4.127
15582TIP3   OH297213   2.555   6.236   3.928
15582TIP3    H197214   2.650   6.247   3.948
15582TIP3    H297215   2.532   6.304   3.862
15583TIP3   OH297216   3.152   5.994   4.608
15583TIP3    H197217   3.081   6.006   4.676
15583TIP3    H297218   3.100   5.977   4.528
15584TIP3   OH297219   2.426   6.350   3.691
15584TIP3    H197220   2.372   6.318   3.617
15584TIP3    H297221   2.508   6.376   3.645
15585TIP3   OH297222   2.807   6.298   4.408
15585TIP3    H197223   2.902   6.298   4.405
15585TIP3    H297224   2.805   6.303   4.508
15586TIP3   OH297225   2.341   5.966   4.116
15586TIP3    H197226   2.308   5.875   4.114
15586TIP3    H297227   2.419   5.961   4.059
15587TIP3   OH297228   2.690   6.166   4.726
15587TIP3    H197229   2.623   6.236   4.717
15587TIP3    H297230   2.760   6.219   4.774
15588TIP3   OH297231   2.763   6.803   3.885
15588TIP3    H197232   2.682   6.759   3.850
15588TIP3    H297233   2.739   6.817   3.979
15589TIP3   OH297234   3.483   6.721   4.761
15589TIP3    H197235   3.537   6.774   4.700
15589TIP3    H297236   3.395   6.730   4.717
15590TIP3   OH297237   3.147   6.086   3.700
15590TIP3    H197238   3.054   6.103   3.682
15590TIP3    H297239   3.178   6.173   3.732
15591TIP3   OH297240   2.912   6.837   5.002
15591TIP3    H197241   2.877   6.790   5.078
15591TIP3    H297242   2.886   6.929   5.016
15592TIP3   OH297243   3.220   6.279   3.866
15592TIP3    H197244   3.310   6.266   3.903
15592TIP3    H297245   3.227   6.360   3.813
15593TIP3   OH297246   2.273   6.745   4.462
15593TIP3    H197247   2.342   6.737   4.393
15593TIP3    H297248   2.279   6.659   4.508
15594TIP3   OH297249   2.973   6.953   3.791
15594TIP3    H197250   2.934   7.038   3.821
15594TIP3    H297251   2.898   6.891   3.805
15595TIP3   OH297252   1.968   6.588   4.989
15595TIP3    H197253   1.994   6.543   5.071
15595TIP3    H297254   1.911   6.524   4.943
15596TIP3   OH297255   3.137   7.079   4.997
15596TIP3    H197256   3.044   7.096   4.977
15596TIP3    H297257   3.142   7.095   5.093
15597TIP3   OH297258   3.705   6.294   3.842
15597TIP3    H197259   3.656   6.259   3.766
15597TIP3    H297260   3.718   6.387   3.812
15598TIP3   OH297261   3.706   6.865   5.115
15598TIP3    H197262   3.619   6.904   5.085
15598TIP3    H297263   3.760   6.878   5.036
15599TIP3   OH297264   3.539   7.177   3.880
15599TIP3    H197265   3.501   7.095   3.914
15599TIP3    H297266   3.568   7.156   3.788
15600TIP3   OH297267   3.259   6.658   4.589
15600TIP3    H197268   3.164   6.637   4.579
15600TIP3    H297269   3.301   6.581   4.548
15601TIP3   OH297270   2.510   7.091   4.201
15601TIP3    H197271   2.560   7.171   4.180
15601TIP3    H297272   2.422   7.114   4.167
15602TIP3   OH297273   2.084   6.578   3.654
15602TIP3    H197274   2.146   6.639   3.696
15602TIP3    H297275   1.997   6.604   3.687
15603TIP3   OH297276   2.652   6.857   4.153
15603TIP3    H197277   2.621   6.949   4.161
15603TIP3    H297278   2.579   6.808   4.197
15604TIP3   OH297279   2.697   7.276   4.791
15604TIP3    H197280   2.742   7.358   4.765
15604TIP3    H297281   2.758   7.242   4.858
15605TIP3   OH297282   2.520   7.357   4.105
15605TIP3    H197283   2.423   7.369   4.120
15605TIP3    H297284   2.555   7.440   4.141
15606TIP3   OH297285   3.052   6.878   4.754
15606TIP3    H197286   3.016   6.856   4.842
15606TIP3    H297287   3.115   6.806   4.740
15607TIP3   OH297288   3.278   6.978   3.667
15607TIP3    H197289   3.309   6.935   3.749
15607TIP3    H297290   3.182   6.965   3.674
15608TIP3   OH297291   3.323   7.335   5.008
15608TIP3    H197292   3.262   7.283   4.954
15608TIP3    H297293   3.351   7.403   4.943
15609TIP3   OH297294   3.729   7.422   3.691
15609TIP3    H197295   3.799   7.484   3.665
15609TIP3    H297296   3.658   7.482   3.719
15610TIP3   OH297297   2.139   6.062   4.942
15610TIP3    H197298   2.047   6.094   4.938
15610TIP3    H297299   2.129   5.976   4.987
15611TIP3   OH297300   3.361   6.844   3.887
15611TIP3    H197301   3.337   6.767   3.942
15611TIP3    H297302   3.456   6.853   3.909
15612TIP3   OH297303   2.100   7.238   4.786
15612TIP3    H197304   2.128   7.146   4.786
15612TIP3    H297305   2.124   7.268   4.875
15613TIP3   OH297306   2.571   7.045   3.756
15613TIP3    H197307   2.600   6.991   3.830
15613TIP3    H297308   2.583   7.137   3.790
15614TIP3   OH297309   2.223   6.770   3.804
15614TIP3    H197310   2.157   6.810   3.864
15614TIP3    H297311   2.280   6.845   3.782
15615TIP3   OH297312   3.010   6.035   4.837
15615TIP3    H197313   3.081   6.041   4.901
15615TIP3    H297314   2.970   5.947   4.854
15616TIP3   OH297315   3.083   5.995   3.950
15616TIP3    H197316   3.108   6.040   3.867
15616TIP3    H297317   3.141   6.040   4.013
15617TIP3   OH297318   2.854   7.211   3.831
15617TIP3    H197319   2.771   7.262   3.835
15617TIP3    H297320   2.907   7.261   3.767
15618TIP3   OH297321   2.807   6.168   4.029
15618TIP3    H197322   2.885   6.226   4.033
15618TIP3    H297323   2.781   6.157   4.122
15619TIP3   OH297324   2.861   6.270   4.953
15619TIP3    H197325   2.873   6.328   5.028
15619TIP3    H297326   2.926   6.199   4.955
15620TIP3   OH297327   2.893   5.875   4.120
15620TIP3    H197328   2.860   5.941   4.184
15620TIP3    H297329   2.962   5.929   4.073
15621TIP3   OH297330   2.589   7.314   3.831
15621TIP3    H197331   2.607   7.396   3.781
15621TIP3    H297332   2.566   7.348   3.920
15622TIP3   OH297333   2.460   5.984   3.793
15622TIP3    H197334   2.453   6.076   3.825
15622TIP3    H297335   2.552   5.963   3.817
15623TIP3   OH297336   3.480   6.064   5.037
15623TIP3    H197337   3.387   6.088   5.021
15623TIP3    H297338   3.510   6.054   4.945
15624TIP3   OH297339   3.344   6.437   4.431
15624TIP3    H197340   3.259   6.394   4.409
15624TIP3    H297341   3.387   6.369   4.488
15625TIP3   OH297342   2.284   7.030   3.694
15625TIP3    H197343   2.349   7.094   3.726
15625TIP3    H297344   2.334   6.985   3.625
15626TIP3   OH297345   3.448   7.362   4.599
15626TIP3    H197346   3.439   7.432   4.532
15626TIP3    H297347   3.544   7.369   4.620
15627TIP3   OH297348   2.198   5.775   4.482
15627TIP3    H197349   2.178   5.778   4.386
15627TIP3    H297350   2.156   5.690   4.507
15628TIP3   OH297351   2.093   7.167   4.096
15628TIP3    H197352   2.008   7.213   4.092
15628TIP3    H297353   2.141   7.214   4.026
15629TIP3   OH297354   3.353   7.255   3.547
15629TIP3    H197355   3.378   7.172   3.593
15629TIP3    H297356   3.429   7.273   3.491
15630TIP3   OH297357   3.247   6.796   4.982
15630TIP3    H197358   3.326   6.853   4.995
15630TIP3    H297359   3.178   6.858   5.011
15631TIP3   OH297360   2.563   6.647   3.770
15631TIP3    H197361   2.511   6.594   3.831
15631TIP3    H297362   2.591   6.580   3.704
15632TIP3   OH297363   2.483   6.426   4.995
15632TIP3    H197364   2.428   6.499   5.024
15632TIP3    H297365   2.527   6.463   4.917
15633TIP3   OH297366   2.668   6.465   3.589
15633TIP3    H197367   2.656   6.454   3.494
15633TIP3    H297368   2.765   6.478   3.601
15634TIP3   OH297369   2.520   6.166   5.103
15634TIP3    H197370   2.538   6.095   5.039
15634TIP3    H297371   2.524   6.247   5.048
15635TIP3   OH297372   2.563   5.994   4.861
15635TIP3    H197373   2.616   6.048   4.795
15635TIP3    H297374   2.477   5.993   4.815
15636TIP3   OH297375   2.725   6.555   4.890
15636TIP3    H197376   2.793   6.528   4.823
15636TIP3    H297377   2.686   6.634   4.851
15637TIP3   OH297378   2.649   5.749   4.898
15637TIP3    H197379   2.628   5.845   4.889
15637TIP3    H297380   2.572   5.711   4.852
15638TIP3   OH297381   2.652   7.538   3.691
15638TIP3    H197382   2.748   7.548   3.704
15638TIP3    H297383   2.633   7.606   3.626
15639TIP3   OH297384   2.010   6.998   3.644
15639TIP3    H197385   2.106   7.006   3.665
15639TIP3    H297386   2.010   6.937   3.569
15640TIP3   OH297387   1.886   7.534   4.140
15640TIP3    H197388   1.813   7.486   4.094
15640TIP3    H297389   1.913   7.469   4.207
15641TIP3   OH297390   1.967   7.348   4.328
15641TIP3    H197391   1.931   7.260   4.348
15641TIP3    H297392   1.989   7.381   4.416
15642TIP3   OH297393   3.720   7.427   4.622
15642TIP3    H197394   3.723   7.443   4.718
15642TIP3    H297395   3.791   7.485   4.592
15643TIP3   OH297396   3.681   7.387   4.911
15643TIP3    H197397   3.631   7.309   4.879
15643TIP3    H297398   3.731   7.343   4.982
15644TIP3   OH297399   3.656   6.790   3.925
15644TIP3    H197400   3.740   6.832   3.947
15644TIP3    H297401   3.653   6.721   3.995
15645TIP3   OH297402   3.690   6.599   4.113
15645TIP3    H197403   3.615   6.549   4.153
15645TIP3    H297404   3.750   6.613   4.189
15646TIP3   OH297405   3.664   6.868   4.610
15646TIP3    H197406   3.748   6.831   4.575
15646TIP3    H297407   3.680   6.964   4.595
15647TIP3   OH297408   3.519   7.160   4.840
15647TIP3    H197409   3.451   7.193   4.901
15647TIP3    H297410   3.465   7.119   4.769
15648TIP3   OH297411   3.717   6.581   3.752
15648TIP3    H197412   3.661   6.617   3.682
15648TIP3    H297413   3.713   6.652   3.819
15649TIP3   OH297414   3.472   6.447   4.170
15649TIP3    H197415   3.457   6.351   4.169
15649TIP3    H297416   3.439   6.469   4.259
15650TIP3   OH297417   1.972   6.655   4.577
15650TIP3    H197418   1.991   6.647   4.481
15650TIP3    H297419   2.062   6.638   4.613
15651TIP3   OH297420   3.564   6.639   5.133
15651TIP3    H197421   3.621   6.569   5.161
15651TIP3    H297422   3.615   6.722   5.138
15652TIP3   OH297423   3.482   6.045   3.515
15652TIP3    H197424   3.540   6.007   3.583
15652TIP3    H297425   3.393   6.013   3.537
15653TIP3   OH297426   3.439   6.205   4.018
15653TIP3    H197427   3.469   6.112   4.030
15653TIP3    H297428   3.518   6.245   3.979
15654TIP3   OH297429   3.503   6.259   4.560
15654TIP3    H197430   3.598   6.283   4.559
15654TIP3    H297431   3.483   6.274   4.654
15655TIP3   OH297432   3.509   6.334   4.840
15655TIP3    H197433   3.420   6.362   4.873
15655TIP3    H297434   3.551   6.420   4.817
15656TIP3   OH297435   3.506   5.933   4.021
15656TIP3    H197436   3.527   5.890   4.107
15656TIP3    H297437   3.445   5.869   3.978
15657TIP3   OH297438   2.054   6.014   4.478
15657TIP3    H197439   2.100   5.932   4.504
15657TIP3    H297440   2.109   6.084   4.517
15658TIP3   OH297441   1.883   6.314   4.581
15658TIP3    H197442   1.939   6.290   4.505
15658TIP3    H297443   1.928   6.395   4.608
15659TIP3   OH297444   3.688   5.939   3.680
15659TIP3    H197445   3.730   5.868   3.627
15659TIP3    H297446   3.759   6.005   3.679
15660TIP3   OH297447   1.919   5.941   3.988
15660TIP3    H197448   1.824   5.958   3.976
15660TIP3    H297449   1.960   5.990   3.915
15661TIP3   OH297450   3.392   7.434   4.185
15661TIP3    H197451   3.461   7.404   4.122
15661TIP3    H297452   3.444   7.485   4.249
15662TIP3   OH297453   1.914   5.809   4.816
15662TIP3    H197454   1.848   5.787   4.886
15662TIP3    H297455   1.866   5.875   4.764
15663TIP3   OH297456   2.426   7.223   4.859
15663TIP3    H197457   2.392   7.311   4.835
15663TIP3    H297458   2.520   7.235   4.834
15664TIP3   OH297459   2.862   7.362   5.156
15664TIP3    H197460   2.880   7.336   5.248
15664TIP3    H297461   2.948   7.398   5.129
15665TIP3   OH297462   3.085   7.500   5.078
15665TIP3    H197463   3.157   7.439   5.058
15665TIP3    H297464   3.125   7.533   5.162
15666TIP3   OH297465   3.593   5.759   4.985
15666TIP3    H197466   3.504   5.784   4.955
15666TIP3    H297467   3.607   5.672   4.942
15667TIP3   OH297468   2.169   7.548   4.863
15667TIP3    H197469   2.096   7.600   4.825
15667TIP3    H297470   2.136   7.534   4.953
15668TIP3   OH297471   2.416   7.508   4.769
15668TIP3    H197472   2.329   7.525   4.811
15668TIP3    H297473   2.411   7.566   4.691
15669TIP3   OH297474   2.889   7.499   4.686
15669TIP3    H197475   2.842   7.554   4.622
15669TIP3    H297476   2.901   7.563   4.760
15670TIP3   OH297477   3.118   7.379   4.783
15670TIP3    H197478   3.031   7.408   4.752
15670TIP3    H297479   3.163   7.465   4.778
15671TIP3   OH297480   3.374   7.539   4.810
15671TIP3    H197481   3.368   7.635   4.788
15671TIP3    H297482   3.397   7.502   4.724
15672TIP3   OH297483   2.116   7.415   4.557
15672TIP3    H197484   2.109   7.371   4.645
15672TIP3    H297485   2.197   7.377   4.518
15673TIP3   OH297486   2.324   7.286   4.421
15673TIP3    H197487   2.307   7.193   4.444
15673TIP3    H297488   2.409   7.301   4.467
15674TIP3   OH297489   2.584   7.335   4.510
15674TIP3    H197490   2.600   7.243   4.483
15674TIP3    H297491   2.587   7.328   4.607
15675TIP3   OH297492   2.931   5.898   4.422
15675TIP3    H197493   2.861   5.837   4.451
15675TIP3    H297494   2.985   5.845   4.363
15676TIP3   OH297495   3.443   5.705   4.430
15676TIP3    H197496   3.504   5.764   4.379
15676TIP3    H297497   3.355   5.741   4.406
15677TIP3   OH297498   3.610   5.829   4.258
15677TIP3    H197499   3.679   5.771   4.216
15677TIP3    H297500   3.660   5.913   4.268
15678TIP3   OH297501   2.168   5.762   4.207
15678TIP3    H197502   2.085   5.743   4.157
15678TIP3    H297503   2.212   5.675   4.204
15679TIP3   OH297504   2.045   5.739   3.783
15679TIP3    H197505   2.090   5.803   3.724
15679TIP3    H297506   1.985   5.795   3.834
15680TIP3   OH297507   2.615   5.750   4.185
15680TIP3    H197508   2.703   5.793   4.180
15680TIP3    H297509   2.610   5.735   4.280
15681TIP3   OH297510   3.185   5.756   4.349
15681TIP3    H197511   3.180   5.768   4.253
15681TIP3    H297512   3.146   5.666   4.361
15682TIP3   OH297513   3.312   5.760   3.915
15682TIP3    H197514   3.238   5.820   3.899
15682TIP3    H297515   3.269   5.675   3.939
15683TIP3   OH297516   2.035   7.334   3.881
15683TIP3    H197517   1.968   7.333   3.811
15683TIP3    H297518   2.037   7.430   3.898
15684TIP3   OH297519   2.226   5.921   3.638
15684TIP3    H197520   2.280   5.874   3.575
15684TIP3    H297521   2.294   5.968   3.690
15685TIP3   OH297522   2.728   5.956   3.873
15685TIP3    H197523   2.757   5.900   3.947
15685TIP3    H297524   2.735   6.043   3.920
15686TIP3   OH297525   2.919   7.465   3.712
15686TIP3    H197526   3.013   7.486   3.698
15686TIP3    H297527   2.903   7.410   3.634
15687TIP3   OH297528   3.592   7.414   3.988
15687TIP3    H197529   3.572   7.337   3.930
15687TIP3    H297530   3.584   7.488   3.924
15688TIP3   OH297531   2.136   5.779   5.130
15688TIP3    H197532   2.107   5.721   5.202
15688TIP3    H297533   2.224   5.797   5.164
15689TIP3   OH297534   2.217   7.430   3.578
15689TIP3    H197535   2.189   7.459   3.665
15689TIP3    H297536   2.295   7.377   3.594
15690TIP3   OH297537   4.961   6.677   4.194
15690TIP3    H197538   4.960   6.774   4.189
15690TIP3    H297539   4.888   6.653   4.134
15691TIP3   OH297540   4.846   6.602   4.544
15691TIP3    H197541   4.846   6.536   4.615
15691TIP3    H297542   4.812   6.552   4.468
15692TIP3   OH297543   4.082   6.571   4.700
15692TIP3    H197544   4.091   6.501   4.768
15692TIP3    H297545   4.158   6.627   4.721
15693TIP3   OH297546   5.215   6.897   4.372
15693TIP3    H197547   5.173   6.826   4.421
15693TIP3    H297548   5.217   6.967   4.439
15694TIP3   OH297549   4.174   7.014   4.549
15694TIP3    H197550   4.143   6.927   4.517
15694TIP3    H297551   4.270   6.995   4.554
15695TIP3   OH297552   3.839   6.370   4.094
15695TIP3    H197553   3.796   6.457   4.092
15695TIP3    H297554   3.780   6.317   4.040
15696TIP3   OH297555   3.910   6.593   4.312
15696TIP3    H197556   3.936   6.510   4.358
15696TIP3    H297557   3.980   6.603   4.246
15697TIP3   OH297558   4.927   7.413   4.395
15697TIP3    H197559   4.992   7.343   4.367
15697TIP3    H297560   4.906   7.380   4.483
15698TIP3   OH297561   4.684   6.842   4.590
15698TIP3    H197562   4.718   6.779   4.525
15698TIP3    H297563   4.764   6.857   4.643
15699TIP3   OH297564   5.545   6.008   4.665
15699TIP3    H197565   5.561   6.066   4.742
15699TIP3    H297566   5.601   6.050   4.598
15700TIP3   OH297567   4.998   6.288   4.623
15700TIP3    H197568   5.018   6.193   4.622
15700TIP3    H297569   4.990   6.303   4.527
15701TIP3   OH297570   4.312   6.098   4.344
15701TIP3    H197571   4.323   6.181   4.295
15701TIP3    H297572   4.272   6.040   4.275
15702TIP3   OH297573   5.086   6.105   4.181
15702TIP3    H197574   5.151   6.074   4.248
15702TIP3    H297575   5.142   6.163   4.126
15703TIP3   OH297576   3.975   6.338   4.417
15703TIP3    H197577   4.042   6.284   4.462
15703TIP3    H297578   3.985   6.307   4.326
15704TIP3   OH297579   4.491   6.494   4.349
15704TIP3    H197580   4.557   6.436   4.389
15704TIP3    H297581   4.439   6.428   4.298
15705TIP3   OH297582   5.592   6.155   4.889
15705TIP3    H197583   5.523   6.224   4.878
15705TIP3    H297584   5.589   6.137   4.984
15706TIP3   OH297585   4.203   5.985   4.744
15706TIP3    H197586   4.174   6.045   4.673
15706TIP3    H297587   4.137   6.009   4.814
15707TIP3   OH297588   4.932   6.936   4.103
15707TIP3    H197589   4.903   6.908   4.015
15707TIP3    H297590   4.901   7.030   4.107
15708TIP3   OH297591   4.453   6.752   4.772
15708TIP3    H197592   4.383   6.817   4.795
15708TIP3    H297593   4.524   6.811   4.744
15709TIP3   OH297594   5.266   6.040   4.380
15709TIP3    H197595   5.245   5.963   4.434
15709TIP3    H297596   5.334   6.084   4.434
15710TIP3   OH297597   4.159   6.173   4.551
15710TIP3    H197598   4.222   6.242   4.582
15710TIP3    H297599   4.211   6.132   4.477
15711TIP3   OH297600   4.298   6.953   4.855
15711TIP3    H197601   4.294   7.045   4.821
15711TIP3    H297602   4.209   6.946   4.897
15712TIP3   OH297603   3.905   6.913   3.931
15712TIP3    H197604   3.883   6.947   3.842
15712TIP3    H297605   3.913   6.996   3.983
15713TIP3   OH297606   5.268   7.080   4.607
15713TIP3    H197607   5.172   7.091   4.622
15713TIP3    H297608   5.295   7.172   4.590
15714TIP3   OH297609   5.300   5.912   4.752
15714TIP3    H197610   5.226   5.973   4.738
15714TIP3    H297611   5.371   5.951   4.697
15715TIP3   OH297612   4.597   5.721   4.493
15715TIP3    H197613   4.583   5.624   4.488
15715TIP3    H297614   4.510   5.751   4.526
15716TIP3   OH297615   5.094   7.259   4.268
15716TIP3    H197616   5.137   7.187   4.217
15716TIP3    H297617   5.137   7.338   4.229
15717TIP3   OH297618   5.215   7.051   4.119
15717TIP3    H197619   5.185   6.982   4.058
15717TIP3    H297620   5.218   7.002   4.203
15718TIP3   OH297621   5.381   6.910   4.969
15718TIP3    H197622   5.390   6.848   4.894
15718TIP3    H297623   5.398   6.997   4.927
15719TIP3   OH297624   4.826   6.600   3.944
15719TIP3    H197625   4.755   6.658   3.906
15719TIP3    H297626   4.897   6.610   3.877
15720TIP3   OH297627   4.833   6.452   3.653
15720TIP3    H197628   4.906   6.454   3.717
15720TIP3    H297629   4.864   6.389   3.589
15721TIP3   OH297630   5.566   6.540   4.772
15721TIP3    H197631   5.501   6.613   4.779
15721TIP3    H297632   5.615   6.565   4.692
15722TIP3   OH297633   5.171   6.619   4.037
15722TIP3    H197634   5.097   6.646   4.098
15722TIP3    H297635   5.218   6.554   4.092
15723TIP3   OH297636   5.161   6.437   4.948
15723TIP3    H197637   5.164   6.517   5.001
15723TIP3    H297638   5.099   6.468   4.878
15724TIP3   OH297639   4.332   6.687   4.228
15724TIP3    H197640   4.301   6.648   4.143
15724TIP3    H297641   4.394   6.618   4.262
15725TIP3   OH297642   4.465   7.026   4.497
15725TIP3    H197643   4.463   6.973   4.417
15725TIP3    H297644   4.543   6.990   4.543
15726TIP3   OH297645   4.366   6.562   4.595
15726TIP3    H197646   4.421   6.572   4.515
15726TIP3    H297647   4.404   6.628   4.657
15727TIP3   OH297648   5.007   7.118   4.666
15727TIP3    H197649   4.977   7.183   4.731
15727TIP3    H297650   4.982   7.033   4.709
15728TIP3   OH297651   4.457   7.001   5.070
15728TIP3    H197652   4.423   7.082   5.111
15728TIP3    H297653   4.395   6.985   4.996
15729TIP3   OH297654   5.060   6.539   3.803
15729TIP3    H197655   5.112   6.559   3.885
15729TIP3    H297656   5.098   6.596   3.736
15730TIP3   OH297657   4.153   6.623   4.982
15730TIP3    H197658   4.159   6.685   5.055
15730TIP3    H297659   4.060   6.630   4.955
15731TIP3   OH297660   4.830   7.213   4.151
15731TIP3    H197661   4.873   7.244   4.231
15731TIP3    H297662   4.774   7.288   4.127
15732TIP3   OH297663   4.280   7.207   5.139
15732TIP3    H197664   4.281   7.200   5.042
15732TIP3    H297665   4.186   7.199   5.161
15733TIP3   OH297666   5.430   5.713   3.795
15733TIP3    H197667   5.334   5.723   3.817
15733TIP3    H297668   5.452   5.798   3.753
15734TIP3   OH297669   4.229   6.589   3.989
15734TIP3    H197670   4.201   6.667   3.937
15734TIP3    H297671   4.163   6.523   3.967
15735TIP3   OH297672   5.541   7.149   3.633
15735TIP3    H197673   5.555   7.245   3.643
15735TIP3    H297674   5.634   7.120   3.623
15736TIP3   OH297675   3.843   6.831   4.874
15736TIP3    H197676   3.794   6.824   4.790
15736TIP3    H297677   3.845   6.737   4.900
15737TIP3   OH297678   3.815   7.106   4.558
15737TIP3    H197679   3.910   7.094   4.556
15737TIP3    H297680   3.806   7.187   4.610
15738TIP3   OH297681   5.646   7.173   5.072
15738TIP3    H197682   5.640   7.084   5.108
15738TIP3    H297683   5.578   7.211   5.132
15739TIP3   OH297684   4.734   7.129   5.012
15739TIP3    H197685   4.741   7.214   5.063
15739TIP3    H297686   4.646   7.095   5.036
15740TIP3   OH297687   4.776   7.504   3.991
15740TIP3    H197688   4.769   7.498   3.894
15740TIP3    H297689   4.780   7.601   4.008
15741TIP3   OH297690   4.142   7.392   4.175
15741TIP3    H197691   4.157   7.351   4.263
15741TIP3    H297692   4.057   7.352   4.151
15742TIP3   OH297693   5.080   7.425   3.689
15742TIP3    H197694   5.128   7.349   3.648
15742TIP3    H297695   5.088   7.400   3.783
15743TIP3   OH297696   5.052   7.420   3.969
15743TIP3    H197697   4.957   7.426   3.988
15743TIP3    H297698   5.078   7.345   4.026
15744TIP3   OH297699   4.067   6.959   4.977
15744TIP3    H197700   4.083   6.926   5.065
15744TIP3    H297701   3.979   6.925   4.950
15745TIP3   OH297702   4.335   5.811   4.567
15745TIP3    H197703   4.244   5.799   4.532
15745TIP3    H297704   4.323   5.894   4.617
15746TIP3   OH297705   4.798   5.781   4.908
15746TIP3    H197706   4.837   5.737   4.985
15746TIP3    H297707   4.701   5.764   4.921
15747TIP3   OH297708   5.113   6.161   4.988
15747TIP3    H197709   5.081   6.144   5.079
15747TIP3    H297710   5.115   6.257   4.976
15748TIP3   OH297711   4.760   6.037   3.639
15748TIP3    H197712   4.733   6.029   3.733
15748TIP3    H297713   4.737   5.948   3.611
15749TIP3   OH297714   4.343   6.307   4.693
15749TIP3    H197715   4.271   6.306   4.759
15749TIP3    H297716   4.339   6.399   4.658
15750TIP3   OH297717   4.341   6.321   4.181
15750TIP3    H197718   4.247   6.295   4.167
15750TIP3    H297719   4.379   6.291   4.096
15751TIP3   OH297720   4.893   6.369   4.057
15751TIP3    H197721   4.852   6.453   4.024
15751TIP3    H297722   4.961   6.353   3.990
15752TIP3   OH297723   4.997   6.319   4.343
15752TIP3    H197724   4.969   6.375   4.268
15752TIP3    H297725   5.006   6.234   4.295
15753TIP3   OH297726   4.105   6.337   4.864
15753TIP3    H197727   4.117   6.372   4.955
15753TIP3    H297728   4.066   6.250   4.883
15754TIP3   OH297729   3.773   6.045   4.261
15754TIP3    H197730   3.841   6.041   4.331
15754TIP3    H297731   3.818   6.007   4.183
15755TIP3   OH297732   3.901   6.119   3.800
15755TIP3    H197733   3.947   6.176   3.737
15755TIP3    H297734   3.831   6.181   3.830
15756TIP3   OH297735   4.920   6.477   4.803
15756TIP3    H197736   4.954   6.411   4.740
15756TIP3    H297737   4.869   6.422   4.866
15757TIP3   OH297738   4.597   6.075   4.282
15757TIP3    H197739   4.503   6.076   4.311
15757TIP3    H297740   4.645   6.059   4.364
15758TIP3   OH297741   4.078   6.231   4.167
15758TIP3    H197742   3.989   6.246   4.129
15758TIP3    H297743   4.106   6.147   4.128
15759TIP3   OH297744   4.441   6.237   3.931
15759TIP3    H197745   4.537   6.247   3.948
15759TIP3    H297746   4.418   6.303   3.863
15760TIP3   OH297747   5.038   5.999   4.607
15760TIP3    H197748   4.968   6.005   4.676
15760TIP3    H297749   4.987   5.974   4.528
15761TIP3   OH297750   4.312   6.350   3.691
15761TIP3    H197751   4.258   6.318   3.617
15761TIP3    H297752   4.393   6.376   3.645
15762TIP3   OH297753   4.725   6.351   4.471
15762TIP3    H197754   4.785   6.297   4.417
15762TIP3    H297755   4.710   6.296   4.549
15763TIP3   OH297756   4.226   5.965   4.116
15763TIP3    H197757   4.195   5.873   4.112
15763TIP3    H297758   4.304   5.960   4.059
15764TIP3   OH297759   4.590   6.183   4.711
15764TIP3    H197760   4.507   6.235   4.719
15764TIP3    H297761   4.644   6.218   4.784
15765TIP3   OH297762   4.648   6.803   3.885
15765TIP3    H197763   4.568   6.759   3.850
15765TIP3    H297764   4.625   6.817   3.979
15766TIP3   OH297765   5.367   6.723   4.763
15766TIP3    H197766   5.422   6.774   4.701
15766TIP3    H297767   5.281   6.730   4.717
15767TIP3   OH297768   5.033   6.086   3.700
15767TIP3    H197769   4.939   6.102   3.683
15767TIP3    H297770   5.064   6.173   3.732
15768TIP3   OH297771   4.797   6.834   5.001
15768TIP3    H197772   4.762   6.790   5.079
15768TIP3    H297773   4.772   6.927   5.014
15769TIP3   OH297774   5.105   6.279   3.867
15769TIP3    H197775   5.195   6.266   3.903
15769TIP3    H297776   5.113   6.360   3.814
15770TIP3   OH297777   4.158   6.745   4.462
15770TIP3    H197778   4.227   6.737   4.393
15770TIP3    H297779   4.164   6.659   4.507
15771TIP3   OH297780   4.858   6.953   3.791
15771TIP3    H197781   4.820   7.038   3.821
15771TIP3    H297782   4.784   6.891   3.805
15772TIP3   OH297783   3.856   6.587   4.988
15772TIP3    H197784   3.880   6.543   5.071
15772TIP3    H297785   3.797   6.524   4.944
15773TIP3   OH297786   5.024   7.075   5.001
15773TIP3    H197787   4.932   7.096   4.976
15773TIP3    H297788   5.025   7.098   5.094
15774TIP3   OH297789   5.591   6.294   3.842
15774TIP3    H197790   5.541   6.259   3.766
15774TIP3    H297791   5.603   6.387   3.812
15775TIP3   OH297792   5.590   6.867   5.117
15775TIP3    H197793   5.504   6.904   5.082
15775TIP3    H297794   5.646   6.876   5.038
15776TIP3   OH297795   5.424   7.177   3.880
15776TIP3    H197796   5.387   7.095   3.914
15776TIP3    H297797   5.453   7.156   3.788
15777TIP3   OH297798   5.144   6.657   4.591
15777TIP3    H197799   5.050   6.636   4.579
15777TIP3    H297800   5.187   6.582   4.547
15778TIP3   OH297801   4.396   7.091   4.200
15778TIP3    H197802   4.446   7.171   4.180
15778TIP3    H297803   4.308   7.114   4.168
15779TIP3   OH297804   3.969   6.578   3.654
15779TIP3    H197805   4.032   6.639   3.696
15779TIP3    H297806   3.882   6.604   3.687
15780TIP3   OH297807   4.538   6.857   4.153
15780TIP3    H197808   4.507   6.949   4.161
15780TIP3    H297809   4.465   6.809   4.197
15781TIP3   OH297810   4.583   7.276   4.791
15781TIP3    H197811   4.628   7.358   4.765
15781TIP3    H297812   4.644   7.242   4.858
15782TIP3   OH297813   4.405   7.357   4.105
15782TIP3    H197814   4.309   7.369   4.120
15782TIP3    H297815   4.441   7.440   4.141
15783TIP3   OH297816   4.936   6.876   4.753
15783TIP3    H197817   4.902   6.858   4.843
15783TIP3    H297818   5.001   6.805   4.740
15784TIP3   OH297819   5.163   6.978   3.667
15784TIP3    H197820   5.195   6.935   3.749
15784TIP3    H297821   5.068   6.965   3.674
15785TIP3   OH297822   5.208   7.334   5.008
15785TIP3    H197823   5.147   7.283   4.953
15785TIP3    H297824   5.237   7.403   4.944
15786TIP3   OH297825   5.615   7.421   3.690
15786TIP3    H197826   5.685   7.484   3.665
15786TIP3    H297827   5.544   7.482   3.719
15787TIP3   OH297828   4.024   6.062   4.942
15787TIP3    H197829   3.933   6.094   4.938
15787TIP3    H297830   4.014   5.976   4.987
15788TIP3   OH297831   5.247   6.844   3.887
15788TIP3    H197832   5.222   6.767   3.942
15788TIP3    H297833   5.341   6.853   3.909
15789TIP3   OH297834   3.985   7.238   4.786
15789TIP3    H197835   4.013   7.146   4.786
15789TIP3    H297836   4.009   7.268   4.875
15790TIP3   OH297837   4.457   7.045   3.756
15790TIP3    H197838   4.486   6.991   3.830
15790TIP3    H297839   4.468   7.137   3.790
15791TIP3   OH297840   4.108   6.770   3.804
15791TIP3    H197841   4.043   6.810   3.864
15791TIP3    H297842   4.165   6.845   3.782
15792TIP3   OH297843   4.893   6.036   4.837
15792TIP3    H197844   4.967   6.040   4.899
15792TIP3    H297845   4.856   5.947   4.853
15793TIP3   OH297846   4.969   5.995   3.950
15793TIP3    H197847   4.994   6.040   3.866
15793TIP3    H297848   5.028   6.039   4.012
15794TIP3   OH297849   4.739   7.211   3.831
15794TIP3    H197850   4.657   7.262   3.835
15794TIP3    H297851   4.793   7.261   3.767
15795TIP3   OH297852   4.692   6.169   4.029
15795TIP3    H197853   4.771   6.227   4.033
15795TIP3    H297854   4.666   6.156   4.122
15796TIP3   OH297855   4.757   6.277   4.941
15796TIP3    H197856   4.754   6.326   5.024
15796TIP3    H297857   4.809   6.197   4.957
15797TIP3   OH297858   4.779   5.875   4.118
15797TIP3    H197859   4.746   5.940   4.183
15797TIP3    H297860   4.848   5.930   4.073
15798TIP3   OH297861   4.474   7.314   3.831
15798TIP3    H197862   4.493   7.396   3.781
15798TIP3    H297863   4.452   7.348   3.920
15799TIP3   OH297864   4.345   5.984   3.793
15799TIP3    H197865   4.339   6.076   3.826
15799TIP3    H297866   4.437   5.961   3.818
15800TIP3   OH297867   5.366   6.064   5.037
15800TIP3    H197868   5.272   6.088   5.021
15800TIP3    H297869   5.396   6.054   4.945
15801TIP3   OH297870   5.228   6.437   4.434
15801TIP3    H197871   5.145   6.393   4.407
15801TIP3    H297872   5.275   6.368   4.486
15802TIP3   OH297873   4.169   7.030   3.694
15802TIP3    H197874   4.235   7.093   3.726
15802TIP3    H297875   4.220   6.985   3.625
15803TIP3   OH297876   5.334   7.362   4.599
15803TIP3    H197877   5.325   7.432   4.532
15803TIP3    H297878   5.430   7.369   4.620
15804TIP3   OH297879   4.083   5.775   4.482
15804TIP3    H197880   4.064   5.777   4.385
15804TIP3    H297881   4.042   5.690   4.507
15805TIP3   OH297882   3.979   7.167   4.096
15805TIP3    H197883   3.893   7.213   4.092
15805TIP3    H297884   4.027   7.214   4.027
15806TIP3   OH297885   5.238   7.255   3.547
15806TIP3    H197886   5.262   7.172   3.592
15806TIP3    H297887   5.314   7.273   3.491
15807TIP3   OH297888   5.133   6.796   4.986
15807TIP3    H197889   5.211   6.854   4.993
15807TIP3    H297890   5.063   6.859   5.009
15808TIP3   OH297891   4.448   6.648   3.770
15808TIP3    H197892   4.396   6.594   3.832
15808TIP3    H297893   4.477   6.580   3.704
15809TIP3   OH297894   4.370   6.426   4.994
15809TIP3    H197895   4.314   6.499   5.024
15809TIP3    H297896   4.412   6.464   4.915
15810TIP3   OH297897   4.553   6.466   3.589
15810TIP3    H197898   4.542   6.453   3.494
15810TIP3    H297899   4.651   6.478   3.599
15811TIP3   OH297900   4.405   6.166   5.104
15811TIP3    H197901   4.422   6.094   5.039
15811TIP3    H297902   4.408   6.247   5.050
15812TIP3   OH297903   4.452   6.000   4.860
15812TIP3    H197904   4.504   6.050   4.792
15812TIP3    H297905   4.364   5.993   4.816
15813TIP3   OH297906   4.609   6.549   4.883
15813TIP3    H197907   4.685   6.535   4.825
15813TIP3    H297908   4.571   6.633   4.852
15814TIP3   OH297909   4.534   5.749   4.898
15814TIP3    H197910   4.513   5.845   4.890
15814TIP3    H297911   4.458   5.711   4.852
15815TIP3   OH297912   4.537   7.538   3.690
15815TIP3    H197913   4.634   7.548   3.704
15815TIP3    H297914   4.518   7.605   3.625
15816TIP3   OH297915   3.895   6.997   3.644
15816TIP3    H197916   3.991   7.006   3.665
15816TIP3    H297917   3.896   6.937   3.569
15817TIP3   OH297918   3.771   7.534   4.140
15817TIP3    H197919   3.699   7.486   4.094
15817TIP3    H297920   3.798   7.469   4.207
15818TIP3   OH297921   3.852   7.348   4.328
15818TIP3    H197922   3.817   7.260   4.348
15818TIP3    H297923   3.875   7.381   4.416
15819TIP3   OH297924   5.606   7.427   4.622
15819TIP3    H197925   5.609   7.443   4.718
15819TIP3    H297926   5.677   7.485   4.592
15820TIP3   OH297927   5.567   7.386   4.910
15820TIP3    H197928   5.518   7.309   4.878
15820TIP3    H297929   5.617   7.343   4.982
15821TIP3   OH297930   5.541   6.790   3.925
15821TIP3    H197931   5.625   6.832   3.947
15821TIP3    H297932   5.539   6.721   3.995
15822TIP3   OH297933   5.576   6.599   4.113
15822TIP3    H197934   5.501   6.549   4.153
15822TIP3    H297935   5.635   6.613   4.189
15823TIP3   OH297936   5.550   6.868   4.609
15823TIP3    H197937   5.633   6.831   4.575
15823TIP3    H297938   5.565   6.963   4.595
15824TIP3   OH297939   5.404   7.159   4.840
15824TIP3    H197940   5.337   7.194   4.900
15824TIP3    H297941   5.351   7.118   4.769
15825TIP3   OH297942   5.603   6.581   3.752
15825TIP3    H197943   5.547   6.616   3.683
15825TIP3    H297944   5.598   6.653   3.819
15826TIP3   OH297945   5.357   6.447   4.170
15826TIP3    H197946   5.343   6.351   4.169
15826TIP3    H297947   5.325   6.469   4.259
15827TIP3   OH297948   3.858   6.655   4.576
15827TIP3    H197949   3.876   6.647   4.480
15827TIP3    H297950   3.948   6.638   4.613
15828TIP3   OH297951   5.448   6.641   5.139
15828TIP3    H197952   5.507   6.569   5.158
15828TIP3    H297953   5.503   6.722   5.135
15829TIP3   OH297954   5.368   6.046   3.515
15829TIP3    H197955   5.426   6.007   3.583
15829TIP3    H297956   5.280   6.013   3.537
15830TIP3   OH297957   5.325   6.205   4.018
15830TIP3    H197958   5.355   6.112   4.030
15830TIP3    H297959   5.404   6.245   3.979
15831TIP3   OH297960   5.388   6.260   4.560
15831TIP3    H197961   5.484   6.283   4.560
15831TIP3    H297962   5.369   6.273   4.654
15832TIP3   OH297963   5.395   6.334   4.840
15832TIP3    H197964   5.307   6.362   4.874
15832TIP3    H297965   5.437   6.420   4.817
15833TIP3   OH297966   5.392   5.934   4.022
15833TIP3    H197967   5.412   5.890   4.107
15833TIP3    H297968   5.331   5.870   3.978
15834TIP3   OH297969   3.939   6.014   4.478
15834TIP3    H197970   3.986   5.932   4.504
15834TIP3    H297971   3.994   6.084   4.517
15835TIP3   OH297972   3.768   6.314   4.581
15835TIP3    H197973   3.825   6.290   4.505
15835TIP3    H297974   3.814   6.395   4.608
15836TIP3   OH297975   5.573   5.939   3.680
15836TIP3    H197976   5.616   5.868   3.628
15836TIP3    H297977   5.644   6.005   3.679
15837TIP3   OH297978   3.805   5.941   3.987
15837TIP3    H197979   3.710   5.958   3.976
15837TIP3    H297980   3.846   5.990   3.915
15838TIP3   OH297981   5.278   7.434   4.185
15838TIP3    H197982   5.346   7.404   4.122
15838TIP3    H297983   5.330   7.485   4.249
15839TIP3   OH297984   3.800   5.809   4.816
15839TIP3    H197985   3.734   5.787   4.886
15839TIP3    H297986   3.752   5.875   4.764
15840TIP3   OH297987   4.312   7.223   4.859
15840TIP3    H197988   4.278   7.311   4.835
15840TIP3    H297989   4.406   7.235   4.834
15841TIP3   OH297990   4.748   7.362   5.157
15841TIP3    H197991   4.765   7.336   5.248
15841TIP3    H297992   4.834   7.398   5.129
15842TIP3   OH297993   4.971   7.500   5.079
15842TIP3    H197994   5.043   7.439   5.057
15842TIP3    H297995   5.011   7.534   5.162
15843TIP3   OH297996   5.479   5.759   4.985
15843TIP3    H197997   5.390   5.784   4.955
15843TIP3    H297998   5.492   5.672   4.942
15844TIP3   OH297999   4.055   7.548   4.863
15844TIP3    H198000   3.982   7.600   4.825
15844TIP3    H298001   4.022   7.534   4.953
15845TIP3   OH298002   4.302   7.508   4.769
15845TIP3    H198003   4.214   7.525   4.811
15845TIP3    H298004   4.296   7.566   4.691
15846TIP3   OH298005   4.774   7.499   4.686
15846TIP3    H198006   4.728   7.554   4.621
15846TIP3    H298007   4.786   7.563   4.759
15847TIP3   OH298008   5.004   7.380   4.784
15847TIP3    H198009   4.916   7.408   4.752
15847TIP3    H298010   5.049   7.466   4.778
15848TIP3   OH298011   5.260   7.540   4.812
15848TIP3    H198012   5.254   7.635   4.789
15848TIP3    H298013   5.282   7.502   4.725
15849TIP3   OH298014   4.001   7.415   4.557
15849TIP3    H198015   3.994   7.371   4.644
15849TIP3    H298016   4.083   7.377   4.518
15850TIP3   OH298017   4.209   7.286   4.421
15850TIP3    H198018   4.193   7.193   4.444
15850TIP3    H298019   4.295   7.301   4.467
15851TIP3   OH298020   4.470   7.335   4.510
15851TIP3    H198021   4.485   7.243   4.483
15851TIP3    H298022   4.473   7.328   4.607
15852TIP3   OH298023   4.815   5.900   4.423
15852TIP3    H198024   4.747   5.836   4.451
15852TIP3    H298025   4.870   5.847   4.364
15853TIP3   OH298026   5.329   5.705   4.430
15853TIP3    H198027   5.390   5.764   4.379
15853TIP3    H298028   5.240   5.741   4.406
15854TIP3   OH298029   5.495   5.829   4.258
15854TIP3    H198030   5.564   5.771   4.216
15854TIP3    H298031   5.546   5.913   4.268
15855TIP3   OH298032   4.052   5.762   4.209
15855TIP3    H198033   3.972   5.742   4.155
15855TIP3    H298034   4.099   5.677   4.202
15856TIP3   OH298035   3.926   5.739   3.779
15856TIP3    H198036   3.977   5.803   3.725
15856TIP3    H298037   3.872   5.796   3.836
15857TIP3   OH298038   4.500   5.755   4.186
15857TIP3    H198039   4.590   5.790   4.179
15857TIP3    H298040   4.496   5.734   4.280
15858TIP3   OH298041   5.070   5.757   4.349
15858TIP3    H198042   5.066   5.768   4.254
15858TIP3    H298043   5.033   5.666   4.361
15859TIP3   OH298044   5.198   5.761   3.917
15859TIP3    H198045   5.123   5.820   3.899
15859TIP3    H298046   5.155   5.675   3.936
15860TIP3   OH298047   3.921   7.334   3.881
15860TIP3    H198048   3.853   7.333   3.811
15860TIP3    H298049   3.923   7.429   3.898
15861TIP3   OH298050   4.111   5.924   3.634
15861TIP3    H198051   4.166   5.870   3.578
15861TIP3    H298052   4.179   5.966   3.691
15862TIP3   OH298053   4.617   5.957   3.871
15862TIP3    H198054   4.641   5.899   3.946
15862TIP3    H298055   4.621   6.043   3.919
15863TIP3   OH298056   4.804   7.465   3.712
15863TIP3    H198057   4.899   7.486   3.699
15863TIP3    H298058   4.788   7.410   3.634
15864TIP3   OH298059   5.478   7.414   3.988
15864TIP3    H198060   5.458   7.337   3.930
15864TIP3    H298061   5.470   7.488   3.924
15865TIP3   OH298062   4.021   5.779   5.130
15865TIP3    H198063   3.993   5.721   5.202
15865TIP3    H298064   4.110   5.797   5.164
15866TIP3   OH298065   4.103   7.430   3.577
15866TIP3    H198066   4.075   7.460   3.665
15866TIP3    H298067   4.181   7.377   3.593
15867TIP3   OH298068   6.847   6.677   4.194
15867TIP3    H198069   6.846   6.775   4.189
15867TIP3    H298070   6.774   6.653   4.134
15868TIP3   OH298071   6.732   6.602   4.544
15868TIP3    H198072   6.731   6.536   4.615
15868TIP3    H298073   6.697   6.552   4.468
15869TIP3   OH298074   5.967   6.571   4.700
15869TIP3    H198075   5.977   6.501   4.768
15869TIP3    H298076   6.043   6.627   4.721
15870TIP3   OH298077   7.101   6.897   4.371
15870TIP3    H198078   7.059   6.826   4.420
15870TIP3    H298079   7.103   6.968   4.439
15871TIP3   OH298080   6.060   7.014   4.549
15871TIP3    H198081   6.029   6.927   4.517
15871TIP3    H298082   6.156   6.995   4.554
15872TIP3   OH298083   5.724   6.370   4.096
15872TIP3    H198084   5.681   6.457   4.093
15872TIP3    H298085   5.667   6.316   4.040
15873TIP3   OH298086   5.795   6.592   4.312
15873TIP3    H198087   5.822   6.510   4.358
15873TIP3    H298088   5.865   6.603   4.246
15874TIP3   OH298089   6.813   7.413   4.395
15874TIP3    H198090   6.878   7.343   4.367
15874TIP3    H298091   6.792   7.380   4.483
15875TIP3   OH298092   6.570   6.841   4.592
15875TIP3    H198093   6.603   6.779   4.525
15875TIP3    H298094   6.651   6.858   4.642
15876TIP3   OH298095   7.430   6.008   4.665
15876TIP3    H198096   7.446   6.066   4.742
15876TIP3    H298097   7.486   6.050   4.598
15877TIP3   OH298098   6.884   6.288   4.624
15877TIP3    H198099   6.903   6.193   4.623
15877TIP3    H298100   6.876   6.303   4.527
15878TIP3   OH298101   6.198   6.098   4.345
15878TIP3    H198102   6.209   6.181   4.296
15878TIP3    H298103   6.158   6.040   4.276
15879TIP3   OH298104   6.971   6.105   4.181
15879TIP3    H198105   7.037   6.074   4.248
15879TIP3    H298106   7.028   6.163   4.126
15880TIP3   OH298107   5.860   6.339   4.417
15880TIP3    H198108   5.927   6.284   4.462
15880TIP3    H298109   5.871   6.307   4.326
15881TIP3   OH298110   6.376   6.494   4.349
15881TIP3    H198111   6.443   6.436   4.389
15881TIP3    H298112   6.324   6.428   4.298
15882TIP3   OH298113   7.478   6.155   4.889
15882TIP3    H198114   7.409   6.224   4.878
15882TIP3    H298115   7.474   6.137   4.984
15883TIP3   OH298116   6.082   5.983   4.742
15883TIP3    H198117   6.059   6.047   4.672
15883TIP3    H298118   6.022   6.010   4.815
15884TIP3   OH298119   6.817   6.936   4.104
15884TIP3    H198120   6.788   6.908   4.016
15884TIP3    H298121   6.787   7.029   4.107
15885TIP3   OH298122   6.338   6.751   4.772
15885TIP3    H198123   6.269   6.816   4.795
15885TIP3    H298124   6.409   6.811   4.743
15886TIP3   OH298125   7.152   6.040   4.380
15886TIP3    H198126   7.131   5.963   4.433
15886TIP3    H298127   7.220   6.084   4.434
15887TIP3   OH298128   6.043   6.175   4.549
15887TIP3    H198129   6.108   6.242   4.582
15887TIP3    H298130   6.097   6.132   4.477
15888TIP3   OH298131   6.184   6.953   4.856
15888TIP3    H198132   6.179   7.044   4.821
15888TIP3    H298133   6.094   6.946   4.896
15889TIP3   OH298134   5.791   6.913   3.931
15889TIP3    H198135   5.768   6.947   3.842
15889TIP3    H298136   5.799   6.996   3.983
15890TIP3   OH298137   7.153   7.080   4.608
15890TIP3    H198138   7.057   7.092   4.620
15890TIP3    H298139   7.181   7.172   4.590
15891TIP3   OH298140   7.185   5.912   4.753
15891TIP3    H198141   7.111   5.973   4.738
15891TIP3    H298142   7.256   5.951   4.697
15892TIP3   OH298143   6.483   5.721   4.492
15892TIP3    H198144   6.469   5.625   4.488
15892TIP3    H298145   6.396   5.752   4.527
15893TIP3   OH298146   6.980   7.259   4.268
15893TIP3    H198147   7.023   7.187   4.217
15893TIP3    H298148   7.022   7.338   4.229
15894TIP3   OH298149   7.101   7.051   4.119
15894TIP3    H198150   7.071   6.982   4.058
15894TIP3    H298151   7.104   7.002   4.203
15895TIP3   OH298152   7.261   6.911   4.968
15895TIP3    H198153   7.278   6.848   4.894
15895TIP3    H298154   7.286   6.997   4.927
15896TIP3   OH298155   6.712   6.600   3.944
15896TIP3    H198156   6.641   6.657   3.906
15896TIP3    H298157   6.782   6.609   3.877
15897TIP3   OH298158   6.718   6.452   3.653
15897TIP3    H198159   6.792   6.454   3.717
15897TIP3    H298160   6.750   6.389   3.589
15898TIP3   OH298161   7.452   6.540   4.773
15898TIP3    H198162   7.386   6.613   4.780
15898TIP3    H298163   7.499   6.565   4.692
15899TIP3   OH298164   7.056   6.619   4.037
15899TIP3    H198165   6.983   6.646   4.098
15899TIP3    H298166   7.104   6.554   4.092
15900TIP3   OH298167   7.046   6.437   4.948
15900TIP3    H198168   7.050   6.517   5.001
15900TIP3    H298169   6.985   6.467   4.877
15901TIP3   OH298170   6.218   6.687   4.228
15901TIP3    H198171   6.186   6.648   4.143
15901TIP3    H298172   6.279   6.618   4.262
15902TIP3   OH298173   6.351   7.026   4.497
15902TIP3    H198174   6.349   6.973   4.417
15902TIP3    H298175   6.429   6.990   4.543
15903TIP3   OH298176   6.251   6.561   4.595
15903TIP3    H198177   6.306   6.572   4.515
15903TIP3    H298178   6.289   6.629   4.656
15904TIP3   OH298179   6.893   7.119   4.667
15904TIP3    H198180   6.862   7.185   4.730
15904TIP3    H298181   6.867   7.033   4.708
15905TIP3   OH298182   6.345   7.002   5.068
15905TIP3    H198183   6.308   7.082   5.111
15905TIP3    H298184   6.279   6.985   4.996
15906TIP3   OH298185   6.946   6.539   3.804
15906TIP3    H198186   6.998   6.559   3.886
15906TIP3    H298187   6.983   6.596   3.736
15907TIP3   OH298188   6.039   6.623   4.982
15907TIP3    H198189   6.045   6.685   5.055
15907TIP3    H298190   5.946   6.629   4.956
15908TIP3   OH298191   6.716   7.213   4.151
15908TIP3    H198192   6.759   7.244   4.231
15908TIP3    H298193   6.659   7.288   4.127
15909TIP3   OH298194   6.165   7.206   5.139
15909TIP3    H198195   6.166   7.200   5.042
15909TIP3    H298196   6.071   7.199   5.161
15910TIP3   OH298197   7.315   5.712   3.794
15910TIP3    H198198   7.220   5.725   3.818
15910TIP3    H298199   7.338   5.798   3.753
15911TIP3   OH298200   6.115   6.589   3.989
15911TIP3    H198201   6.087   6.667   3.937
15911TIP3    H298202   6.049   6.523   3.967
15912TIP3   OH298203   7.427   7.148   3.633
15912TIP3    H198204   7.440   7.244   3.643
15912TIP3    H298205   7.519   7.120   3.623
15913TIP3   OH298206   5.728   6.832   4.874
15913TIP3    H198207   5.680   6.825   4.790
15913TIP3    H298208   5.730   6.737   4.900
15914TIP3   OH298209   5.700   7.106   4.558
15914TIP3    H198210   5.796   7.094   4.556
15914TIP3    H298211   5.692   7.187   4.610
15915TIP3   OH298212   7.535   7.173   5.074
15915TIP3    H198213   7.522   7.083   5.107
15915TIP3    H298214   7.464   7.212   5.130
15916TIP3   OH298215   6.625   7.123   5.021
15916TIP3    H198216   6.627   7.213   5.061
15916TIP3    H298217   6.530   7.098   5.034
15917TIP3   OH298218   6.662   7.504   3.991
15917TIP3    H198219   6.654   7.498   3.894
15917TIP3    H298220   6.666   7.601   4.008
15918TIP3   OH298221   6.028   7.392   4.175
15918TIP3    H198222   6.042   7.351   4.263
15918TIP3    H298223   5.943   7.352   4.151
15919TIP3   OH298224   6.965   7.425   3.689
15919TIP3    H198225   7.013   7.349   3.648
15919TIP3    H298226   6.974   7.400   3.783
15920TIP3   OH298227   6.938   7.420   3.969
15920TIP3    H198228   6.842   7.426   3.988
15920TIP3    H298229   6.963   7.345   4.026
15921TIP3   OH298230   5.953   6.959   4.978
15921TIP3    H198231   5.969   6.926   5.066
15921TIP3    H298232   5.865   6.925   4.950
15922TIP3   OH298233   6.220   5.812   4.564
15922TIP3    H198234   6.128   5.800   4.532
15922TIP3    H298235   6.210   5.891   4.618
15923TIP3   OH298236   6.685   5.778   4.906
15923TIP3    H198237   6.721   5.739   4.987
15923TIP3    H298238   6.587   5.770   4.923
15924TIP3   OH298239   6.999   6.160   4.989
15924TIP3    H198240   6.964   6.143   5.078
15924TIP3    H298241   7.000   6.257   4.976
15925TIP3   OH298242   6.645   6.037   3.639
15925TIP3    H198243   6.619   6.030   3.733
15925TIP3    H298244   6.622   5.948   3.611
15926TIP3   OH298245   6.227   6.308   4.691
15926TIP3    H198246   6.158   6.306   4.760
15926TIP3    H298247   6.224   6.401   4.658
15927TIP3   OH298248   6.226   6.321   4.180
15927TIP3    H198249   6.133   6.295   4.167
15927TIP3    H298250   6.264   6.291   4.096
15928TIP3   OH298251   6.778   6.369   4.057
15928TIP3    H198252   6.738   6.453   4.024
15928TIP3    H298253   6.847   6.353   3.990
15929TIP3   OH298254   6.882   6.319   4.343
15929TIP3    H198255   6.854   6.375   4.268
15929TIP3    H298256   6.892   6.234   4.295
15930TIP3   OH298257   5.991   6.337   4.864
15930TIP3    H198258   6.002   6.372   4.955
15930TIP3    H298259   5.952   6.249   4.883
15931TIP3   OH298260   5.659   6.045   4.261
15931TIP3    H198261   5.727   6.041   4.331
15931TIP3    H298262   5.704   6.007   4.183
15932TIP3   OH298263   5.787   6.120   3.800
15932TIP3    H198264   5.833   6.177   3.737
15932TIP3    H298265   5.717   6.181   3.830
15933TIP3   OH298266   6.807   6.479   4.805
15933TIP3    H198267   6.840   6.413   4.740
15933TIP3    H298268   6.755   6.423   4.865
15934TIP3   OH298269   6.483   6.075   4.281
15934TIP3    H198270   6.389   6.076   4.311
15934TIP3    H298271   6.531   6.059   4.364
15935TIP3   OH298272   5.964   6.231   4.167
15935TIP3    H198273   5.874   6.245   4.129
15935TIP3    H298274   5.992   6.146   4.128
15936TIP3   OH298275   6.326   6.237   3.931
15936TIP3    H198276   6.422   6.247   3.948
15936TIP3    H298277   6.304   6.303   3.863
15937TIP3   OH298278   6.923   5.998   4.607
15937TIP3    H198279   6.854   6.004   4.676
15937TIP3    H298280   6.872   5.974   4.528
15938TIP3   OH298281   6.198   6.350   3.691
15938TIP3    H198282   6.143   6.318   3.617
15938TIP3    H298283   6.279   6.376   3.645
15939TIP3   OH298284   6.610   6.351   4.471
15939TIP3    H198285   6.670   6.297   4.418
15939TIP3    H298286   6.596   6.296   4.549
15940TIP3   OH298287   6.112   5.965   4.116
15940TIP3    H198288   6.081   5.873   4.112
15940TIP3    H298289   6.190   5.960   4.059
15941TIP3   OH298290   6.478   6.188   4.708
15941TIP3    H198291   6.393   6.233   4.721
15941TIP3    H298292   6.530   6.215   4.786
15942TIP3   OH298293   6.534   6.803   3.885
15942TIP3    H198294   6.454   6.759   3.850
15942TIP3    H298295   6.511   6.817   3.979
15943TIP3   OH298296   7.252   6.723   4.763
15943TIP3    H198297   7.308   6.774   4.701
15943TIP3    H298298   7.167   6.729   4.715
15944TIP3   OH298299   6.919   6.086   3.700
15944TIP3    H198300   6.824   6.102   3.683
15944TIP3    H298301   6.949   6.173   3.732
15945TIP3   OH298302   6.680   6.834   5.003
15945TIP3    H198303   6.636   6.785   5.076
15945TIP3    H298304   6.640   6.923   5.007
15946TIP3   OH298305   6.991   6.279   3.867
15946TIP3    H198306   7.081   6.266   3.903
15946TIP3    H298307   6.998   6.360   3.814
15947TIP3   OH298308   6.044   6.745   4.462
15947TIP3    H198309   6.113   6.737   4.393
15947TIP3    H298310   6.050   6.659   4.507
15948TIP3   OH298311   6.744   6.953   3.791
15948TIP3    H198312   6.706   7.038   3.821
15948TIP3    H298313   6.669   6.891   3.806
15949TIP3   OH298314   5.740   6.588   4.989
15949TIP3    H198315   5.765   6.543   5.071
15949TIP3    H298316   5.682   6.523   4.943
15950TIP3   OH298317   6.910   7.083   4.999
15950TIP3    H198318   6.819   7.108   4.971
15950TIP3    H298319   6.914   7.116   5.090
15951TIP3   OH298320   7.476   6.294   3.842
15951TIP3    H198321   7.427   6.260   3.766
15951TIP3    H298322   7.489   6.387   3.812
15952TIP3   OH298323   7.477   6.869   5.117
15952TIP3    H198324   7.391   6.904   5.083
15952TIP3    H298325   7.530   6.875   5.035
15953TIP3   OH298326   7.310   7.176   3.880
15953TIP3    H198327   7.272   7.094   3.914
15953TIP3    H298328   7.339   7.156   3.788
15954TIP3   OH298329   7.028   6.658   4.593
15954TIP3    H198330   6.935   6.636   4.578
15954TIP3    H298331   7.073   6.584   4.549
15955TIP3   OH298332   6.281   7.091   4.201
15955TIP3    H198333   6.331   7.171   4.180
15955TIP3    H298334   6.193   7.114   4.168
15956TIP3   OH298335   5.855   6.578   3.654
15956TIP3    H198336   5.917   6.639   3.696
15956TIP3    H298337   5.768   6.604   3.687
15957TIP3   OH298338   6.423   6.857   4.153
15957TIP3    H198339   6.392   6.949   4.161
15957TIP3    H298340   6.351   6.809   4.197
15958TIP3   OH298341   6.468   7.277   4.790
15958TIP3    H198342   6.513   7.358   4.765
15958TIP3    H298343   6.529   7.243   4.858
15959TIP3   OH298344   6.291   7.357   4.105
15959TIP3    H198345   6.194   7.369   4.120
15959TIP3    H298346   6.327   7.440   4.141
15960TIP3   OH298347   6.828   6.880   4.759
15960TIP3    H198348   6.782   6.851   4.839
15960TIP3    H298349   6.885   6.804   4.736
15961TIP3   OH298350   7.049   6.978   3.667
15961TIP3    H198351   7.079   6.935   3.750
15961TIP3    H298352   6.953   6.965   3.674
15962TIP3   OH298353   7.094   7.333   5.008
15962TIP3    H198354   7.033   7.285   4.952
15962TIP3    H298355   7.123   7.404   4.945
15963TIP3   OH298356   7.502   7.421   3.690
15963TIP3    H198357   7.571   7.484   3.665
15963TIP3    H298358   7.430   7.481   3.719
15964TIP3   OH298359   5.908   6.062   4.941
15964TIP3    H198360   5.817   6.094   4.939
15964TIP3    H298361   5.901   5.977   4.987
15965TIP3   OH298362   7.133   6.844   3.887
15965TIP3    H198363   7.108   6.767   3.942
15965TIP3    H298364   7.227   6.853   3.909
15966TIP3   OH298365   5.871   7.238   4.786
15966TIP3    H198366   5.899   7.146   4.786
15966TIP3    H298367   5.895   7.268   4.875
15967TIP3   OH298368   6.342   7.045   3.756
15967TIP3    H198369   6.371   6.991   3.830
15967TIP3    H298370   6.354   7.137   3.790
15968TIP3   OH298371   5.994   6.770   3.804
15968TIP3    H198372   5.928   6.810   3.864
15968TIP3    H298373   6.051   6.845   3.782
15969TIP3   OH298374   6.782   6.035   4.834
15969TIP3    H198375   6.850   6.040   4.902
15969TIP3    H298376   6.739   5.949   4.854
15970TIP3   OH298377   6.855   5.995   3.950
15970TIP3    H198378   6.879   6.040   3.866
15970TIP3    H298379   6.914   6.039   4.012
15971TIP3   OH298380   6.625   7.211   3.831
15971TIP3    H198381   6.542   7.262   3.835
15971TIP3    H298382   6.678   7.261   3.767
15972TIP3   OH298383   6.578   6.169   4.029
15972TIP3    H198384   6.657   6.227   4.033
15972TIP3    H298385   6.552   6.156   4.122
15973TIP3   OH298386   6.649   6.281   4.939
15973TIP3    H198387   6.637   6.324   5.025
15973TIP3    H298388   6.691   6.195   4.958
15974TIP3   OH298389   6.664   5.875   4.119
15974TIP3    H198390   6.632   5.940   4.184
15974TIP3    H298391   6.733   5.930   4.073
15975TIP3   OH298392   6.360   7.314   3.831
15975TIP3    H198393   6.379   7.396   3.781
15975TIP3    H298394   6.337   7.348   3.920
15976TIP3   OH298395   6.231   5.984   3.793
15976TIP3    H198396   6.224   6.076   3.825
15976TIP3    H298397   6.322   5.961   3.818
15977TIP3   OH298398   7.252   6.068   5.036
15977TIP3    H198399   7.158   6.088   5.020
15977TIP3    H298400   7.282   6.055   4.945
15978TIP3   OH298401   7.113   6.437   4.435
15978TIP3    H198402   7.031   6.393   4.407
15978TIP3    H298403   7.161   6.368   4.486
15979TIP3   OH298404   6.055   7.030   3.694
15979TIP3    H198405   6.120   7.093   3.726
15979TIP3    H298406   6.105   6.985   3.625
15980TIP3   OH298407   7.220   7.362   4.600
15980TIP3    H198408   7.210   7.432   4.532
15980TIP3    H298409   7.316   7.369   4.620
15981TIP3   OH298410   5.968   5.775   4.481
15981TIP3    H198411   5.949   5.777   4.385
15981TIP3    H298412   5.927   5.690   4.507
15982TIP3   OH298413   5.864   7.167   4.096
15982TIP3    H198414   5.779   7.213   4.092
15982TIP3    H298415   5.912   7.214   4.026
15983TIP3   OH298416   7.124   7.255   3.548
15983TIP3    H198417   7.149   7.172   3.593
15983TIP3    H298418   7.200   7.273   3.491
15984TIP3   OH298419   7.024   6.793   4.988
15984TIP3    H198420   7.105   6.849   4.990
15984TIP3    H298421   6.959   6.861   4.982
15985TIP3   OH298422   6.334   6.648   3.770
15985TIP3    H198423   6.282   6.594   3.832
15985TIP3    H298424   6.362   6.580   3.704
15986TIP3   OH298425   6.256   6.429   4.994
15986TIP3    H198426   6.198   6.501   5.024
15986TIP3    H298427   6.298   6.465   4.914
15987TIP3   OH298428   6.439   6.466   3.590
15987TIP3    H198429   6.428   6.453   3.495
15987TIP3    H298430   6.536   6.478   3.599
15988TIP3   OH298431   6.268   6.182   5.100
15988TIP3    H198432   6.309   6.102   5.059
15988TIP3    H298433   6.295   6.256   5.044
15989TIP3   OH298434   6.331   5.995   4.830
15989TIP3    H198435   6.387   6.057   4.778
15989TIP3    H298436   6.239   6.000   4.799
15990TIP3   OH298437   6.498   6.552   4.886
15990TIP3    H198438   6.568   6.533   4.823
15990TIP3    H298439   6.455   6.632   4.851
15991TIP3   OH298440   6.424   5.740   4.877
15991TIP3    H198441   6.405   5.835   4.899
15991TIP3    H298442   6.336   5.711   4.850
15992TIP3   OH298443   6.423   7.538   3.691
15992TIP3    H198444   6.520   7.548   3.704
15992TIP3    H298445   6.404   7.606   3.626
15993TIP3   OH298446   5.781   6.998   3.644
15993TIP3    H198447   5.877   7.006   3.665
15993TIP3    H298448   5.782   6.937   3.569
15994TIP3   OH298449   5.657   7.534   4.140
15994TIP3    H198450   5.585   7.486   4.094
15994TIP3    H298451   5.684   7.469   4.207
15995TIP3   OH298452   5.738   7.348   4.328
15995TIP3    H198453   5.702   7.260   4.348
15995TIP3    H298454   5.760   7.381   4.416
15996TIP3   OH298455   7.488   7.428   4.621
15996TIP3    H198456   7.494   7.443   4.717
15996TIP3    H298457   7.561   7.483   4.592
15997TIP3   OH298458   7.453   7.386   4.911
15997TIP3    H198459   7.403   7.309   4.878
15997TIP3    H298460   7.503   7.342   4.982
15998TIP3   OH298461   7.427   6.790   3.925
15998TIP3    H198462   7.511   6.832   3.947
15998TIP3    H298463   7.424   6.721   3.995
15999TIP3   OH298464   7.461   6.599   4.113
15999TIP3    H198465   7.386   6.549   4.153
15999TIP3    H298466   7.521   6.613   4.189
16000TIP3   OH298467   7.436   6.868   4.610
16000TIP3    H198468   7.519   6.831   4.575
16000TIP3    H298469   7.451   6.963   4.595
16001TIP3   OH298470   7.289   7.159   4.840
16001TIP3    H198471   7.222   7.196   4.899
16001TIP3    H298472   7.236   7.119   4.767
16002TIP3   OH298473   7.489   6.582   3.752
16002TIP3    H198474   7.433   6.617   3.683
16002TIP3    H298475   7.484   6.652   3.820
16003TIP3   OH298476   7.243   6.447   4.170
16003TIP3    H198477   7.228   6.351   4.169
16003TIP3    H298478   7.210   6.469   4.259
16004TIP3   OH298479   5.743   6.655   4.577
16004TIP3    H198480   5.762   6.647   4.481
16004TIP3    H298481   5.833   6.638   4.613
16005TIP3   OH298482   7.332   6.642   5.142
16005TIP3    H198483   7.389   6.568   5.157
16005TIP3    H298484   7.390   6.721   5.134
16006TIP3   OH298485   7.252   6.048   3.518
16006TIP3    H198486   7.312   6.007   3.583
16006TIP3    H298487   7.165   6.012   3.537
16007TIP3   OH298488   7.210   6.205   4.018
16007TIP3    H198489   7.240   6.112   4.030
16007TIP3    H298490   7.290   6.245   3.979
16008TIP3   OH298491   7.274   6.260   4.559
16008TIP3    H198492   7.370   6.283   4.560
16008TIP3    H298493   7.255   6.273   4.654
16009TIP3   OH298494   7.280   6.333   4.839
16009TIP3    H198495   7.193   6.362   4.874
16009TIP3    H298496   7.323   6.419   4.817
16010TIP3   OH298497   7.276   5.933   4.021
16010TIP3    H198498   7.298   5.890   4.107
16010TIP3    H298499   7.216   5.869   3.978
16011TIP3   OH298500   5.825   6.014   4.478
16011TIP3    H198501   5.871   5.932   4.503
16011TIP3    H298502   5.880   6.084   4.517
16012TIP3   OH298503   5.654   6.314   4.581
16012TIP3    H198504   5.710   6.290   4.505
16012TIP3    H298505   5.700   6.395   4.608
16013TIP3   OH298506   7.459   5.938   3.679
16013TIP3    H198507   7.501   5.868   3.627
16013TIP3    H298508   7.529   6.005   3.678
16014TIP3   OH298509   5.690   5.941   3.987
16014TIP3    H198510   5.596   5.958   3.976
16014TIP3    H298511   5.731   5.990   3.915
16015TIP3   OH298512   7.164   7.434   4.185
16015TIP3    H198513   7.232   7.404   4.122
16015TIP3    H298514   7.216   7.485   4.249
16016TIP3   OH298515   5.686   5.809   4.816
16016TIP3    H198516   5.619   5.787   4.886
16016TIP3    H298517   5.637   5.875   4.764
16017TIP3   OH298518   6.198   7.223   4.859
16017TIP3    H198519   6.164   7.311   4.835
16017TIP3    H298520   6.292   7.235   4.834
16018TIP3   OH298521   6.635   7.357   5.155
16018TIP3    H198522   6.650   7.338   5.249
16018TIP3    H298523   6.719   7.400   5.130
16019TIP3   OH298524   6.856   7.499   5.080
16019TIP3    H198525   6.930   7.440   5.056
16019TIP3    H298526   6.896   7.533   5.162
16020TIP3   OH298527   7.367   5.763   4.980
16020TIP3    H198528   7.275   5.782   4.958
16020TIP3    H298529   7.376   5.671   4.947
16021TIP3   OH298530   5.940   7.548   4.863
16021TIP3    H198531   5.868   7.600   4.825
16021TIP3    H298532   5.907   7.534   4.953
16022TIP3   OH298533   6.188   7.508   4.769
16022TIP3    H198534   6.100   7.525   4.811
16022TIP3    H298535   6.182   7.566   4.691
16023TIP3   OH298536   6.660   7.499   4.686
16023TIP3    H198537   6.613   7.554   4.621
16023TIP3    H298538   6.672   7.563   4.760
16024TIP3   OH298539   6.888   7.377   4.786
16024TIP3    H198540   6.802   7.407   4.752
16024TIP3    H298541   6.935   7.463   4.779
16025TIP3   OH298542   7.146   7.539   4.812
16025TIP3    H198543   7.140   7.635   4.789
16025TIP3    H298544   7.168   7.503   4.725
16026TIP3   OH298545   5.887   7.415   4.557
16026TIP3    H198546   5.880   7.372   4.645
16026TIP3    H298547   5.968   7.377   4.518
16027TIP3   OH298548   6.095   7.286   4.421
16027TIP3    H198549   6.078   7.193   4.444
16027TIP3    H298550   6.180   7.301   4.467
16028TIP3   OH298551   6.356   7.335   4.510
16028TIP3    H198552   6.370   7.243   4.481
16028TIP3    H298553   6.359   7.328   4.606
16029TIP3   OH298554   6.701   5.900   4.423
16029TIP3    H198555   6.633   5.836   4.451
16029TIP3    H298556   6.756   5.846   4.365
16030TIP3   OH298557   7.382   5.829   4.258
16030TIP3    H198558   7.450   5.772   4.216
16030TIP3    H298559   7.432   5.913   4.268
16031TIP3   OH298560   5.937   5.762   4.207
16031TIP3    H198561   5.858   5.742   4.155
16031TIP3    H298562   5.984   5.676   4.202
16032TIP3   OH298563   5.812   5.740   3.779
16032TIP3    H198564   5.863   5.803   3.725
16032TIP3    H298565   5.757   5.796   3.836
16033TIP3   OH298566   6.385   5.755   4.186
16033TIP3    H198567   6.475   5.791   4.180
16033TIP3    H298568   6.381   5.733   4.279
16034TIP3   OH298569   6.956   5.757   4.349
16034TIP3    H198570   6.951   5.768   4.254
16034TIP3    H298571   6.918   5.666   4.361
16035TIP3   OH298572   7.083   5.760   3.915
16035TIP3    H198573   7.009   5.819   3.899
16035TIP3    H298574   7.040   5.675   3.938
16036TIP3   OH298575   5.807   7.334   3.881
16036TIP3    H198576   5.739   7.334   3.811
16036TIP3    H298577   5.809   7.429   3.898
16037TIP3   OH298578   5.997   5.924   3.634
16037TIP3    H198579   6.052   5.871   3.578
16037TIP3    H298580   6.065   5.966   3.691
16038TIP3   OH298581   6.502   5.957   3.871
16038TIP3    H198582   6.526   5.899   3.946
16038TIP3    H298583   6.506   6.043   3.919
16039TIP3   OH298584   6.690   7.465   3.712
16039TIP3    H198585   6.784   7.486   3.698
16039TIP3    H298586   6.674   7.410   3.634
16040TIP3   OH298587   7.364   7.414   3.988
16040TIP3    H198588   7.343   7.337   3.930
16040TIP3    H298589   7.355   7.488   3.924
16041TIP3   OH298590   5.905   5.779   5.130
16041TIP3    H198591   5.881   5.721   5.202
16041TIP3    H298592   5.995   5.798   5.161
16042TIP3   OH298593   5.988   7.429   3.577
16042TIP3    H198594   5.960   7.459   3.665
16042TIP3    H298595   6.066   7.377   3.594
16043TIP3   OH298596   7.853   6.571   4.700
16043TIP3    H198597   7.862   6.501   4.769
16043TIP3    H298598   7.928   6.628   4.720
16044TIP3   OH298599   7.945   7.012   4.554
16044TIP3    H198600   7.915   6.926   4.518
16044TIP3    H298601   8.041   6.996   4.558
16045TIP3   OH298602   7.610   6.370   4.094
16045TIP3    H198603   7.567   6.458   4.092
16045TIP3    H298604   7.551   6.317   4.039
16046TIP3   OH298605   7.684   6.594   4.312
16046TIP3    H198606   7.707   6.511   4.358
16046TIP3    H298607   7.756   6.601   4.247
16047TIP3   OH298608   8.040   6.111   4.365
16047TIP3    H198609   8.085   6.183   4.314
16047TIP3    H298610   8.040   6.044   4.296
16048TIP3   OH298611   7.748   6.339   4.416
16048TIP3    H198612   7.817   6.286   4.462
16048TIP3    H298613   7.757   6.305   4.326
16049TIP3   OH298614   7.971   5.984   4.747
16049TIP3    H198615   7.944   6.044   4.674
16049TIP3    H298616   7.905   6.010   4.814
16050TIP3   OH298617   7.922   6.183   4.572
16050TIP3    H198618   7.994   6.248   4.584
16050TIP3    H298619   7.967   6.141   4.493
16051TIP3   OH298620   8.051   6.962   4.844
16051TIP3    H198621   8.057   7.057   4.825
16051TIP3    H298622   7.969   6.958   4.897
16052TIP3   OH298623   7.680   6.915   3.931
16052TIP3    H198624   7.653   6.948   3.843
16052TIP3    H298625   7.684   6.997   3.984
16053TIP3   OH298626   8.088   6.691   4.229
16053TIP3    H198627   8.069   6.653   4.140
16053TIP3    H298628   8.157   6.632   4.263
16054TIP3   OH298629   7.922   6.619   4.988
16054TIP3    H198630   7.929   6.690   5.051
16054TIP3    H298631   7.832   6.629   4.953
16055TIP3   OH298632   8.047   7.209   5.140
16055TIP3    H198633   8.055   7.197   5.043
16055TIP3    H298634   7.954   7.198   5.160
16056TIP3   OH298635   8.001   6.588   3.992
16056TIP3    H198636   7.975   6.667   3.940
16056TIP3    H298637   7.932   6.527   3.968
16057TIP3   OH298638   7.612   6.832   4.876
16057TIP3    H198639   7.566   6.825   4.790
16057TIP3    H298640   7.615   6.737   4.899
16058TIP3   OH298641   7.589   7.106   4.559
16058TIP3    H198642   7.685   7.095   4.557
16058TIP3    H298643   7.579   7.188   4.610
16059TIP3   OH298644   7.910   7.392   4.173
16059TIP3    H198645   7.928   7.351   4.260
16059TIP3    H298646   7.826   7.348   4.151
16060TIP3   OH298647   7.830   6.966   4.981
16060TIP3    H198648   7.858   6.925   5.062
16060TIP3    H298649   7.748   6.921   4.949
16061TIP3   OH298650   8.101   5.811   4.569
16061TIP3    H198651   8.012   5.801   4.529
16061TIP3    H298652   8.095   5.899   4.608
16062TIP3   OH298653   8.111   6.323   4.763
16062TIP3    H198654   8.017   6.299   4.774
16062TIP3    H298655   8.100   6.375   4.680
16063TIP3   OH298656   8.084   6.305   4.207
16063TIP3    H198657   7.994   6.289   4.171
16063TIP3    H298658   8.144   6.284   4.136
16064TIP3   OH298659   7.873   6.340   4.870
16064TIP3    H198660   7.882   6.376   4.959
16064TIP3    H298661   7.838   6.251   4.884
16065TIP3   OH298662   7.545   6.045   4.261
16065TIP3    H198663   7.613   6.041   4.331
16065TIP3    H298664   7.591   6.008   4.183
16066TIP3   OH298665   7.676   6.121   3.804
16066TIP3    H198666   7.718   6.176   3.736
16066TIP3    H298667   7.603   6.180   3.830
16067TIP3   OH298668   7.842   6.228   4.167
16067TIP3    H198669   7.755   6.243   4.128
16067TIP3    H298670   7.875   6.143   4.134
16068TIP3   OH298671   8.087   6.345   3.691
16068TIP3    H198672   8.027   6.320   3.618
16068TIP3    H298673   8.165   6.375   3.643
16069TIP3   OH298674   7.974   5.964   4.107
16069TIP3    H198675   7.956   5.868   4.119
16069TIP3    H298676   8.070   5.963   4.090
16070TIP3   OH298677   7.929   6.744   4.461
16070TIP3    H198678   8.000   6.737   4.394
16070TIP3    H298679   7.937   6.659   4.508
16071TIP3   OH298680   7.625   6.588   4.991
16071TIP3    H198681   7.652   6.540   5.070
16071TIP3    H298682   7.567   6.525   4.944
16072TIP3   OH298683   7.741   6.581   3.649
16072TIP3    H198684   7.803   6.639   3.696
16072TIP3    H298685   7.654   6.604   3.686
16073TIP3   OH298686   7.795   6.063   4.945
16073TIP3    H198687   7.703   6.094   4.938
16073TIP3    H298688   7.784   5.976   4.987
16074TIP3   OH298689   7.758   7.239   4.785
16074TIP3    H198690   7.784   7.145   4.787
16074TIP3    H298691   7.783   7.269   4.874
16075TIP3   OH298692   7.880   6.770   3.804
16075TIP3    H198693   7.814   6.809   3.864
16075TIP3    H298694   7.933   6.848   3.783
16076TIP3   OH298695  -0.048   5.983   3.770
16076TIP3    H198696  -0.045   6.069   3.812
16076TIP3    H298697   0.043   5.955   3.790
16077TIP3   OH298698   7.943   7.024   3.696
16077TIP3    H198699   8.003   7.095   3.725
16077TIP3    H298700   7.994   6.987   3.624
16078TIP3   OH298701   7.855   5.775   4.480
16078TIP3    H198702   7.834   5.779   4.384
16078TIP3    H298703   7.813   5.690   4.508
16079TIP3   OH298704   7.749   7.168   4.095
16079TIP3    H198705   7.664   7.214   4.091
16079TIP3    H298706   7.800   7.215   4.028
16080TIP3   OH298707   7.669   6.997   3.645
16080TIP3    H198708   7.764   7.006   3.666
16080TIP3    H298709   7.669   6.937   3.569
16081TIP3   OH298710   7.542   7.534   4.141
16081TIP3    H198711   7.470   7.486   4.094
16081TIP3    H298712   7.571   7.469   4.207
16082TIP3   OH298713   7.625   7.347   4.327
16082TIP3    H198714   7.589   7.260   4.348
16082TIP3    H298715   7.648   7.381   4.416
16083TIP3   OH298716   7.627   6.653   4.576
16083TIP3    H198717   7.649   6.647   4.480
16083TIP3    H298718   7.717   6.637   4.613
16084TIP3   OH298719   7.710   6.013   4.480
16084TIP3    H198720   7.762   5.932   4.499
16084TIP3    H298721   7.766   6.083   4.516
16085TIP3   OH298722   7.539   6.315   4.580
16085TIP3    H198723   7.598   6.290   4.506
16085TIP3    H298724   7.587   6.394   4.608
16086TIP3   OH298725   7.576   5.941   3.987
16086TIP3    H198726   7.482   5.958   3.975
16086TIP3    H298727   7.618   5.990   3.915
16087TIP3   OH298728   7.573   5.809   4.817
16087TIP3    H198729   7.506   5.786   4.886
16087TIP3    H298730   7.523   5.875   4.764
16088TIP3   OH298731   8.088   7.226   4.864
16088TIP3    H198732   8.051   7.312   4.836
16088TIP3    H298733   8.180   7.238   4.834
16089TIP3   OH298734   7.826   7.544   4.863
16089TIP3    H198735   7.754   7.598   4.824
16089TIP3    H298736   7.793   7.533   4.953
16090TIP3   OH298737   8.055   7.485   4.751
16090TIP3    H198738   7.984   7.520   4.809
16090TIP3    H298739   8.071   7.564   4.695
16091TIP3   OH298740   7.767   7.415   4.558
16091TIP3    H198741   7.767   7.372   4.646
16091TIP3    H298742   7.851   7.380   4.519
16092TIP3   OH298743   7.980   7.288   4.424
16092TIP3    H198744   7.961   7.194   4.445
16092TIP3    H298745   8.064   7.301   4.470
16093TIP3   OH298746   7.821   5.762   4.209
16093TIP3    H198747   7.742   5.741   4.155
16093TIP3    H298748   7.869   5.677   4.205
16094TIP3   OH298749   7.695   5.739   3.778
16094TIP3    H198750   7.748   5.802   3.727
16094TIP3    H298751   7.642   5.797   3.836
16095TIP3   OH298752   7.691   7.334   3.881
16095TIP3    H198753   7.624   7.333   3.810
16095TIP3    H298754   7.692   7.429   3.898
16096TIP3   OH298755   7.881   5.925   3.634
16096TIP3    H198756   7.936   5.875   3.574
16096TIP3    H298757   7.952   5.963   3.691
16097TIP3   OH298758   7.795   5.780   5.129
16097TIP3    H198759   7.764   5.722   5.200
16097TIP3    H298760   7.881   5.799   5.167
16098TIP3   OH298761   7.873   7.430   3.576
16098TIP3    H198762   7.846   7.461   3.664
16098TIP3    H298763   7.952   7.378   3.592
16099TIP3   OH298764   1.782   7.887   4.667
16099TIP3    H198765   1.791   7.952   4.740
16099TIP3    H298766   1.825   7.936   4.597
16100TIP3   OH298767   0.543   7.986   4.347
16100TIP3    H198768   0.552   8.064   4.292
16100TIP3    H298769   0.502   7.928   4.279
16101TIP3   OH298770   1.313   7.993   4.179
16101TIP3    H198771   1.378   7.963   4.248
16101TIP3    H298772   1.375   8.048   4.129
16102TIP3   OH298773   1.823   8.033   4.886
16102TIP3    H198774   1.756   8.099   4.868
16102TIP3    H298775   1.821   8.022   4.983
16103TIP3   OH298776   0.435   7.871   4.745
16103TIP3    H198777   0.397   7.927   4.674
16103TIP3    H298778   0.366   7.892   4.814
16104TIP3   OH298779   1.494   7.922   4.379
16104TIP3    H198780   1.472   7.848   4.435
16104TIP3    H298781   1.557   7.972   4.433
16105TIP3   OH298782   0.394   8.048   4.561
16105TIP3    H198783   0.444   8.128   4.579
16105TIP3    H298784   0.438   8.017   4.478
16106TIP3   OH298785   1.529   7.800   4.753
16106TIP3    H198786   1.454   7.857   4.735
16106TIP3    H298787   1.599   7.837   4.697
16107TIP3   OH298788   0.826   7.607   4.493
16107TIP3    H198789   0.813   7.511   4.488
16107TIP3    H298790   0.739   7.638   4.525
16108TIP3   OH298791   1.659   7.598   3.794
16108TIP3    H198792   1.564   7.613   3.818
16108TIP3    H298793   1.681   7.683   3.752
16109TIP3   OH298794   0.564   7.697   4.567
16109TIP3    H198795   0.473   7.684   4.532
16109TIP3    H298796   0.552   7.779   4.616
16110TIP3   OH298797   1.027   7.667   4.908
16110TIP3    H198798   1.066   7.623   4.986
16110TIP3    H298799   0.929   7.650   4.921
16111TIP3   OH298800   1.342   8.046   4.991
16111TIP3    H198801   1.311   8.031   5.081
16111TIP3    H298802   1.335   8.141   4.975
16112TIP3   OH298803   0.991   7.922   3.641
16112TIP3    H198804   0.961   7.916   3.734
16112TIP3    H298805   0.966   7.834   3.611
16113TIP3   OH298806   0.075   7.942   4.213
16113TIP3    H198807   0.075   7.916   4.308
16113TIP3    H298808   0.074   7.856   4.166
16114TIP3   OH298809   0.145   8.005   3.811
16114TIP3    H198810   0.186   8.063   3.743
16114TIP3    H298811   0.073   8.067   3.829
16115TIP3   OH298812   0.824   7.962   4.282
16115TIP3    H198813   0.731   7.960   4.310
16115TIP3    H298814   0.876   7.946   4.363
16116TIP3   OH298815   0.307   8.065   4.159
16116TIP3    H198816   0.225   8.094   4.118
16116TIP3    H298817   0.341   7.994   4.102
16117TIP3   OH298818   0.673  -0.029   3.919
16117TIP3    H198819   0.763  -0.010   3.953
16117TIP3    H298820   0.651   0.048   3.866
16118TIP3   OH298821   1.268   7.878   4.609
16118TIP3    H198822   1.197   7.893   4.674
16118TIP3    H298823   1.217   7.862   4.528
16119TIP3   OH298824   0.455   7.850   4.114
16119TIP3    H198825   0.424   7.758   4.112
16119TIP3    H298826   0.534   7.846   4.060
16120TIP3   OH298827   0.820   8.065   4.706
16120TIP3    H198828   0.741   8.114   4.722
16120TIP3    H298829   0.873   8.094   4.783
16121TIP3   OH298830   1.262   7.976   3.704
16121TIP3    H198831   1.168   7.990   3.684
16121TIP3    H298832   1.295   8.064   3.727
16122TIP3   OH298833   0.261   7.941   4.934
16122TIP3    H198834   0.172   7.983   4.942
16122TIP3    H298835   0.238   7.863   4.987
16123TIP3   OH298836   1.123   7.928   4.836
16123TIP3    H198837   1.195   7.926   4.901
16123TIP3    H298838   1.084   7.839   4.851
16124TIP3   OH298839   1.198   7.882   3.949
16124TIP3    H198840   1.225   7.925   3.866
16124TIP3    H298841   1.257   7.923   4.014
16125TIP3   OH298842   0.924   8.058   4.028
16125TIP3    H198843   1.003   8.113   4.036
16125TIP3    H298844   0.894   8.044   4.120
16126TIP3   OH298845   0.957  -0.053   4.993
16126TIP3    H198846   0.967   0.039   5.024
16126TIP3    H298847   1.043  -0.075   4.953
16127TIP3   OH298848   1.010   7.763   4.122
16127TIP3    H198849   0.976   7.828   4.187
16127TIP3    H298850   1.076   7.817   4.072
16128TIP3   OH298851   0.577   7.873   3.786
16128TIP3    H198852   0.570   7.961   3.827
16128TIP3    H298853   0.665   7.845   3.817
16129TIP3   OH298854   1.596   7.948   5.030
16129TIP3    H198855   1.502   7.971   5.022
16129TIP3    H298856   1.626   7.937   4.940
16130TIP3   OH298857   0.316   7.658   4.479
16130TIP3    H198858   0.290   7.662   4.384
16130TIP3    H298859   0.267   7.580   4.507
16131TIP3   OH298860   0.633   8.053   5.107
16131TIP3    H198861   0.653   7.980   5.045
16131TIP3    H298862   0.644   8.131   5.054
16132TIP3   OH298863   0.678   7.891   4.861
16132TIP3    H198864   0.735   7.930   4.792
16132TIP3    H298865   0.591   7.879   4.817
16133TIP3   OH298866   0.765   7.636   4.897
16133TIP3    H198867   0.742   7.731   4.891
16133TIP3    H298868   0.688   7.597   4.853
16134TIP3   OH298869   1.591   7.928   3.516
16134TIP3    H198870   1.655   7.897   3.583
16134TIP3    H298871   1.505   7.894   3.542
16135TIP3   OH298872   1.560   8.080   4.033
16135TIP3    H198873   1.591   7.988   4.029
16135TIP3    H298874   1.628   8.126   3.980
16136TIP3   OH298875   1.653  -0.028   4.620
16136TIP3    H198876   1.704   0.029   4.560
16136TIP3    H298877   1.589   0.032   4.659
16137TIP3   OH298878   1.621   7.819   4.021
16137TIP3    H198879   1.641   7.774   4.106
16137TIP3    H298880   1.558   7.757   3.978
16138TIP3   OH298881   0.168   7.899   4.473
16138TIP3    H198882   0.215   7.819   4.504
16138TIP3    H298883   0.214   7.968   4.519
16139TIP3   OH298884   1.802   7.823   3.679
16139TIP3    H198885   1.845   7.756   3.625
16139TIP3    H298886   1.872   7.890   3.682
16140TIP3   OH298887   0.051   7.813   3.987
16140TIP3    H198888  -0.043   7.832   3.964
16140TIP3    H298889   0.095   7.877   3.928
16141TIP3   OH298890   8.180   7.706   4.827
16141TIP3    H198891   8.113   7.675   4.889
16141TIP3    H298892   8.124   7.765   4.773
16142TIP3   OH298893   1.708   7.647   4.984
16142TIP3    H198894   1.619   7.671   4.954
16142TIP3    H298895   1.721   7.559   4.943
16143TIP3   OH298896   1.040   7.787   4.421
16143TIP3    H198897   0.977   7.720   4.451
16143TIP3    H298898   1.099   7.735   4.365
16144TIP3   OH298899   1.557   7.591   4.430
16144TIP3    H198900   1.619   7.651   4.380
16144TIP3    H298901   1.469   7.630   4.407
16145TIP3   OH298902   1.724   7.710   4.258
16145TIP3    H198903   1.795   7.658   4.214
16145TIP3    H298904   1.771   7.795   4.270
16146TIP3   OH298905   0.281   7.645   4.206
16146TIP3    H198906   0.199   7.626   4.156
16146TIP3    H298907   0.329   7.560   4.201
16147TIP3   OH298908   0.161   7.623   3.785
16147TIP3    H198909   0.205   7.689   3.727
16147TIP3    H298910   0.098   7.677   3.834
16148TIP3   OH298911   0.730   7.644   4.187
16148TIP3    H198912   0.821   7.677   4.180
16148TIP3    H298913   0.725   7.619   4.279
16149TIP3   OH298914   1.298   7.644   4.349
16149TIP3    H198915   1.295   7.654   4.254
16149TIP3    H298916   1.261   7.553   4.362
16150TIP3   OH298917   1.427   7.650   3.915
16150TIP3    H198918   1.352   7.709   3.899
16150TIP3    H298919   1.385   7.564   3.938
16151TIP3   OH298920   0.339   7.815   3.633
16151TIP3    H198921   0.392   7.757   3.577
16151TIP3    H298922   0.409   7.851   3.692
16152TIP3   OH298923   0.846   7.843   3.872
16152TIP3    H198924   0.870   7.785   3.945
16152TIP3    H298925   0.847   7.929   3.920
16153TIP3   OH298926   0.254   7.663   5.128
16153TIP3    H198927   0.220   7.609   5.199
16153TIP3    H298928   0.339   7.686   5.167
16154TIP3   OH298929   3.667   7.887   4.667
16154TIP3    H198930   3.677   7.952   4.740
16154TIP3    H298931   3.711   7.936   4.597
16155TIP3   OH298932   2.430   7.985   4.346
16155TIP3    H198933   2.437   8.066   4.293
16155TIP3    H298934   2.387   7.927   4.278
16156TIP3   OH298935   3.199   7.993   4.179
16156TIP3    H198936   3.263   7.963   4.248
16156TIP3    H298937   3.261   8.048   4.129
16157TIP3   OH298938   3.708   8.032   4.887
16157TIP3    H198939   3.642   8.098   4.869
16157TIP3    H298940   3.706   8.020   4.984
16158TIP3   OH298941   2.317   7.868   4.745
16158TIP3    H198942   2.288   7.929   4.674
16158TIP3    H298943   2.252   7.896   4.815
16159TIP3   OH298944   3.380   7.922   4.379
16159TIP3    H198945   3.358   7.848   4.435
16159TIP3    H298946   3.442   7.972   4.433
16160TIP3   OH298947   2.282   8.048   4.559
16160TIP3    H198948   2.331   8.129   4.581
16160TIP3    H298949   2.328   8.018   4.478
16161TIP3   OH298950   3.415   7.799   4.752
16161TIP3    H198951   3.339   7.857   4.735
16161TIP3    H298952   3.485   7.838   4.697
16162TIP3   OH298953   2.712   7.607   4.493
16162TIP3    H198954   2.697   7.511   4.488
16162TIP3    H298955   2.625   7.639   4.525
16163TIP3   OH298956   3.544   7.598   3.794
16163TIP3    H198957   3.450   7.613   3.818
16163TIP3    H298958   3.566   7.683   3.752
16164TIP3   OH298959   2.449   7.697   4.567
16164TIP3    H198960   2.358   7.684   4.533
16164TIP3    H298961   2.437   7.780   4.616
16165TIP3   OH298962   2.912   7.667   4.908
16165TIP3    H198963   2.951   7.623   4.985
16165TIP3    H298964   2.815   7.650   4.921
16166TIP3   OH298965   3.228   8.046   4.991
16166TIP3    H198966   3.197   8.031   5.082
16166TIP3    H298967   3.220   8.140   4.975
16167TIP3   OH298968   2.877   7.922   3.641
16167TIP3    H198969   2.847   7.916   3.733
16167TIP3    H298970   2.852   7.834   3.611
16168TIP3   OH298971   1.887   7.932   4.262
16168TIP3    H198972   1.955   7.925   4.333
16168TIP3    H298973   1.933   7.896   4.184
16169TIP3   OH298974   2.006   7.990   3.796
16169TIP3    H198975   2.060   8.056   3.746
16169TIP3    H298976   1.946   8.058   3.830
16170TIP3   OH298977   2.710   7.961   4.282
16170TIP3    H198978   2.617   7.960   4.310
16170TIP3    H298979   2.761   7.946   4.363
16171TIP3   OH298980   2.181   8.056   4.164
16171TIP3    H198981   2.112   8.099   4.113
16171TIP3    H298982   2.230   7.999   4.102
16172TIP3   OH298983   2.558  -0.029   3.918
16172TIP3    H198984   2.648  -0.010   3.952
16172TIP3    H298985   2.536   0.048   3.866
16173TIP3   OH298986   3.153   7.878   4.609
16173TIP3    H198987   3.082   7.893   4.674
16173TIP3    H298988   3.102   7.862   4.528
16174TIP3   OH298989   2.344   7.849   4.116
16174TIP3    H198990   2.311   7.757   4.112
16174TIP3    H298991   2.420   7.845   4.058
16175TIP3   OH298992   2.705   8.064   4.707
16175TIP3    H198993   2.627   8.118   4.720
16175TIP3    H298994   2.756   8.096   4.783
16176TIP3   OH298995   3.147   7.976   3.704
16176TIP3    H198996   3.054   7.990   3.684
16176TIP3    H298997   3.180   8.064   3.727
16177TIP3   OH298998   2.137   7.945   4.945
16177TIP3    H198999   2.047   7.979   4.935
16177TIP3    H299000   2.121   7.860   4.988
16178TIP3   OH299001   3.009   7.928   4.836
16178TIP3    H199002   3.080   7.926   4.901
16178TIP3    H299003   2.969   7.839   4.851
16179TIP3   OH299004   3.083   7.882   3.949
16179TIP3    H199005   3.111   7.925   3.866
16179TIP3    H299006   3.142   7.923   4.014
16180TIP3   OH299007   2.810   8.058   4.027
16180TIP3    H199008   2.889   8.113   4.035
16180TIP3    H299009   2.781   8.044   4.120
16181TIP3   OH299010   2.845  -0.054   4.997
16181TIP3    H199011   2.851   0.040   5.022
16181TIP3    H299012   2.928  -0.074   4.951
16182TIP3   OH299013   2.896   7.762   4.122
16182TIP3    H199014   2.861   7.828   4.186
16182TIP3    H299015   2.962   7.817   4.072
16183TIP3   OH299016   2.463   7.873   3.786
16183TIP3    H199017   2.455   7.961   3.828
16183TIP3    H299018   2.551   7.845   3.817
16184TIP3   OH299019   3.482   7.948   5.030
16184TIP3    H199020   3.387   7.971   5.022
16184TIP3    H299021   3.512   7.937   4.940
16185TIP3   OH299022   2.198   7.661   4.481
16185TIP3    H199023   2.178   7.663   4.385
16185TIP3    H299024   2.156   7.577   4.506
16186TIP3   OH299025   2.516   8.053   5.111
16186TIP3    H199026   2.538   7.981   5.047
16186TIP3    H299027   2.529   8.130   5.053
16187TIP3   OH299028   2.564   7.888   4.860
16187TIP3    H199029   2.620   7.933   4.794
16187TIP3    H299030   2.477   7.881   4.817
16188TIP3   OH299031   2.649   7.636   4.898
16188TIP3    H199032   2.627   7.731   4.891
16188TIP3    H299033   2.572   7.598   4.852
16189TIP3   OH299034   3.477   7.927   3.516
16189TIP3    H199035   3.541   7.897   3.583
16189TIP3    H299036   3.391   7.894   3.542
16190TIP3   OH299037   3.446   8.080   4.033
16190TIP3    H199038   3.477   7.988   4.029
16190TIP3    H299039   3.514   8.126   3.980
16191TIP3   OH299040   3.538  -0.028   4.620
16191TIP3    H199041   3.590   0.029   4.560
16191TIP3    H299042   3.475   0.032   4.659
16192TIP3   OH299043   3.507   7.819   4.021
16192TIP3    H199044   3.526   7.774   4.106
16192TIP3    H299045   3.444   7.757   3.978
16193TIP3   OH299046   2.055   7.901   4.477
16193TIP3    H199047   2.101   7.818   4.502
16193TIP3    H299048   2.109   7.969   4.519
16194TIP3   OH299049   3.688   7.823   3.679
16194TIP3    H199050   3.731   7.756   3.625
16194TIP3    H299051   3.758   7.890   3.682
16195TIP3   OH299052   1.919   7.821   3.985
16195TIP3    H199053   1.826   7.843   3.974
16195TIP3    H299054   1.962   7.875   3.917
16196TIP3   OH299055   1.914   7.698   4.817
16196TIP3    H199056   1.847   7.676   4.886
16196TIP3    H299057   1.865   7.763   4.763
16197TIP3   OH299058   3.594   7.647   4.985
16197TIP3    H199059   3.505   7.671   4.954
16197TIP3    H299060   3.607   7.559   4.944
16198TIP3   OH299061   2.927   7.788   4.421
16198TIP3    H199062   2.863   7.721   4.451
16198TIP3    H299063   2.985   7.735   4.365
16199TIP3   OH299064   3.442   7.592   4.430
16199TIP3    H199065   3.504   7.651   4.380
16199TIP3    H299066   3.355   7.630   4.407
16200TIP3   OH299067   3.609   7.710   4.258
16200TIP3    H199068   3.681   7.658   4.215
16200TIP3    H299069   3.657   7.796   4.270
16201TIP3   OH299070   2.166   7.647   4.206
16201TIP3    H199071   2.086   7.627   4.155
16201TIP3    H299072   2.213   7.561   4.202
16202TIP3   OH299073   2.041   7.625   3.777
16202TIP3    H199074   2.092   7.691   3.726
16202TIP3    H299075   1.987   7.682   3.836
16203TIP3   OH299076   2.615   7.644   4.187
16203TIP3    H199077   2.706   7.676   4.180
16203TIP3    H299078   2.610   7.619   4.279
16204TIP3   OH299079   3.184   7.644   4.349
16204TIP3    H199080   3.180   7.654   4.254
16204TIP3    H299081   3.147   7.553   4.362
16205TIP3   OH299082   3.312   7.650   3.915
16205TIP3    H199083   3.237   7.709   3.899
16205TIP3    H299084   3.271   7.564   3.938
16206TIP3   OH299085   2.225   7.814   3.633
16206TIP3    H199086   2.279   7.757   3.578
16206TIP3    H299087   2.294   7.851   3.692
16207TIP3   OH299088   2.732   7.844   3.871
16207TIP3    H199089   2.756   7.785   3.945
16207TIP3    H299090   2.733   7.930   3.920
16208TIP3   OH299091   2.136   7.669   5.136
16208TIP3    H199092   2.108   7.604   5.201
16208TIP3    H299093   2.227   7.679   5.164
16209TIP3   OH299094   5.553   7.887   4.667
16209TIP3    H199095   5.562   7.952   4.740
16209TIP3    H299096   5.596   7.936   4.597
16210TIP3   OH299097   4.315   7.985   4.346
16210TIP3    H199098   4.323   8.066   4.293
16210TIP3    H299099   4.273   7.927   4.278
16211TIP3   OH299100   5.084   7.993   4.179
16211TIP3    H199101   5.149   7.963   4.248
16211TIP3    H299102   5.146   8.048   4.129
16212TIP3   OH299103   5.594   8.033   4.886
16212TIP3    H199104   5.527   8.099   4.868
16212TIP3    H299105   5.592   8.021   4.983
16213TIP3   OH299106   4.203   7.868   4.745
16213TIP3    H199107   4.173   7.929   4.674
16213TIP3    H299108   4.138   7.896   4.814
16214TIP3   OH299109   5.265   7.922   4.379
16214TIP3    H199110   5.243   7.848   4.435
16214TIP3    H299111   5.328   7.972   4.433
16215TIP3   OH299112   4.167   8.048   4.559
16215TIP3    H199113   4.217   8.129   4.581
16215TIP3    H299114   4.214   8.018   4.478
16216TIP3   OH299115   5.300   7.800   4.753
16216TIP3    H199116   5.225   7.857   4.735
16216TIP3    H299117   5.371   7.838   4.697
16217TIP3   OH299118   4.597   7.607   4.493
16217TIP3    H199119   4.583   7.511   4.488
16217TIP3    H299120   4.510   7.639   4.525
16218TIP3   OH299121   5.430   7.598   3.794
16218TIP3    H199122   5.336   7.613   3.817
16218TIP3    H299123   5.452   7.683   3.752
16219TIP3   OH299124   4.335   7.697   4.567
16219TIP3    H199125   4.243   7.684   4.533
16219TIP3    H299126   4.322   7.780   4.616
16220TIP3   OH299127   4.798   7.667   4.908
16220TIP3    H199128   4.837   7.623   4.986
16220TIP3    H299129   4.700   7.650   4.921
16221TIP3   OH299130   5.114   8.046   4.991
16221TIP3    H199131   5.082   8.031   5.081
16221TIP3    H299132   5.106   8.141   4.975
16222TIP3   OH299133   4.763   7.922   3.641
16222TIP3    H199134   4.732   7.916   3.734
16222TIP3    H299135   4.737   7.834   3.611
16223TIP3   OH299136   3.773   7.932   4.262
16223TIP3    H199137   3.840   7.925   4.333
16223TIP3    H299138   3.819   7.896   4.184
16224TIP3   OH299139   3.891   7.990   3.796
16224TIP3    H199140   3.946   8.056   3.748
16224TIP3    H299141   3.831   8.057   3.831
16225TIP3   OH299142   4.596   7.961   4.282
16225TIP3    H199143   4.502   7.960   4.310
16225TIP3    H299144   4.647   7.946   4.363
16226TIP3   OH299145   4.066   8.056   4.164
16226TIP3    H199146   3.997   8.099   4.113
16226TIP3    H299147   4.115   7.999   4.102
16227TIP3   OH299148   4.444  -0.029   3.919
16227TIP3    H199149   4.533  -0.010   3.952
16227TIP3    H299150   4.421   0.048   3.866
16228TIP3   OH299151   5.039   7.878   4.609
16228TIP3    H199152   4.968   7.893   4.674
16228TIP3    H299153   4.988   7.862   4.528
16229TIP3   OH299154   4.229   7.849   4.116
16229TIP3    H199155   4.196   7.757   4.112
16229TIP3    H299156   4.306   7.845   4.058
16230TIP3   OH299157   4.590   8.064   4.706
16230TIP3    H199158   4.512   8.118   4.720
16230TIP3    H299159   4.642   8.096   4.783
16231TIP3   OH299160   5.033   7.976   3.704
16231TIP3    H199161   4.939   7.990   3.684
16231TIP3    H299162   5.066   8.064   3.727
16232TIP3   OH299163   4.022   7.944   4.942
16232TIP3    H199164   3.932   7.980   4.937
16232TIP3    H299165   4.008   7.861   4.990
16233TIP3   OH299166   4.894   7.928   4.836
16233TIP3    H199167   4.966   7.926   4.901
16233TIP3    H299168   4.855   7.839   4.851
16234TIP3   OH299169   4.969   7.882   3.949
16234TIP3    H199170   4.996   7.925   3.866
16234TIP3    H299171   5.028   7.923   4.014
16235TIP3   OH299172   4.695   8.058   4.027
16235TIP3    H199173   4.774   8.113   4.035
16235TIP3    H299174   4.666   8.044   4.120
16236TIP3   OH299175   4.731  -0.054   4.997
16236TIP3    H199176   4.736   0.040   5.022
16236TIP3    H299177   4.814  -0.074   4.951
16237TIP3   OH299178   4.781   7.762   4.122
16237TIP3    H199179   4.747   7.828   4.186
16237TIP3    H299180   4.847   7.817   4.072
16238TIP3   OH299181   4.348   7.873   3.786
16238TIP3    H199182   4.341   7.961   3.828
16238TIP3    H299183   4.436   7.845   3.817
16239TIP3   OH299184   5.367   7.948   5.030
16239TIP3    H199185   5.273   7.971   5.022
16239TIP3    H299186   5.398   7.938   4.940
16240TIP3   OH299187   4.084   7.661   4.481
16240TIP3    H199188   4.064   7.663   4.385
16240TIP3    H299189   4.041   7.577   4.506
16241TIP3   OH299190   4.406   8.052   5.109
16241TIP3    H199191   4.424   7.981   5.045
16241TIP3    H299192   4.414   8.131   5.053
16242TIP3   OH299193   4.450   7.888   4.860
16242TIP3    H199194   4.506   7.933   4.794
16242TIP3    H299195   4.362   7.881   4.816
16243TIP3   OH299196   4.535   7.636   4.898
16243TIP3    H199197   4.513   7.731   4.891
16243TIP3    H299198   4.458   7.598   4.852
16244TIP3   OH299199   5.362   7.927   3.516
16244TIP3    H199200   5.427   7.897   3.583
16244TIP3    H299201   5.276   7.894   3.542
16245TIP3   OH299202   5.331   8.080   4.033
16245TIP3    H199203   5.363   7.988   4.029
16245TIP3    H299204   5.399   8.126   3.980
16246TIP3   OH299205   5.424  -0.028   4.620
16246TIP3    H199206   5.475   0.029   4.560
16246TIP3    H299207   5.360   0.031   4.659
16247TIP3   OH299208   5.392   7.819   4.021
16247TIP3    H199209   5.412   7.774   4.106
16247TIP3    H299210   5.330   7.757   3.978
16248TIP3   OH299211   3.941   7.901   4.477
16248TIP3    H199212   3.987   7.818   4.502
16248TIP3    H299213   3.994   7.969   4.519
16249TIP3   OH299214   5.573   7.823   3.679
16249TIP3    H199215   5.617   7.756   3.624
16249TIP3    H299216   5.643   7.890   3.682
16250TIP3   OH299217   3.805   7.821   3.985
16250TIP3    H199218   3.711   7.843   3.975
16250TIP3    H299219   3.847   7.875   3.917
16251TIP3   OH299220   3.799   7.698   4.817
16251TIP3    H199221   3.733   7.676   4.886
16251TIP3    H299222   3.751   7.763   4.763
16252TIP3   OH299223   5.479   7.647   4.984
16252TIP3    H199224   5.390   7.671   4.954
16252TIP3    H299225   5.492   7.559   4.943
16253TIP3   OH299226   4.812   7.788   4.421
16253TIP3    H199227   4.748   7.721   4.451
16253TIP3    H299228   4.870   7.735   4.365
16254TIP3   OH299229   5.328   7.591   4.430
16254TIP3    H199230   5.390   7.651   4.380
16254TIP3    H299231   5.241   7.630   4.407
16255TIP3   OH299232   5.495   7.710   4.258
16255TIP3    H199233   5.566   7.658   4.214
16255TIP3    H299234   5.542   7.795   4.270
16256TIP3   OH299235   4.052   7.647   4.206
16256TIP3    H199236   3.971   7.627   4.155
16256TIP3    H299237   4.098   7.561   4.202
16257TIP3   OH299238   3.926   7.625   3.777
16257TIP3    H199239   3.978   7.691   3.726
16257TIP3    H299240   3.872   7.681   3.836
16258TIP3   OH299241   4.500   7.644   4.187
16258TIP3    H199242   4.591   7.676   4.180
16258TIP3    H299243   4.496   7.619   4.279
16259TIP3   OH299244   5.069   7.644   4.349
16259TIP3    H199245   5.066   7.654   4.254
16259TIP3    H299246   5.033   7.553   4.362
16260TIP3   OH299247   5.198   7.650   3.915
16260TIP3    H199248   5.123   7.709   3.899
16260TIP3    H299249   5.156   7.564   3.938
16261TIP3   OH299250   4.111   7.817   3.632
16261TIP3    H199251   4.164   7.756   3.580
16261TIP3    H299252   4.179   7.851   3.694
16262TIP3   OH299253   4.617   7.844   3.871
16262TIP3    H199254   4.641   7.785   3.945
16262TIP3    H299255   4.618   7.929   3.920
16263TIP3   OH299256   4.021   7.665   5.132
16263TIP3    H199257   3.993   7.606   5.203
16263TIP3    H299258   4.110   7.683   5.164
16264TIP3   OH299259   7.438   7.887   4.667
16264TIP3    H199260   7.447   7.952   4.740
16264TIP3    H299261   7.482   7.936   4.597
16265TIP3   OH299262   6.201   7.985   4.346
16265TIP3    H199263   6.209   8.066   4.293
16265TIP3    H299264   6.159   7.927   4.278
16266TIP3   OH299265   6.970   7.993   4.179
16266TIP3    H199266   7.035   7.963   4.248
16266TIP3    H299267   7.032   8.048   4.129
16267TIP3   OH299268   7.480   8.033   4.886
16267TIP3    H199269   7.414   8.099   4.867
16267TIP3    H299270   7.477   8.022   4.983
16268TIP3   OH299271   6.089   7.868   4.745
16268TIP3    H199272   6.059   7.929   4.674
16268TIP3    H299273   6.023   7.896   4.814
16269TIP3   OH299274   7.151   7.922   4.379
16269TIP3    H199275   7.129   7.848   4.435
16269TIP3    H299276   7.214   7.972   4.433
16270TIP3   OH299277   6.053   8.048   4.559
16270TIP3    H199278   6.103   8.129   4.581
16270TIP3    H299279   6.099   8.018   4.478
16271TIP3   OH299280   7.186   7.800   4.753
16271TIP3    H199281   7.111   7.857   4.735
16271TIP3    H299282   7.258   7.838   4.698
16272TIP3   OH299283   6.483   7.607   4.493
16272TIP3    H199284   6.469   7.511   4.488
16272TIP3    H299285   6.396   7.639   4.525
16273TIP3   OH299286   7.315   7.598   3.794
16273TIP3    H199287   7.221   7.613   3.817
16273TIP3    H299288   7.338   7.683   3.752
16274TIP3   OH299289   6.220   7.697   4.567
16274TIP3    H199290   6.129   7.684   4.533
16274TIP3    H299291   6.208   7.780   4.616
16275TIP3   OH299292   6.683   7.667   4.908
16275TIP3    H199293   6.722   7.623   4.986
16275TIP3    H299294   6.586   7.651   4.921
16276TIP3   OH299295   6.999   8.046   4.991
16276TIP3    H199296   6.968   8.031   5.081
16276TIP3    H299297   6.991   8.141   4.975
16277TIP3   OH299298   6.649   7.922   3.642
16277TIP3    H199299   6.618   7.916   3.734
16277TIP3    H299300   6.623   7.835   3.610
16278TIP3   OH299301   5.659   7.932   4.262
16278TIP3    H199302   5.726   7.925   4.333
16278TIP3    H299303   5.704   7.896   4.184
16279TIP3   OH299304   5.777   7.990   3.795
16279TIP3    H199305   5.831   8.056   3.746
16279TIP3    H299306   5.717   8.057   3.830
16280TIP3   OH299307   6.482   7.961   4.282
16280TIP3    H199308   6.388   7.960   4.310
16280TIP3    H299309   6.532   7.946   4.363
16281TIP3   OH299310   5.952   8.056   4.164
16281TIP3    H199311   5.883   8.099   4.113
16281TIP3    H299312   6.001   7.999   4.102
16282TIP3   OH299313   6.329  -0.029   3.918
16282TIP3    H199314   6.419  -0.010   3.952
16282TIP3    H299315   6.307   0.048   3.866
16283TIP3   OH299316   6.925   7.878   4.609
16283TIP3    H199317   6.854   7.893   4.674
16283TIP3    H299318   6.874   7.862   4.528
16284TIP3   OH299319   6.115   7.849   4.116
16284TIP3    H199320   6.082   7.757   4.112
16284TIP3    H299321   6.191   7.845   4.058
16285TIP3   OH299322   6.476   8.064   4.706
16285TIP3    H199323   6.398   8.118   4.720
16285TIP3    H299324   6.527   8.096   4.783
16286TIP3   OH299325   6.919   7.976   3.704
16286TIP3    H199326   6.825   7.990   3.684
16286TIP3    H299327   6.951   8.064   3.727
16287TIP3   OH299328   5.907   7.944   4.942
16287TIP3    H199329   5.818   7.980   4.937
16287TIP3    H299330   5.893   7.861   4.990
16288TIP3   OH299331   6.780   7.928   4.836
16288TIP3    H199332   6.851   7.926   4.901
16288TIP3    H299333   6.740   7.839   4.851
16289TIP3   OH299334   6.854   7.882   3.949
16289TIP3    H199335   6.882   7.925   3.866
16289TIP3    H299336   6.914   7.923   4.014
16290TIP3   OH299337   6.581   8.058   4.027
16290TIP3    H199338   6.660   8.113   4.035
16290TIP3    H299339   6.552   8.044   4.120
16291TIP3   OH299340   6.617  -0.054   4.997
16291TIP3    H199341   6.622   0.040   5.022
16291TIP3    H299342   6.700  -0.074   4.951
16292TIP3   OH299343   6.667   7.762   4.122
16292TIP3    H199344   6.632   7.828   4.186
16292TIP3    H299345   6.733   7.817   4.072
16293TIP3   OH299346   6.234   7.873   3.786
16293TIP3    H199347   6.226   7.961   3.828
16293TIP3    H299348   6.322   7.845   3.817
16294TIP3   OH299349   7.252   7.947   5.030
16294TIP3    H199350   7.158   7.971   5.022
16294TIP3    H299351   7.283   7.938   4.940
16295TIP3   OH299352   5.970   7.661   4.481
16295TIP3    H199353   5.949   7.663   4.385
16295TIP3    H299354   5.927   7.577   4.506
16296TIP3   OH299355   6.291   8.052   5.109
16296TIP3    H199356   6.309   7.981   5.045
16296TIP3    H299357   6.299   8.131   5.053
16297TIP3   OH299358   6.336   7.888   4.860
16297TIP3    H199359   6.391   7.933   4.794
16297TIP3    H299360   6.248   7.881   4.816
16298TIP3   OH299361   6.420   7.636   4.898
16298TIP3    H199362   6.399   7.731   4.891
16298TIP3    H299363   6.344   7.598   4.852
16299TIP3   OH299364   7.248   7.928   3.516
16299TIP3    H199365   7.312   7.897   3.583
16299TIP3    H299366   7.162   7.894   3.541
16300TIP3   OH299367   7.217   8.081   4.033
16300TIP3    H199368   7.248   7.988   4.029
16300TIP3    H299369   7.285   8.126   3.980
16301TIP3   OH299370   7.309  -0.028   4.620
16301TIP3    H199371   7.361   0.029   4.561
16301TIP3    H299372   7.245   0.031   4.659
16302TIP3   OH299373   7.277   7.819   4.021
16302TIP3    H199374   7.297   7.774   4.106
16302TIP3    H299375   7.215   7.757   3.978
16303TIP3   OH299376   5.826   7.901   4.477
16303TIP3    H199377   5.873   7.818   4.502
16303TIP3    H299378   5.880   7.969   4.519
16304TIP3   OH299379   7.459   7.823   3.680
16304TIP3    H199380   7.502   7.756   3.625
16304TIP3    H299381   7.529   7.890   3.681
16305TIP3   OH299382   5.691   7.821   3.985
16305TIP3    H199383   5.597   7.843   3.974
16305TIP3    H299384   5.733   7.875   3.917
16306TIP3   OH299385   5.685   7.698   4.817
16306TIP3    H199386   5.618   7.676   4.886
16306TIP3    H299387   5.636   7.763   4.763
16307TIP3   OH299388   7.365   7.647   4.984
16307TIP3    H199389   7.276   7.671   4.954
16307TIP3    H299390   7.378   7.559   4.943
16308TIP3   OH299391   6.698   7.788   4.421
16308TIP3    H199392   6.634   7.721   4.451
16308TIP3    H299393   6.756   7.735   4.365
16309TIP3   OH299394   7.213   7.591   4.430
16309TIP3    H199395   7.275   7.650   4.380
16309TIP3    H299396   7.126   7.630   4.407
16310TIP3   OH299397   7.381   7.710   4.257
16310TIP3    H199398   7.452   7.657   4.214
16310TIP3    H299399   7.428   7.796   4.270
16311TIP3   OH299400   5.937   7.647   4.206
16311TIP3    H199401   5.857   7.627   4.155
16311TIP3    H299402   5.984   7.561   4.202
16312TIP3   OH299403   5.812   7.625   3.777
16312TIP3    H199404   5.863   7.691   3.726
16312TIP3    H299405   5.758   7.682   3.836
16313TIP3   OH299406   6.386   7.644   4.187
16313TIP3    H199407   6.477   7.676   4.180
16313TIP3    H299408   6.381   7.619   4.279
16314TIP3   OH299409   6.955   7.644   4.349
16314TIP3    H199410   6.952   7.654   4.253
16314TIP3    H299411   6.918   7.553   4.362
16315TIP3   OH299412   5.996   7.814   3.633
16315TIP3    H199413   6.050   7.757   3.578
16315TIP3    H299414   6.065   7.851   3.692
16316TIP3   OH299415   6.503   7.844   3.871
16316TIP3    H199416   6.527   7.785   3.945
16316TIP3    H299417   6.504   7.929   3.920
16317TIP3   OH299418   5.907   7.665   5.132
16317TIP3    H199419   5.879   7.606   5.203
16317TIP3    H299420   5.996   7.683   5.165
16318TIP3   OH299421   8.033   8.010   4.358
16318TIP3    H199422   8.097   8.064   4.310
16318TIP3    H299423   8.039   7.934   4.300
16319TIP3   OH299424   7.967   7.862   4.744
16319TIP3    H199425   7.945   7.931   4.678
16319TIP3    H299426   7.912   7.898   4.817
16320TIP3   OH299427   7.923   8.058   4.576
16320TIP3    H199428   7.989   8.126   4.593
16320TIP3    H299429   7.970   8.019   4.496
16321TIP3   OH299430   8.102   7.695   4.566
16321TIP3    H199431   8.011   7.686   4.529
16321TIP3    H299432   8.095   7.781   4.610
16322TIP3   OH299433   7.544   7.932   4.263
16322TIP3    H199434   7.611   7.924   4.333
16322TIP3    H299435   7.589   7.895   4.184
16323TIP3   OH299436   7.665   7.991   3.797
16323TIP3    H199437   7.717   8.057   3.746
16323TIP3    H299438   7.603   8.057   3.830
16324TIP3   OH299439   7.843   8.064   4.157
16324TIP3    H199440   7.765   8.094   4.110
16324TIP3    H299441   7.883   7.992   4.106
16325TIP3   OH299442   7.976   7.847   4.104
16325TIP3    H199443   7.958   7.753   4.119
16325TIP3    H299444   8.072   7.847   4.088
16326TIP3   OH299445   7.790   7.945   4.939
16326TIP3    H199446   7.701   7.981   4.937
16326TIP3    H299447   7.781   7.863   4.990
16327TIP3   OH299448  -0.052   7.864   3.769
16327TIP3    H199449  -0.047   7.951   3.811
16327TIP3    H299450   0.042   7.842   3.786
16328TIP3   OH299451   7.855   7.660   4.479
16328TIP3    H199452   7.834   7.665   4.384
16328TIP3    H299453   7.813   7.577   4.508
16329TIP3   OH299454   7.712   7.898   4.478
16329TIP3    H199455   7.762   7.817   4.500
16329TIP3    H299456   7.767   7.967   4.519
16330TIP3   OH299457   7.577   7.821   3.986
16330TIP3    H199458   7.483   7.843   3.974
16330TIP3    H299459   7.620   7.875   3.917
16331TIP3   OH299460   7.572   7.698   4.817
16331TIP3    H199461   7.505   7.676   4.886
16331TIP3    H299462   7.523   7.763   4.764
16332TIP3   OH299463   7.822   7.647   4.206
16332TIP3    H199464   7.741   7.626   4.155
16332TIP3    H299465   7.869   7.562   4.205
16333TIP3   OH299466   7.694   7.625   3.777
16333TIP3    H199467   7.749   7.690   3.728
16333TIP3    H299468   7.642   7.683   3.836
16334TIP3   OH299469   7.881   7.814   3.633
16334TIP3    H199470   7.934   7.762   3.572
16334TIP3    H299471   7.952   7.848   3.692
16335TIP3   OH299472   7.795   7.662   5.128
16335TIP3    H199473   7.766   7.607   5.200
16335TIP3    H299474   7.881   7.687   5.164
16336TIP3   OH299475   1.189   1.019   6.166
16336TIP3    H199476   1.189   1.117   6.162
16336TIP3    H299477   1.118   0.996   6.104
16337TIP3   OH299478   1.073   0.947   6.517
16337TIP3    H199479   1.077   0.882   6.588
16337TIP3    H299480   1.045   0.895   6.440
16338TIP3   OH299481   0.315   0.906   6.665
16338TIP3    H199482   0.317   0.844   6.741
16338TIP3    H299483   0.379   0.972   6.695
16339TIP3   OH299484   1.444   1.240   6.344
16339TIP3    H199485   1.402   1.168   6.393
16339TIP3    H299486   1.446   1.311   6.411
16340TIP3   OH299487   0.402   1.357   6.520
16340TIP3    H199488   0.371   1.269   6.490
16340TIP3    H299489   0.497   1.338   6.526
16341TIP3   OH299490   0.098   0.743   6.014
16341TIP3    H199491   0.041   0.806   6.062
16341TIP3    H299492   0.032   0.678   5.992
16342TIP3   OH299493   0.153   0.930   6.290
16342TIP3    H199494   0.172   0.845   6.334
16342TIP3    H299495   0.218   0.939   6.219
16343TIP3   OH299496   1.156   1.756   6.368
16343TIP3    H199497   1.221   1.686   6.340
16343TIP3    H299498   1.135   1.723   6.456
16344TIP3   OH299499   0.912   1.183   6.563
16344TIP3    H199500   0.948   1.123   6.496
16344TIP3    H299501   0.992   1.200   6.615
16345TIP3   OH299502   1.777   0.345   6.638
16345TIP3    H199503   1.789   0.409   6.711
16345TIP3    H299504   1.827   0.391   6.568
16346TIP3   OH299505   1.229   0.633   6.594
16346TIP3    H199506   1.248   0.537   6.595
16346TIP3    H299507   1.221   0.647   6.498
16347TIP3   OH299508   0.546   0.442   6.315
16347TIP3    H199509   0.547   0.524   6.263
16347TIP3    H299510   0.502   0.382   6.251
16348TIP3   OH299511   1.315   0.449   6.153
16348TIP3    H199512   1.380   0.417   6.219
16348TIP3    H299513   1.371   0.506   6.099
16349TIP3   OH299514   0.225   0.686   6.385
16349TIP3    H199515   0.277   0.620   6.433
16349TIP3    H299516   0.215   0.646   6.297
16350TIP3   OH299517   0.712   0.839   6.322
16350TIP3    H199518   0.792   0.798   6.353
16350TIP3    H299519   0.665   0.774   6.265
16351TIP3   OH299520   1.822   0.495   6.865
16351TIP3    H199521   1.748   0.560   6.851
16351TIP3    H299522   1.809   0.468   6.958
16352TIP3   OH299523   0.435   0.335   6.719
16352TIP3    H199524   0.399   0.386   6.644
16352TIP3    H299525   0.364   0.352   6.786
16353TIP3   OH299526   1.161   1.279   6.075
16353TIP3    H199527   1.134   1.251   5.986
16353TIP3    H299528   1.130   1.372   6.080
16354TIP3   OH299529   0.684   1.094   6.742
16354TIP3    H199530   0.613   1.157   6.765
16354TIP3    H299531   0.754   1.155   6.717
16355TIP3   OH299532   1.496   0.383   6.353
16355TIP3    H199533   1.472   0.306   6.405
16355TIP3    H299534   1.562   0.427   6.409
16356TIP3   OH299535   0.387   0.516   6.521
16356TIP3    H199536   0.449   0.584   6.556
16356TIP3    H299537   0.439   0.472   6.450
16357TIP3   OH299538   0.525   1.294   6.825
16357TIP3    H199539   0.523   1.386   6.792
16357TIP3    H299540   0.437   1.287   6.869
16358TIP3   OH299541   0.134   1.259   5.906
16358TIP3    H199542   0.113   1.286   5.815
16358TIP3    H299543   0.142   1.342   5.955
16359TIP3   OH299544   1.497   1.424   6.581
16359TIP3    H199545   1.400   1.434   6.593
16359TIP3    H299546   1.524   1.515   6.561
16360TIP3   OH299547   1.530   0.250   6.723
16360TIP3    H199548   1.458   0.314   6.712
16360TIP3    H299549   1.600   0.293   6.669
16361TIP3   OH299550   0.824   0.069   6.445
16361TIP3    H199551   0.823  -0.026   6.463
16361TIP3    H299552   0.744   0.095   6.495
16362TIP3   OH299553   1.323   1.602   6.240
16362TIP3    H199554   1.366   1.530   6.189
16362TIP3    H299555   1.365   1.681   6.201
16363TIP3   OH299556   1.446   1.394   6.090
16363TIP3    H199557   1.413   1.324   6.032
16363TIP3    H299558   1.448   1.346   6.175
16364TIP3   OH299559   1.606   1.254   6.942
16364TIP3    H199560   1.620   1.189   6.870
16364TIP3    H299561   1.626   1.339   6.897
16365TIP3   OH299562   1.055   0.942   5.917
16365TIP3    H199563   0.986   1.000   5.881
16365TIP3    H299564   1.126   0.952   5.851
16366TIP3   OH299565   1.063   0.797   5.623
16366TIP3    H199566   1.135   0.797   5.689
16366TIP3    H299567   1.091   0.728   5.564
16367TIP3   OH299568   1.797   0.884   6.748
16367TIP3    H199569   1.730   0.956   6.750
16367TIP3    H299570   1.843   0.909   6.665
16368TIP3   OH299571   1.400   0.968   6.011
16368TIP3    H199572   1.324   0.988   6.071
16368TIP3    H299573   1.448   0.898   6.060
16369TIP3   OH299574   1.395   0.780   6.921
16369TIP3    H199575   1.395   0.861   6.976
16369TIP3    H299576   1.330   0.811   6.854
16370TIP3   OH299577   0.561   1.031   6.202
16370TIP3    H199578   0.526   0.993   6.118
16370TIP3    H299579   0.622   0.962   6.234
16371TIP3   OH299580   0.692   1.368   6.470
16371TIP3    H199581   0.692   1.316   6.389
16371TIP3    H299582   0.771   1.333   6.515
16372TIP3   OH299583   0.600   0.899   6.568
16372TIP3    H199584   0.648   0.921   6.487
16372TIP3    H299585   0.627   0.972   6.629
16373TIP3   OH299586   1.235   1.462   6.638
16373TIP3    H199587   1.207   1.525   6.705
16373TIP3    H299588   1.210   1.376   6.681
16374TIP3   OH299589   0.689   1.348   7.037
16374TIP3    H199590   0.649   1.422   7.086
16374TIP3    H299591   0.621   1.328   6.969
16375TIP3   OH299592   1.288   0.883   5.778
16375TIP3    H199593   1.343   0.901   5.858
16375TIP3    H299594   1.329   0.935   5.706
16376TIP3   OH299595   0.383   0.965   6.954
16376TIP3    H199596   0.388   1.033   7.024
16376TIP3    H299597   0.290   0.975   6.929
16377TIP3   OH299598   1.059   1.556   6.123
16377TIP3    H199599   1.102   1.587   6.204
16377TIP3    H299600   1.003   1.631   6.100
16378TIP3   OH299601   0.511   1.549   7.111
16378TIP3    H199602   0.506   1.539   7.014
16378TIP3    H299603   0.418   1.539   7.137
16379TIP3   OH299604   1.659   0.057   5.770
16379TIP3    H199605   1.565   0.070   5.794
16379TIP3    H299606   1.681   0.140   5.722
16380TIP3   OH299607   0.459   0.933   5.965
16380TIP3    H199608   0.430   1.011   5.913
16380TIP3    H299609   0.392   0.867   5.941
16381TIP3   OH299610   1.768   1.489   5.609
16381TIP3    H199611   1.782   1.586   5.614
16381TIP3    H299612   1.861   1.464   5.593
16382TIP3   OH299613   0.110   1.151   6.832
16382TIP3    H199614   0.032   1.172   6.776
16382TIP3    H299615   0.073   1.073   6.876
16383TIP3   OH299616   0.048   1.455   6.524
16383TIP3    H199617   0.141   1.431   6.532
16383TIP3    H299618   0.036   1.528   6.586
16384TIP3   OH299619   1.866   1.519   7.094
16384TIP3    H199620   1.856   1.423   7.097
16384TIP3    H299621   1.781   1.544   7.138
16385TIP3   OH299622   0.963   1.473   6.984
16385TIP3    H199623   0.970   1.557   7.036
16385TIP3    H299624   0.877   1.438   7.012
16386TIP3   OH299625   1.006   1.848   5.965
16386TIP3    H199626   0.997   1.840   5.868
16386TIP3    H299627   1.009   1.944   5.980
16387TIP3   OH299628   0.370   1.734   6.146
16387TIP3    H199629   0.384   1.694   6.234
16387TIP3    H299630   0.285   1.695   6.122
16388TIP3   OH299631   1.308   1.768   5.661
16388TIP3    H199632   1.358   1.694   5.620
16388TIP3    H299633   1.316   1.743   5.755
16389TIP3   OH299634   1.281   1.763   5.941
16389TIP3    H199635   1.185   1.769   5.960
16389TIP3    H299636   1.306   1.688   5.998
16390TIP3   OH299637   1.588   0.665   7.143
16390TIP3    H199638   1.534   0.713   7.079
16390TIP3    H299639   1.577   0.573   7.115
16391TIP3   OH299640   0.290   1.313   6.949
16391TIP3    H199641   0.313   1.270   7.035
16391TIP3    H299642   0.207   1.265   6.923
16392TIP3   OH299643   0.564   0.154   6.543
16392TIP3    H199644   0.473   0.148   6.505
16392TIP3    H299645   0.552   0.236   6.593
16393TIP3   OH299646   1.032   0.171   6.889
16393TIP3    H199647   1.080   0.102   6.936
16393TIP3    H299648   0.945   0.129   6.875
16394TIP3   OH299649   1.354   0.501   6.965
16394TIP3    H199650   1.301   0.485   7.047
16394TIP3    H299651   1.342   0.595   6.946
16395TIP3   OH299652   1.431   0.996   5.546
16395TIP3    H199653   1.432   0.963   5.454
16395TIP3    H299654   1.522   1.019   5.562
16396TIP3   OH299655   0.994   0.374   5.616
16396TIP3    H199656   0.959   0.373   5.706
16396TIP3    H299657   0.962   0.289   5.585
16397TIP3   OH299658   0.573   0.651   6.662
16397TIP3    H199659   0.501   0.648   6.730
16397TIP3    H299660   0.566   0.745   6.633
16398TIP3   OH299661   0.573   0.663   6.156
16398TIP3    H199662   0.477   0.641   6.140
16398TIP3    H299663   0.607   0.635   6.068
16399TIP3   OH299664   1.120   0.714   6.031
16399TIP3    H199665   1.082   0.797   5.994
16399TIP3    H299666   1.189   0.697   5.965
16400TIP3   OH299667   1.030   0.736   7.179
16400TIP3    H199668   0.977   0.657   7.204
16400TIP3    H299669   1.114   0.721   7.226
16401TIP3   OH299670   1.222   0.661   6.314
16401TIP3    H199671   1.201   0.719   6.239
16401TIP3    H299672   1.238   0.577   6.267
16402TIP3   OH299673   0.336   0.678   6.838
16402TIP3    H199674   0.340   0.721   6.925
16402TIP3    H299675   0.290   0.595   6.857
16403TIP3   OH299676   0.676   0.411   5.517
16403TIP3    H199677   0.631   0.373   5.595
16403TIP3    H299678   0.606   0.458   5.469
16404TIP3   OH299679   0.078   0.402   6.182
16404TIP3    H199680   0.073   0.380   6.279
16404TIP3    H299681   0.076   0.315   6.140
16405TIP3   OH299682   0.146   0.476   5.786
16405TIP3    H199683   0.185   0.527   5.711
16405TIP3    H299684   0.067   0.530   5.799
16406TIP3   OH299685   1.142   0.820   6.769
16406TIP3    H199686   1.183   0.753   6.712
16406TIP3    H299687   1.100   0.768   6.840
16407TIP3   OH299688   0.824   0.435   6.263
16407TIP3    H199689   0.730   0.411   6.281
16407TIP3    H299690   0.875   0.392   6.334
16408TIP3   OH299691   0.312   0.575   6.138
16408TIP3    H199692   0.223   0.589   6.103
16408TIP3    H299693   0.334   0.488   6.100
16409TIP3   OH299694   0.670   0.579   5.907
16409TIP3    H199695   0.767   0.589   5.917
16409TIP3    H299696   0.645   0.644   5.838
16410TIP3   OH299697   1.266   0.338   6.578
16410TIP3    H199698   1.198   0.345   6.648
16410TIP3    H299699   1.216   0.314   6.499
16411TIP3   OH299700   0.544   0.697   5.666
16411TIP3    H199701   0.487   0.662   5.595
16411TIP3    H299702   0.623   0.719   5.615
16412TIP3   OH299703   1.586   1.909   7.213
16412TIP3    H199704   1.614   1.944   7.126
16412TIP3    H299705   1.661   1.935   7.269
16413TIP3   OH299706   0.367   1.151   7.163
16413TIP3    H199707   0.431   1.179   7.230
16413TIP3    H299708   0.285   1.162   7.217
16414TIP3   OH299709   0.975   0.696   6.453
16414TIP3    H199710   1.027   0.640   6.392
16414TIP3    H299711   0.962   0.641   6.531
16415TIP3   OH299712   0.456   0.310   6.088
16415TIP3    H199713   0.424   0.219   6.087
16415TIP3    H299714   0.533   0.302   6.030
16416TIP3   OH299715   0.819   0.533   6.678
16416TIP3    H199716   0.733   0.576   6.701
16416TIP3    H299717   0.873   0.558   6.756
16417TIP3   OH299718   0.877   1.150   5.853
16417TIP3    H199719   0.797   1.102   5.822
16417TIP3    H299720   0.855   1.161   5.948
16418TIP3   OH299721   1.595   1.069   6.735
16418TIP3    H199722   1.651   1.118   6.672
16418TIP3    H299723   1.509   1.074   6.688
16419TIP3   OH299724   1.261   0.430   5.673
16419TIP3    H199725   1.166   0.445   5.655
16419TIP3    H299726   1.293   0.517   5.703
16420TIP3   OH299727   1.024   1.176   6.976
16420TIP3    H199728   0.991   1.134   7.056
16420TIP3    H299729   1.001   1.269   6.989
16421TIP3   OH299730   1.333   0.623   5.839
16421TIP3    H199731   1.422   0.609   5.877
16421TIP3    H299732   1.342   0.704   5.787
16422TIP3   OH299733   0.386   1.090   6.436
16422TIP3    H199734   0.453   1.082   6.366
16422TIP3    H299735   0.393   1.003   6.480
16423TIP3   OH299736   1.087   1.296   5.760
16423TIP3    H199737   1.051   1.381   5.795
16423TIP3    H299738   1.012   1.235   5.781
16424TIP3   OH299739   0.085   0.925   6.962
16424TIP3    H199740   0.107   0.883   7.046
16424TIP3    H299741   0.022   0.866   6.919
16425TIP3   OH299742   0.788   0.887   7.179
16425TIP3    H199743   0.756   0.855   7.093
16425TIP3    H299744   0.879   0.853   7.180
16426TIP3   OH299745   1.256   1.418   6.974
16426TIP3    H199746   1.163   1.437   6.950
16426TIP3    H299747   1.253   1.447   7.067
16427TIP3   OH299748   1.822   0.637   5.814
16427TIP3    H199749   1.766   0.607   5.740
16427TIP3    H299750   1.830   0.731   5.786
16428TIP3   OH299751   1.821   1.223   7.094
16428TIP3    H199752   1.732   1.244   7.057
16428TIP3    H299753   1.877   1.220   7.014
16429TIP3   OH299754   1.649   1.519   5.852
16429TIP3    H199755   1.616   1.437   5.889
16429TIP3    H299756   1.684   1.501   5.763
16430TIP3   OH299757   1.372   1.001   6.563
16430TIP3    H199758   1.278   0.980   6.552
16430TIP3    H299759   1.415   0.925   6.520
16431TIP3   OH299760   0.625   1.434   6.173
16431TIP3    H199761   0.675   1.515   6.152
16431TIP3    H299762   0.537   1.458   6.141
16432TIP3   OH299763   0.193   0.913   5.633
16432TIP3    H199764   0.259   0.979   5.664
16432TIP3    H299765   0.111   0.954   5.662
16433TIP3   OH299766   0.765   1.201   6.124
16433TIP3    H199767   0.736   1.294   6.134
16433TIP3    H299768   0.691   1.154   6.167
16434TIP3   OH299769   0.810   1.619   6.766
16434TIP3    H199770   0.857   1.700   6.737
16434TIP3    H299771   0.873   1.585   6.832
16435TIP3   OH299772   0.634   1.700   6.079
16435TIP3    H199773   0.537   1.714   6.091
16435TIP3    H299774   0.670   1.784   6.112
16436TIP3   OH299775   1.165   1.220   6.728
16436TIP3    H199776   1.131   1.200   6.818
16436TIP3    H299777   1.228   1.148   6.711
16437TIP3   OH299778   1.389   1.322   5.642
16437TIP3    H199779   1.414   1.282   5.728
16437TIP3    H299780   1.292   1.311   5.648
16438TIP3   OH299781   1.445   1.677   6.977
16438TIP3    H199782   1.376   1.628   6.928
16438TIP3    H299783   1.464   1.747   6.911
16439TIP3   OH299784   1.843   1.765   5.658
16439TIP3    H199785   1.915   1.827   5.641
16439TIP3    H299786   1.773   1.825   5.691
16440TIP3   OH299787   0.249   0.399   6.914
16440TIP3    H199788   0.159   0.436   6.917
16440TIP3    H299789   0.238   0.314   6.959
16441TIP3   OH299790   1.479   1.185   5.854
16441TIP3    H199791   1.450   1.112   5.914
16441TIP3    H299792   1.570   1.195   5.886
16442TIP3   OH299793   0.212   1.580   6.760
16442TIP3    H199794   0.244   1.487   6.759
16442TIP3    H299795   0.242   1.610   6.846
16443TIP3   OH299796   0.810   1.430   5.484
16443TIP3    H199797   0.824   1.354   5.427
16443TIP3    H299798   0.766   1.393   5.563
16444TIP3   OH299799   0.688   1.386   5.730
16444TIP3    H199800   0.713   1.335   5.808
16444TIP3    H299801   0.693   1.480   5.761
16445TIP3   OH299802   0.337   1.112   5.776
16445TIP3    H199803   0.270   1.151   5.836
16445TIP3    H299804   0.392   1.189   5.753
16446TIP3   OH299805   1.128   0.390   6.807
16446TIP3    H199806   1.196   0.389   6.876
16446TIP3    H299807   1.088   0.301   6.824
16447TIP3   OH299808   1.201   0.335   5.922
16447TIP3    H199809   1.222   0.385   5.840
16447TIP3    H299810   1.257   0.381   5.987
16448TIP3   OH299811   0.968   1.553   5.799
16448TIP3    H199812   0.886   1.605   5.809
16448TIP3    H299813   1.020   1.607   5.738
16449TIP3   OH299814   0.921   0.512   6.003
16449TIP3    H199815   1.001   0.568   6.004
16449TIP3    H299816   0.898   0.500   6.097
16450TIP3   OH299817   0.976   0.612   6.918
16450TIP3    H199818   0.984   0.669   6.998
16450TIP3    H299819   1.042   0.542   6.933
16451TIP3   OH299820   1.009   0.218   6.095
16451TIP3    H199821   0.977   0.284   6.157
16451TIP3    H299822   1.076   0.272   6.046
16452TIP3   OH299823   0.705   1.657   5.806
16452TIP3    H199824   0.720   1.738   5.753
16452TIP3    H299825   0.680   1.693   5.893
16453TIP3   OH299826   0.571   0.329   5.762
16453TIP3    H199827   0.568   0.419   5.798
16453TIP3    H299828   0.662   0.305   5.789
16454TIP3   OH299829   1.597   0.403   7.004
16454TIP3    H199830   1.502   0.431   6.995
16454TIP3    H299831   1.622   0.398   6.911
16455TIP3   OH299832   1.457   0.780   6.407
16455TIP3    H199833   1.374   0.736   6.379
16455TIP3    H299834   1.504   0.711   6.459
16456TIP3   OH299835   0.399   1.372   5.667
16456TIP3    H199836   0.462   1.438   5.697
16456TIP3    H299837   0.449   1.326   5.597
16457TIP3   OH299838   0.229   0.639   5.583
16457TIP3    H199839   0.233   0.736   5.596
16457TIP3    H299840   0.145   0.618   5.544
16458TIP3   OH299841   1.563   1.706   6.574
16458TIP3    H199842   1.554   1.774   6.505
16458TIP3    H299843   1.659   1.712   6.592
16459TIP3   OH299844   0.310   0.130   6.450
16459TIP3    H199845   0.286   0.129   6.355
16459TIP3    H299846   0.270   0.045   6.478
16460TIP3   OH299847   0.210   1.510   6.070
16460TIP3    H199848   0.123   1.553   6.066
16460TIP3    H299849   0.255   1.558   6.000
16461TIP3   OH299850   0.131   1.777   7.203
16461TIP3    H199851   0.194   1.748   7.270
16461TIP3    H299852   0.086   1.694   7.178
16462TIP3   OH299853   0.590   1.663   7.360
16462TIP3    H199854   0.673   1.619   7.386
16462TIP3    H299855   0.590   1.641   7.264
16463TIP3   OH299856   1.006   1.618   5.497
16463TIP3    H199857   0.936   1.553   5.519
16463TIP3    H299858   1.080   1.561   5.475
16464TIP3   OH299859   1.249   1.505   7.234
16464TIP3    H199860   1.216   1.417   7.260
16464TIP3    H299861   1.326   1.518   7.293
16465TIP3   OH299862   1.465   1.595   5.517
16465TIP3    H199863   1.493   1.518   5.568
16465TIP3    H299864   1.543   1.616   5.465
16466TIP3   OH299865   0.142   1.152   7.276
16466TIP3    H199866   0.146   1.055   7.258
16466TIP3    H299867   0.064   1.182   7.224
16467TIP3   OH299868   0.556   1.186   5.503
16467TIP3    H199869   0.569   1.110   5.561
16467TIP3    H299870   0.623   1.173   5.436
16468TIP3   OH299871   0.790   1.151   7.238
16468TIP3    H199872   0.758   1.183   7.151
16468TIP3    H299873   0.799   1.053   7.223
16469TIP3   OH299874   1.097   1.293   5.479
16469TIP3    H199875   1.067   1.309   5.571
16469TIP3    H299876   1.073   1.201   5.466
16470TIP3   OH299877   1.360   1.138   6.974
16470TIP3    H199878   1.439   1.197   6.968
16470TIP3    H299879   1.290   1.205   6.978
16471TIP3   OH299880   0.205   0.874   7.234
16471TIP3    H199881   0.254   0.791   7.225
16471TIP3    H299882   0.191   0.877   7.329
16472TIP3   OH299883   0.676   0.990   5.742
16472TIP3    H199884   0.624   0.936   5.804
16472TIP3    H299885   0.705   0.921   5.676
16473TIP3   OH299886   0.600   0.770   6.969
16473TIP3    H199887   0.541   0.842   6.998
16473TIP3    H299888   0.640   0.808   6.890
16474TIP3   OH299889   0.782   0.819   5.561
16474TIP3    H199890   0.769   0.794   5.468
16474TIP3    H299891   0.880   0.817   5.572
16475TIP3   OH299892   1.110   1.030   7.314
16475TIP3    H199893   1.204   1.025   7.291
16475TIP3    H299894   1.094   0.947   7.359
16476TIP3   OH299895   1.704   1.053   5.505
16476TIP3    H199896   1.698   1.001   5.423
16476TIP3    H299897   1.743   1.136   5.473
16477TIP3   OH299898   0.644   0.507   7.076
16477TIP3    H199899   0.654   0.436   7.011
16477TIP3    H299900   0.637   0.588   7.021
16478TIP3   OH299901   0.683   0.346   6.830
16478TIP3    H199902   0.734   0.393   6.760
16478TIP3    H299903   0.593   0.336   6.791
16479TIP3   OH299904   0.833   0.891   6.852
16479TIP3    H199905   0.913   0.880   6.800
16479TIP3    H299906   0.801   0.979   6.825
16480TIP3   OH299907   1.272   0.672   7.354
16480TIP3    H199908   1.295   0.579   7.345
16480TIP3    H299909   1.359   0.715   7.353
16481TIP3   OH299910   1.407   0.949   7.165
16481TIP3    H199911   1.385   1.024   7.107
16481TIP3    H299912   1.504   0.948   7.152
16482TIP3   OH299913   0.486   0.633   7.267
16482TIP3    H199914   0.410   0.575   7.251
16482TIP3    H299915   0.552   0.594   7.206
16483TIP3   OH299916   0.751   0.093   6.871
16483TIP3    H199917   0.743   0.191   6.860
16483TIP3    H299918   0.676   0.061   6.820
16484TIP3   OH299919   0.890   0.521   7.232
16484TIP3    H199920   0.858   0.497   7.321
16484TIP3    H299921   0.809   0.504   7.180
16485TIP3   OH299922   1.159   0.435   7.139
16485TIP3    H199923   1.063   0.440   7.153
16485TIP3    H299924   1.189   0.375   7.211
16486TIP3   OH299925   1.311   0.301   7.331
16486TIP3    H199926   1.313   0.203   7.333
16486TIP3    H299927   1.297   0.330   7.425
16487TIP3   OH299928   0.303   0.425   7.241
16487TIP3    H199929   0.323   0.350   7.183
16487TIP3    H299930   0.292   0.379   7.328
16488TIP3   OH299931   0.788   0.069   7.125
16488TIP3    H199932   0.851  -0.006   7.131
16488TIP3    H299933   0.768   0.059   7.030
16489TIP3   OH299934   0.821   0.189   7.355
16489TIP3    H199935   0.805   0.142   7.270
16489TIP3    H299936   0.762   0.267   7.342
16490TIP3   OH299937   0.767   1.885   5.670
16490TIP3    H199938   0.864   1.890   5.674
16490TIP3    H299939   0.748   1.944   5.597
16491TIP3   OH299940   0.132   1.342   5.621
16491TIP3    H199941   0.228   1.351   5.638
16491TIP3    H299942   0.130   1.284   5.545
16492TIP3   OH299943   8.143   1.882   6.109
16492TIP3    H199944   8.067   1.835   6.072
16492TIP3    H299945   8.169   1.820   6.180
16493TIP3   OH299946   0.084   1.693   6.297
16493TIP3    H199947   0.048   1.604   6.315
16493TIP3    H299948   0.109   1.726   6.386
16494TIP3   OH299949   1.835   1.771   6.594
16494TIP3    H199950   1.838   1.787   6.690
16494TIP3    H299951   1.905   1.829   6.563
16495TIP3   OH299952   1.792   1.730   6.888
16495TIP3    H199953   1.745   1.653   6.850
16495TIP3    H299954   1.842   1.685   6.958
16496TIP3   OH299955   1.639   1.306   7.355
16496TIP3    H199956   1.550   1.295   7.393
16496TIP3    H299957   1.672   1.384   7.399
16497TIP3   OH299958   1.768   1.134   5.896
16497TIP3    H199959   1.854   1.175   5.918
16497TIP3    H299960   1.767   1.064   5.965
16498TIP3   OH299961   1.804   0.943   6.087
16498TIP3    H199962   1.730   0.892   6.125
16498TIP3    H299963   1.864   0.956   6.164
16499TIP3   OH299964   1.780   1.213   6.586
16499TIP3    H199965   1.862   1.175   6.548
16499TIP3    H299966   1.795   1.308   6.569
16500TIP3   OH299967   1.636   1.503   6.812
16500TIP3    H199968   1.567   1.537   6.872
16500TIP3    H299969   1.581   1.462   6.742
16501TIP3   OH299970   1.835   0.927   5.723
16501TIP3    H199971   1.777   0.961   5.652
16501TIP3    H299972   1.826   0.995   5.793
16502TIP3   OH299973   1.667   0.649   5.582
16502TIP3    H199974   1.679   0.712   5.511
16502TIP3    H299975   1.653   0.566   5.531
16503TIP3   OH299976   1.586   0.790   6.144
16503TIP3    H199977   1.571   0.694   6.140
16503TIP3    H299978   1.553   0.812   6.232
16504TIP3   OH299979   0.082   0.993   6.547
16504TIP3    H199980   0.104   0.991   6.452
16504TIP3    H299981   0.171   0.984   6.587
16505TIP3   OH299982   1.672   0.987   7.107
16505TIP3    H199983   1.732   0.913   7.131
16505TIP3    H299984   1.730   1.065   7.113
16506TIP3   OH299985   1.826   0.773   7.154
16506TIP3    H199986   1.734   0.739   7.166
16506TIP3    H299987   1.877   0.696   7.182
16507TIP3   OH299988   1.592   0.399   5.497
16507TIP3    H199989   1.655   0.351   5.554
16507TIP3    H299990   1.509   0.350   5.508
16508TIP3   OH299991   1.553   0.548   5.991
16508TIP3    H199992   1.583   0.455   6.003
16508TIP3    H299993   1.632   0.588   5.952
16509TIP3   OH299994   1.618   0.601   6.535
16509TIP3    H199995   1.713   0.627   6.532
16509TIP3    H299996   1.596   0.618   6.628
16510TIP3   OH299997   1.624   0.677   6.814
16510TIP3    H199998   1.535   0.704   6.846
16510TIP3    H299999   1.664   0.763   6.788
16511TIP3   OH2    0   0.060   0.513   7.148
16511TIP3    H1    1   0.151   0.503   7.183
16511TIP3    H2    2   0.010   0.446   7.196
16512TIP3   OH2    3   1.853   0.075   7.352
16512TIP3    H1    4   1.882   0.015   7.282
16512TIP3    H2    5   1.859   0.162   7.308
16513TIP3   OH2    6   1.619   0.274   5.994
16513TIP3    H1    7   1.637   0.231   6.080
16513TIP3    H2    8   1.556   0.213   5.950
16514TIP3   OH2    9   0.162   0.356   6.450
16514TIP3    H1   10   0.211   0.275   6.476
16514TIP3    H2   11   0.218   0.425   6.489
16515TIP3   OH2   12  -0.005   0.681   6.491
16515TIP3    H1   13   0.069   0.627   6.458
16515TIP3    H2   14   0.050   0.731   6.555
16516TIP3   OH2   15   1.805   0.295   7.171
16516TIP3    H1   16   1.709   0.311   7.180
16516TIP3    H2   17   1.806   0.225   7.104
16517TIP3   OH2   18   1.803   0.283   5.649
16517TIP3    H1   19   1.843   0.210   5.600
16517TIP3    H2   20   1.875   0.348   5.653
16518TIP3   OH2   21   0.051   0.266   5.962
16518TIP3    H1   22  -0.043   0.289   5.939
16518TIP3    H2   23   0.093   0.332   5.904
16519TIP3   OH2   24   1.507   1.779   6.156
16519TIP3    H1   25   1.576   1.748   6.094
16519TIP3    H2   26   1.559   1.829   6.221
16520TIP3   OH2   27   8.176   0.164   6.806
16520TIP3    H1   28   8.107   0.127   6.860
16520TIP3    H2   29   8.125   0.214   6.741
16521TIP3   OH2   30   0.247   1.476   7.208
16521TIP3    H1   31   0.163   1.489   7.164
16521TIP3    H2   32   0.221   1.458   7.299
16522TIP3   OH2   33   0.541   1.569   6.834
16522TIP3    H1   34   0.506   1.655   6.808
16522TIP3    H2   35   0.635   1.579   6.804
16523TIP3   OH2   36   0.975   1.710   7.125
16523TIP3    H1   37   0.990   1.680   7.218
16523TIP3    H2   38   1.064   1.743   7.101
16524TIP3   OH2   39   1.204   1.841   7.055
16524TIP3    H1   40   1.276   1.780   7.033
16524TIP3    H2   41   1.240   1.882   7.137
16525TIP3   OH2   42   1.702   0.109   6.963
16525TIP3    H1   43   1.614   0.134   6.930
16525TIP3    H2   44   1.718   0.023   6.927
16526TIP3   OH2   45   0.284   1.893   6.836
16526TIP3    H1   46   0.210   1.942   6.795
16526TIP3    H2   47   0.249   1.875   6.925
16527TIP3   OH2   48   0.532   1.852   6.742
16527TIP3    H1   49   0.442   1.866   6.781
16527TIP3    H2   50   0.525   1.910   6.664
16528TIP3   OH2   51   1.002   1.843   6.659
16528TIP3    H1   52   0.956   1.898   6.594
16528TIP3    H2   53   1.016   1.906   6.733
16529TIP3   OH2   54   1.231   1.724   6.761
16529TIP3    H1   55   1.145   1.751   6.725
16529TIP3    H2   56   1.279   1.808   6.752
16530TIP3   OH2   57   1.490   1.882   6.784
16530TIP3    H1   58   1.483   1.977   6.761
16530TIP3    H2   59   1.511   1.844   6.696
16531TIP3   OH2   60   0.229   1.756   6.527
16531TIP3    H1   61   0.227   1.713   6.615
16531TIP3    H2   62   0.312   1.722   6.488
16532TIP3   OH2   63   0.436   1.629   6.395
16532TIP3    H1   64   0.421   1.535   6.416
16532TIP3    H2   65   0.522   1.645   6.440
16533TIP3   OH2   66   0.697   1.678   6.482
16533TIP3    H1   67   0.714   1.586   6.455
16533TIP3    H2   68   0.702   1.672   6.578
16534TIP3   OH2   69   1.039   0.247   6.395
16534TIP3    H1   70   0.979   0.175   6.424
16534TIP3    H2   71   1.102   0.194   6.342
16535TIP3   OH2   72   1.542   0.048   6.359
16535TIP3    H1   73   1.612   0.114   6.342
16535TIP3    H2   74   1.459   0.097   6.376
16536TIP3   OH2   75   1.731   0.178   6.230
16536TIP3    H1   76   1.791   0.114   6.189
16536TIP3    H2   77   1.781   0.262   6.238
16537TIP3   OH2   78   0.266   0.150   6.192
16537TIP3    H1   79   0.201   0.108   6.136
16537TIP3    H2   80   0.325   0.071   6.197
16538TIP3   OH2   81   0.155   0.101   5.746
16538TIP3    H1   82   0.209   0.162   5.695
16538TIP3    H2   83   0.099   0.151   5.806
16539TIP3   OH2   84   0.731   0.104   6.160
16539TIP3    H1   85   0.823   0.132   6.154
16539TIP3    H2   86   0.728   0.074   6.251
16540TIP3   OH2   87   1.284   0.101   6.321
16540TIP3    H1   88   1.298   0.108   6.226
16540TIP3    H2   89   1.266   0.006   6.332
16541TIP3   OH2   90   1.419   0.110   5.869
16541TIP3    H1   91   1.343   0.169   5.870
16541TIP3    H2   92   1.388   0.027   5.909
16542TIP3   OH2   93   0.147   1.677   5.857
16542TIP3    H1   94   0.086   1.675   5.782
16542TIP3    H2   95   0.155   1.773   5.869
16543TIP3   OH2   96   0.339   0.270   5.605
16543TIP3    H1   97   0.393   0.213   5.550
16543TIP3    H2   98   0.407   0.307   5.664
16544TIP3   OH2   99   0.839   0.299   5.846
16544TIP3    H1  100   0.870   0.243   5.919
16544TIP3    H2  101   0.849   0.386   5.890
16545TIP3   OH2  102   1.035   1.811   5.685
16545TIP3    H1  103   1.129   1.828   5.669
16545TIP3    H2  104   1.016   1.753   5.608
16546TIP3   OH2  105   1.707   1.758   5.960
16546TIP3    H1  106   1.687   1.680   5.903
16546TIP3    H2  107   1.698   1.831   5.896
16547TIP3   OH2  108   0.266   0.159   7.131
16547TIP3    H1  109   0.232   0.077   7.170
16547TIP3    H2  110   0.359   0.157   7.162
16548TIP3   OH2  111   0.473   0.097   7.290
16548TIP3    H1  112   0.560   0.063   7.266
16548TIP3    H2  113   0.431   0.016   7.324
16549TIP3   OH2  114   0.333   1.775   5.550
16549TIP3    H1  115   0.303   1.802   5.637
16549TIP3    H2  116   0.406   1.717   5.568
16550TIP3   OH2  117   1.315   0.028   7.308
16550TIP3    H1  118   1.327  -0.023   7.387
16550TIP3    H2  119   1.401   0.024   7.265
16551TIP3   OH2  120   1.631   1.630   7.171
16551TIP3    H1  121   1.551   1.617   7.116
16551TIP3    H2  122   1.620   1.725   7.190
16552TIP3   OH2  123   3.075   1.019   6.166
16552TIP3    H1  124   3.074   1.117   6.162
16552TIP3    H2  125   3.002   0.996   6.106
16553TIP3   OH2  126   2.961   0.945   6.516
16553TIP3    H1  127   2.959   0.880   6.588
16553TIP3    H2  128   2.927   0.895   6.441
16554TIP3   OH2  129   2.195   0.912   6.673
16554TIP3    H1  130   2.207   0.844   6.742
16554TIP3    H2  131   2.271   0.970   6.692
16555TIP3   OH2  132   3.330   1.240   6.344
16555TIP3    H1  133   3.288   1.168   6.393
16555TIP3    H2  134   3.332   1.311   6.411
16556TIP3   OH2  135   2.289   1.357   6.522
16556TIP3    H1  136   2.258   1.270   6.490
16556TIP3    H2  137   2.384   1.339   6.527
16557TIP3   OH2  138   1.953   0.713   6.070
16557TIP3    H1  139   1.909   0.800   6.064
16557TIP3    H2  140   1.897   0.659   6.014
16558TIP3   OH2  141   2.024   0.936   6.285
16558TIP3    H1  142   2.051   0.854   6.331
16558TIP3    H2  143   2.094   0.946   6.219
16559TIP3   OH2  144   3.042   1.756   6.368
16559TIP3    H1  145   3.106   1.686   6.340
16559TIP3    H2  146   3.020   1.723   6.456
16560TIP3   OH2  147   2.799   1.185   6.563
16560TIP3    H1  148   2.832   1.122   6.497
16560TIP3    H2  149   2.879   1.201   6.615
16561TIP3   OH2  150   3.661   0.345   6.637
16561TIP3    H1  151   3.675   0.408   6.712
16561TIP3    H2  152   3.713   0.392   6.570
16562TIP3   OH2  153   3.117   0.633   6.593
16562TIP3    H1  154   3.131   0.537   6.595
16562TIP3    H2  155   3.105   0.646   6.497
16563TIP3   OH2  156   2.427   0.441   6.316
16563TIP3    H1  157   2.437   0.525   6.267
16563TIP3    H2  158   2.387   0.382   6.249
16564TIP3   OH2  159   3.200   0.448   6.153
16564TIP3    H1  160   3.265   0.417   6.219
16564TIP3    H2  161   3.255   0.506   6.099
16565TIP3   OH2  162   2.088   0.684   6.392
16565TIP3    H1  163   2.156   0.628   6.434
16565TIP3    H2  164   2.098   0.652   6.301
16566TIP3   OH2  165   2.605   0.837   6.321
16566TIP3    H1  166   2.672   0.779   6.361
16566TIP3    H2  167   2.553   0.771   6.271
16567TIP3   OH2  168   3.702   0.489   6.862
16567TIP3    H1  169   3.641   0.565   6.853
16567TIP3    H2  170   3.706   0.480   6.958
16568TIP3   OH2  171   2.318   0.334   6.722
16568TIP3    H1  172   2.288   0.387   6.645
16568TIP3    H2  173   2.248   0.352   6.788
16569TIP3   OH2  174   3.046   1.279   6.075
16569TIP3    H1  175   3.018   1.250   5.986
16569TIP3    H2  176   3.015   1.372   6.080
16570TIP3   OH2  177   2.569   1.095   6.743
16570TIP3    H1  178   2.498   1.159   6.766
16570TIP3    H2  179   2.640   1.155   6.715
16571TIP3   OH2  180   3.382   0.383   6.353
16571TIP3    H1  181   3.357   0.306   6.405
16571TIP3    H2  182   3.448   0.427   6.409
16572TIP3   OH2  183   2.272   0.517   6.523
16572TIP3    H1  184   2.338   0.584   6.553
16572TIP3    H2  185   2.325   0.474   6.450
16573TIP3   OH2  186   2.413   1.294   6.826
16573TIP3    H1  187   2.410   1.386   6.794
16573TIP3    H2  188   2.325   1.288   6.871
16574TIP3   OH2  189   2.016   1.256   5.905
16574TIP3    H1  190   2.000   1.290   5.814
16574TIP3    H2  191   2.028   1.340   5.955
16575TIP3   OH2  192   3.383   1.424   6.581
16575TIP3    H1  193   3.286   1.434   6.593
16575TIP3    H2  194   3.409   1.515   6.561
16576TIP3   OH2  195   3.416   0.250   6.723
16576TIP3    H1  196   3.343   0.314   6.712
16576TIP3    H2  197   3.487   0.294   6.670
16577TIP3   OH2  198   2.710   0.068   6.445
16577TIP3    H1  199   2.708  -0.027   6.464
16577TIP3    H2  200   2.632   0.096   6.496
16578TIP3   OH2  201   3.208   1.602   6.240
16578TIP3    H1  202   3.251   1.530   6.190
16578TIP3    H2  203   3.251   1.681   6.201
16579TIP3   OH2  204   3.329   1.395   6.092
16579TIP3    H1  205   3.301   1.325   6.030
16579TIP3    H2  206   3.333   1.345   6.176
16580TIP3   OH2  207   3.492   1.254   6.941
16580TIP3    H1  208   3.506   1.189   6.869
16580TIP3    H2  209   3.512   1.339   6.897
16581TIP3   OH2  210   2.941   0.942   5.918
16581TIP3    H1  211   2.871   1.000   5.881
16581TIP3    H2  212   3.012   0.952   5.851
16582TIP3   OH2  213   2.948   0.798   5.623
16582TIP3    H1  214   3.020   0.797   5.689
16582TIP3    H2  215   2.977   0.728   5.564
16583TIP3   OH2  216   3.680   0.885   6.746
16583TIP3    H1  217   3.614   0.957   6.750
16583TIP3    H2  218   3.729   0.908   6.665
16584TIP3   OH2  219   3.286   0.966   6.011
16584TIP3    H1  220   3.211   0.989   6.071
16584TIP3    H2  221   3.333   0.897   6.062
16585TIP3   OH2  222   3.278   0.781   6.922
16585TIP3    H1  223   3.279   0.863   6.974
16585TIP3    H2  224   3.215   0.810   6.853
16586TIP3   OH2  225   2.447   1.030   6.201
16586TIP3    H1  226   2.415   0.991   6.117
16586TIP3    H2  227   2.508   0.961   6.235
16587TIP3   OH2  228   2.579   1.369   6.470
16587TIP3    H1  229   2.578   1.316   6.389
16587TIP3    H2  230   2.657   1.333   6.515
16588TIP3   OH2  231   2.480   0.905   6.568
16588TIP3    H1  232   2.535   0.915   6.487
16588TIP3    H2  233   2.519   0.971   6.629
16589TIP3   OH2  234   3.121   1.462   6.638
16589TIP3    H1  235   3.092   1.525   6.704
16589TIP3    H2  236   3.096   1.376   6.681
16590TIP3   OH2  237   2.576   1.349   7.037
16590TIP3    H1  238   2.535   1.422   7.088
16590TIP3    H2  239   2.506   1.328   6.971
16591TIP3   OH2  240   3.173   0.883   5.778
16591TIP3    H1  241   3.229   0.901   5.858
16591TIP3    H2  242   3.215   0.935   5.706
16592TIP3   OH2  243   2.267   0.961   6.956
16592TIP3    H1  244   2.275   1.031   7.023
16592TIP3    H2  245   2.174   0.975   6.929
16593TIP3   OH2  246   2.944   1.557   6.124
16593TIP3    H1  247   2.988   1.587   6.204
16593TIP3    H2  248   2.889   1.631   6.100
16594TIP3   OH2  249   2.398   1.552   7.109
16594TIP3    H1  250   2.392   1.542   7.013
16594TIP3    H2  251   2.306   1.536   7.140
16595TIP3   OH2  252   3.547   0.059   5.774
16595TIP3    H1  253   3.450   0.072   5.792
16595TIP3    H2  254   3.567   0.139   5.721
16596TIP3   OH2  255   2.343   0.933   5.965
16596TIP3    H1  256   2.315   1.010   5.911
16596TIP3    H2  257   2.279   0.866   5.940
16597TIP3   OH2  258   3.655   1.492   5.610
16597TIP3    H1  259   3.669   1.588   5.614
16597TIP3    H2  260   3.746   1.463   5.593
16598TIP3   OH2  261   1.954   1.175   6.851
16598TIP3    H1  262   1.907   1.168   6.766
16598TIP3    H2  263   1.960   1.081   6.874
16599TIP3   OH2  264   1.929   1.449   6.530
16599TIP3    H1  265   2.025   1.437   6.528
16599TIP3    H2  266   1.921   1.530   6.581
16600TIP3   OH2  267   3.752   1.519   7.097
16600TIP3    H1  268   3.741   1.423   7.097
16600TIP3    H2  269   3.667   1.545   7.139
16601TIP3   OH2  270   2.849   1.476   6.982
16601TIP3    H1  271   2.853   1.556   7.039
16601TIP3    H2  272   2.764   1.437   7.010
16602TIP3   OH2  273   2.891   1.848   5.964
16602TIP3    H1  274   2.883   1.840   5.868
16602TIP3    H2  275   2.895   1.944   5.980
16603TIP3   OH2  276   2.256   1.735   6.147
16603TIP3    H1  277   2.271   1.694   6.235
16603TIP3    H2  278   2.171   1.695   6.123
16604TIP3   OH2  279   3.193   1.766   5.660
16604TIP3    H1  280   3.244   1.693   5.619
16604TIP3    H2  281   3.202   1.742   5.755
16605TIP3   OH2  282   3.167   1.762   5.941
16605TIP3    H1  283   3.071   1.769   5.960
16605TIP3    H2  284   3.192   1.688   5.998
16606TIP3   OH2  285   3.468   0.667   7.144
16606TIP3    H1  286   3.419   0.711   7.073
16606TIP3    H2  287   3.466   0.574   7.116
16607TIP3   OH2  288   2.181   1.305   6.947
16607TIP3    H1  289   2.204   1.271   7.037
16607TIP3    H2  290   2.094   1.266   6.925
16608TIP3   OH2  291   2.449   0.153   6.544
16608TIP3    H1  292   2.359   0.149   6.504
16608TIP3    H2  293   2.439   0.237   6.592
16609TIP3   OH2  294   2.918   0.171   6.888
16609TIP3    H1  295   2.965   0.103   6.937
16609TIP3    H2  296   2.830   0.129   6.875
16610TIP3   OH2  297   3.242   0.503   6.965
16610TIP3    H1  298   3.187   0.485   7.046
16610TIP3    H2  299   3.225   0.596   6.944
16611TIP3   OH2  300   3.318   0.985   5.547
16611TIP3    H1  301   3.320   0.967   5.452
16611TIP3    H2  302   3.402   1.031   5.562
16612TIP3   OH2  303   2.880   0.374   5.616
16612TIP3    H1  304   2.845   0.373   5.706
16612TIP3    H2  305   2.848   0.288   5.585
16613TIP3   OH2  306   2.458   0.651   6.667
16613TIP3    H1  307   2.385   0.650   6.731
16613TIP3    H2  308   2.456   0.742   6.630
16614TIP3   OH2  309   2.456   0.665   6.153
16614TIP3    H1  310   2.362   0.639   6.140
16614TIP3    H2  311   2.494   0.634   6.068
16615TIP3   OH2  312   3.007   0.714   6.030
16615TIP3    H1  313   2.967   0.796   5.995
16615TIP3    H2  314   3.076   0.697   5.963
16616TIP3   OH2  315   2.914   0.735   7.176
16616TIP3    H1  316   2.860   0.656   7.204
16616TIP3    H2  317   2.997   0.721   7.223
16617TIP3   OH2  318   3.111   0.662   6.315
16617TIP3    H1  319   3.083   0.719   6.241
16617TIP3    H2  320   3.121   0.577   6.268
16618TIP3   OH2  321   2.210   0.680   6.838
16618TIP3    H1  322   2.237   0.718   6.924
16618TIP3    H2  323   2.188   0.588   6.855
16619TIP3   OH2  324   2.558   0.408   5.516
16619TIP3    H1  325   2.515   0.375   5.597
16619TIP3    H2  326   2.490   0.461   5.471
16620TIP3   OH2  327   1.887   0.392   6.232
16620TIP3    H1  328   1.954   0.386   6.303
16620TIP3    H2  329   1.933   0.351   6.156
16621TIP3   OH2  330   2.017   0.460   5.776
16621TIP3    H1  331   2.065   0.519   5.713
16621TIP3    H2  332   1.947   0.523   5.805
16622TIP3   OH2  333   3.031   0.821   6.771
16622TIP3    H1  334   3.069   0.753   6.712
16622TIP3    H2  335   2.985   0.768   6.838
16623TIP3   OH2  336   2.711   0.419   6.254
16623TIP3    H1  337   2.618   0.419   6.284
16623TIP3    H2  338   2.759   0.401   6.337
16624TIP3   OH2  339   2.192   0.573   6.141
16624TIP3    H1  340   2.104   0.589   6.102
16624TIP3    H2  341   2.220   0.489   6.101
16625TIP3   OH2  342   2.556   0.577   5.904
16625TIP3    H1  343   2.652   0.589   5.920
16625TIP3    H2  344   2.532   0.644   5.837
16626TIP3   OH2  345   3.152   0.336   6.578
16626TIP3    H1  346   3.083   0.346   6.647
16626TIP3    H2  347   3.100   0.315   6.499
16627TIP3   OH2  348   2.428   0.697   5.666
16627TIP3    H1  349   2.372   0.661   5.595
16627TIP3    H2  350   2.508   0.719   5.616
16628TIP3   OH2  351   3.471   1.909   7.216
16628TIP3    H1  352   3.498   1.942   7.128
16628TIP3    H2  353   3.548   1.938   7.268
16629TIP3   OH2  354   2.243   1.153   7.170
16629TIP3    H1  355   2.313   1.180   7.230
16629TIP3    H2  356   2.164   1.165   7.227
16630TIP3   OH2  357   2.839   0.694   6.444
16630TIP3    H1  358   2.898   0.640   6.390
16630TIP3    H2  359   2.825   0.639   6.522
16631TIP3   OH2  360   2.345   0.308   6.088
16631TIP3    H1  361   2.312   0.217   6.085
16631TIP3    H2  362   2.421   0.302   6.030
16632TIP3   OH2  363   2.703   0.524   6.686
16632TIP3    H1  364   2.621   0.577   6.694
16632TIP3    H2  365   2.759   0.561   6.757
16633TIP3   OH2  366   2.762   1.150   5.853
16633TIP3    H1  367   2.682   1.102   5.822
16633TIP3    H2  368   2.741   1.161   5.948
16634TIP3   OH2  369   3.480   1.069   6.735
16634TIP3    H1  370   3.537   1.117   6.672
16634TIP3    H2  371   3.394   1.074   6.688
16635TIP3   OH2  372   3.146   0.429   5.673
16635TIP3    H1  373   3.052   0.445   5.655
16635TIP3    H2  374   3.178   0.516   5.703
16636TIP3   OH2  375   2.912   1.176   6.979
16636TIP3    H1  376   2.876   1.134   7.058
16636TIP3    H2  377   2.885   1.267   6.990
16637TIP3   OH2  378   3.219   0.623   5.839
16637TIP3    H1  379   3.308   0.609   5.877
16637TIP3    H2  380   3.228   0.704   5.787
16638TIP3   OH2  381   2.273   1.089   6.435
16638TIP3    H1  382   2.342   1.081   6.366
16638TIP3    H2  383   2.279   1.002   6.480
16639TIP3   OH2  384   2.971   1.297   5.760
16639TIP3    H1  385   2.936   1.381   5.796
16639TIP3    H2  386   2.897   1.235   5.781
16640TIP3   OH2  387   1.977   0.922   6.956
16640TIP3    H1  388   1.987   0.891   7.049
16640TIP3    H2  389   1.902   0.873   6.918
16641TIP3   OH2  390   2.672   0.883   7.177
16641TIP3    H1  391   2.642   0.855   7.090
16641TIP3    H2  392   2.765   0.855   7.178
16642TIP3   OH2  393   3.141   1.418   6.975
16642TIP3    H1  394   3.049   1.437   6.949
16642TIP3    H2  395   3.138   1.448   7.067
16643TIP3   OH2  396   3.708   0.637   5.814
16643TIP3    H1  397   3.651   0.607   5.740
16643TIP3    H2  398   3.716   0.731   5.786
16644TIP3   OH2  399   3.707   1.223   7.094
16644TIP3    H1  400   3.619   1.244   7.055
16644TIP3    H2  401   3.763   1.218   7.013
16645TIP3   OH2  402   3.538   1.519   5.854
16645TIP3    H1  403   3.501   1.436   5.886
16645TIP3    H2  404   3.568   1.500   5.762
16646TIP3   OH2  405   3.258   1.001   6.563
16646TIP3    H1  406   3.164   0.980   6.552
16646TIP3    H2  407   3.301   0.925   6.520
16647TIP3   OH2  408   2.510   1.434   6.173
16647TIP3    H1  409   2.560   1.515   6.152
16647TIP3    H2  410   2.422   1.457   6.140
16648TIP3   OH2  411   2.084   0.919   5.624
16648TIP3    H1  412   2.146   0.981   5.666
16648TIP3    H2  413   1.999   0.947   5.661
16649TIP3   OH2  414   2.652   1.201   6.124
16649TIP3    H1  415   2.621   1.293   6.134
16649TIP3    H2  416   2.580   1.152   6.169
16650TIP3   OH2  417   2.697   1.619   6.764
16650TIP3    H1  418   2.742   1.700   6.738
16650TIP3    H2  419   2.758   1.585   6.832
16651TIP3   OH2  420   2.519   1.700   6.079
16651TIP3    H1  421   2.423   1.714   6.091
16651TIP3    H2  422   2.556   1.784   6.112
16652TIP3   OH2  423   3.050   1.219   6.728
16652TIP3    H1  424   3.016   1.200   6.818
16652TIP3    H2  425   3.113   1.148   6.711
16653TIP3   OH2  426   3.279   1.324   5.638
16653TIP3    H1  427   3.312   1.278   5.718
16653TIP3    H2  428   3.184   1.307   5.647
16654TIP3   OH2  429   3.330   1.679   6.979
16654TIP3    H1  430   3.262   1.627   6.930
16654TIP3    H2  431   3.350   1.747   6.911
16655TIP3   OH2  432   3.729   1.765   5.659
16655TIP3    H1  433   3.801   1.828   5.641
16655TIP3    H2  434   3.658   1.825   5.691
16656TIP3   OH2  435   2.135   0.402   6.920
16656TIP3    H1  436   2.043   0.425   6.910
16656TIP3    H2  437   2.127   0.313   6.961
16657TIP3   OH2  438   3.361   1.189   5.862
16657TIP3    H1  439   3.336   1.110   5.915
16657TIP3    H2  440   3.456   1.194   5.880
16658TIP3   OH2  441   2.098   1.581   6.759
16658TIP3    H1  442   2.128   1.489   6.759
16658TIP3    H2  443   2.125   1.610   6.847
16659TIP3   OH2  444   2.695   1.430   5.483
16659TIP3    H1  445   2.710   1.354   5.428
16659TIP3    H2  446   2.652   1.393   5.563
16660TIP3   OH2  447   2.574   1.386   5.730
16660TIP3    H1  448   2.599   1.335   5.808
16660TIP3    H2  449   2.581   1.480   5.761
16661TIP3   OH2  450   2.224   1.112   5.777
16661TIP3    H1  451   2.157   1.152   5.835
16661TIP3    H2  452   2.278   1.189   5.752
16662TIP3   OH2  453   3.015   0.389   6.809
16662TIP3    H1  454   3.083   0.388   6.877
16662TIP3    H2  455   2.974   0.301   6.826
16663TIP3   OH2  456   3.087   0.335   5.922
16663TIP3    H1  457   3.108   0.385   5.840
16663TIP3    H2  458   3.143   0.381   5.987
16664TIP3   OH2  459   2.854   1.553   5.799
16664TIP3    H1  460   2.772   1.605   5.809
16664TIP3    H2  461   2.906   1.607   5.738
16665TIP3   OH2  462   2.807   0.511   6.003
16665TIP3    H1  463   2.886   0.569   6.006
16665TIP3    H2  464   2.782   0.501   6.096
16666TIP3   OH2  465   2.862   0.613   6.921
16666TIP3    H1  466   2.872   0.670   7.000
16666TIP3    H2  467   2.928   0.542   6.930
16667TIP3   OH2  468   2.896   0.217   6.094
16667TIP3    H1  469   2.861   0.284   6.156
16667TIP3    H2  470   2.961   0.272   6.046
16668TIP3   OH2  471   2.591   1.657   5.806
16668TIP3    H1  472   2.606   1.738   5.753
16668TIP3    H2  473   2.566   1.692   5.893
16669TIP3   OH2  474   2.458   0.329   5.760
16669TIP3    H1  475   2.452   0.419   5.797
16669TIP3    H2  476   2.548   0.307   5.790
16670TIP3   OH2  477   3.480   0.402   7.005
16670TIP3    H1  478   3.387   0.433   6.993
16670TIP3    H2  479   3.511   0.400   6.913
16671TIP3   OH2  480   3.342   0.780   6.407
16671TIP3    H1  481   3.260   0.736   6.379
16671TIP3    H2  482   3.390   0.711   6.459
16672TIP3   OH2  483   2.284   1.371   5.668
16672TIP3    H1  484   2.348   1.437   5.697
16672TIP3    H2  485   2.334   1.326   5.597
16673TIP3   OH2  486   2.119   0.639   5.585
16673TIP3    H1  487   2.118   0.736   5.597
16673TIP3    H2  488   2.033   0.620   5.548
16674TIP3   OH2  489   3.448   1.707   6.575
16674TIP3    H1  490   3.439   1.775   6.505
16674TIP3    H2  491   3.544   1.712   6.592
16675TIP3   OH2  492   2.193   0.131   6.451
16675TIP3    H1  493   2.172   0.130   6.355
16675TIP3    H2  494   2.161   0.043   6.478
16676TIP3   OH2  495   2.094   1.510   6.068
16676TIP3    H1  496   2.008   1.555   6.065
16676TIP3    H2  497   2.141   1.558   5.999
16677TIP3   OH2  498   2.016   1.774   7.197
16677TIP3    H1  499   2.077   1.753   7.270
16677TIP3    H2  500   1.971   1.690   7.179
16678TIP3   OH2  501   2.893   1.618   5.497
16678TIP3    H1  502   2.822   1.553   5.519
16678TIP3    H2  503   2.967   1.560   5.475
16679TIP3   OH2  504   3.132   1.507   7.233
16679TIP3    H1  505   3.098   1.418   7.257
16679TIP3    H2  506   3.211   1.517   7.288
16680TIP3   OH2  507   3.352   1.596   5.519
16680TIP3    H1  508   3.377   1.514   5.565
16680TIP3    H2  509   3.429   1.614   5.465
16681TIP3   OH2  510   2.008   1.153   7.293
16681TIP3    H1  511   2.022   1.062   7.265
16681TIP3    H2  512   1.931   1.179   7.240
16682TIP3   OH2  513   2.443   1.187   5.503
16682TIP3    H1  514   2.454   1.109   5.560
16682TIP3    H2  515   2.508   1.173   5.434
16683TIP3   OH2  516   2.688   1.149   7.231
16683TIP3    H1  517   2.641   1.184   7.153
16683TIP3    H2  518   2.680   1.052   7.225
16684TIP3   OH2  519   2.976   1.295   5.478
16684TIP3    H1  520   2.955   1.309   5.572
16684TIP3    H2  521   2.961   1.200   5.467
16685TIP3   OH2  522   3.246   1.139   6.979
16685TIP3    H1  523   3.325   1.196   6.966
16685TIP3    H2  524   3.175   1.204   6.977
16686TIP3   OH2  525   2.089   0.871   7.232
16686TIP3    H1  526   2.142   0.791   7.229
16686TIP3    H2  527   2.072   0.879   7.327
16687TIP3   OH2  528   2.561   0.989   5.742
16687TIP3    H1  529   2.510   0.936   5.805
16687TIP3    H2  530   2.590   0.921   5.676
16688TIP3   OH2  531   2.482   0.769   6.968
16688TIP3    H1  532   2.429   0.844   6.999
16688TIP3    H2  533   2.528   0.808   6.891
16689TIP3   OH2  534   2.669   0.818   5.561
16689TIP3    H1  535   2.655   0.794   5.468
16689TIP3    H2  536   2.766   0.817   5.572
16690TIP3   OH2  537   2.997   1.030   7.314
16690TIP3    H1  538   3.089   1.022   7.290
16690TIP3    H2  539   2.975   0.949   7.361
16691TIP3   OH2  540   3.602   1.046   5.506
16691TIP3    H1  541   3.579   1.005   5.422
16691TIP3    H2  542   3.611   1.140   5.483
16692TIP3   OH2  543   2.527   0.507   7.078
16692TIP3    H1  544   2.539   0.437   7.012
16692TIP3    H2  545   2.526   0.587   7.023
16693TIP3   OH2  546   2.568   0.345   6.831
16693TIP3    H1  547   2.620   0.393   6.761
16693TIP3    H2  548   2.479   0.336   6.790
16694TIP3   OH2  549   2.721   0.893   6.856
16694TIP3    H1  550   2.797   0.878   6.798
16694TIP3    H2  551   2.686   0.978   6.824
16695TIP3   OH2  552   3.160   0.670   7.350
16695TIP3    H1  553   3.184   0.576   7.346
16695TIP3    H2  554   3.247   0.713   7.355
16696TIP3   OH2  555   3.295   0.950   7.168
16696TIP3    H1  556   3.270   1.021   7.105
16696TIP3    H2  557   3.391   0.945   7.149
16697TIP3   OH2  558   2.371   0.635   7.268
16697TIP3    H1  559   2.296   0.574   7.254
16697TIP3    H2  560   2.439   0.597   7.209
16698TIP3   OH2  561   2.637   0.093   6.870
16698TIP3    H1  562   2.629   0.191   6.860
16698TIP3    H2  563   2.562   0.061   6.820
16699TIP3   OH2  564   2.775   0.519   7.231
16699TIP3    H1  565   2.742   0.500   7.321
16699TIP3    H2  566   2.694   0.503   7.180
16700TIP3   OH2  567   3.044   0.439   7.144
16700TIP3    H1  568   2.948   0.440   7.154
16700TIP3    H2  569   3.073   0.373   7.210
16701TIP3   OH2  570   3.203   0.300   7.331
16701TIP3    H1  571   3.199   0.202   7.337
16701TIP3    H2  572   3.181   0.328   7.423
16702TIP3   OH2  573   2.183   0.425   7.241
16702TIP3    H1  574   2.208   0.349   7.185
16702TIP3    H2  575   2.175   0.381   7.328
16703TIP3   OH2  576   2.674   0.068   7.123
16703TIP3    H1  577   2.736  -0.007   7.131
16703TIP3    H2  578   2.654   0.059   7.028
16704TIP3   OH2  579   2.706   0.188   7.348
16704TIP3    H1  580   2.689   0.142   7.264
16704TIP3    H2  581   2.647   0.265   7.346
16705TIP3   OH2  582   2.652   1.886   5.670
16705TIP3    H1  583   2.750   1.890   5.674
16705TIP3    H2  584   2.634   1.944   5.597
16706TIP3   OH2  585   2.010   1.339   5.617
16706TIP3    H1  586   2.106   1.350   5.640
16706TIP3    H2  587   2.020   1.280   5.542
16707TIP3   OH2  588   1.885   1.878   6.113
16707TIP3    H1  589   1.813   1.829   6.066
16707TIP3    H2  590   1.913   1.812   6.179
16708TIP3   OH2  591   1.967   1.691   6.300
16708TIP3    H1  592   1.932   1.603   6.320
16708TIP3    H2  593   1.989   1.724   6.389
16709TIP3   OH2  594   3.720   1.771   6.594
16709TIP3    H1  595   3.723   1.787   6.690
16709TIP3    H2  596   3.791   1.829   6.563
16710TIP3   OH2  597   3.680   1.730   6.888
16710TIP3    H1  598   3.630   1.653   6.851
16710TIP3    H2  599   3.727   1.685   6.960
16711TIP3   OH2  600   3.524   1.303   7.355
16711TIP3    H1  601   3.437   1.296   7.393
16711TIP3    H2  602   3.562   1.382   7.398
16712TIP3   OH2  603   3.654   1.134   5.898
16712TIP3    H1  604   3.740   1.175   5.917
16712TIP3    H2  605   3.652   1.063   5.965
16713TIP3   OH2  606   3.690   0.943   6.087
16713TIP3    H1  607   3.615   0.892   6.125
16713TIP3    H2  608   3.750   0.956   6.164
16714TIP3   OH2  609   3.666   1.212   6.585
16714TIP3    H1  610   3.748   1.175   6.548
16714TIP3    H2  611   3.680   1.308   6.568
16715TIP3   OH2  612   3.521   1.503   6.813
16715TIP3    H1  613   3.452   1.537   6.872
16715TIP3    H2  614   3.466   1.462   6.742
16716TIP3   OH2  615   3.720   0.926   5.724
16716TIP3    H1  616   3.663   0.961   5.653
16716TIP3    H2  617   3.711   0.996   5.792
16717TIP3   OH2  618   3.554   0.646   5.582
16717TIP3    H1  619   3.564   0.713   5.513
16717TIP3    H2  620   3.538   0.565   5.530
16718TIP3   OH2  621   3.472   0.790   6.144
16718TIP3    H1  622   3.457   0.695   6.140
16718TIP3    H2  623   3.438   0.812   6.233
16719TIP3   OH2  624   1.972   0.995   6.551
16719TIP3    H1  625   1.990   0.990   6.454
16719TIP3    H2  626   2.063   0.983   6.585
16720TIP3   OH2  627   3.557   0.987   7.114
16720TIP3    H1  628   3.618   0.911   7.128
16720TIP3    H2  629   3.617   1.063   7.110
16721TIP3   OH2  630   3.708   0.775   7.175
16721TIP3    H1  631   3.619   0.735   7.162
16721TIP3    H2  632   3.765   0.697   7.169
16722TIP3   OH2  633   3.477   0.398   5.497
16722TIP3    H1  634   3.541   0.351   5.554
16722TIP3    H2  635   3.394   0.350   5.508
16723TIP3   OH2  636   3.438   0.548   5.991
16723TIP3    H1  637   3.469   0.455   6.002
16723TIP3    H2  638   3.517   0.588   5.952
16724TIP3   OH2  639   3.503   0.602   6.534
16724TIP3    H1  640   3.599   0.627   6.533
16724TIP3    H2  641   3.483   0.617   6.628
16725TIP3   OH2  642   3.508   0.676   6.810
16725TIP3    H1  643   3.421   0.704   6.845
16725TIP3    H2  644   3.552   0.762   6.790
16726TIP3   OH2  645   1.940   0.526   7.154
16726TIP3    H1  646   2.029   0.502   7.191
16726TIP3    H2  647   1.889   0.450   7.194
16727TIP3   OH2  648   3.745   0.082   7.351
16727TIP3    H1  649   3.766   0.016   7.282
16727TIP3    H2  650   3.745   0.163   7.298
16728TIP3   OH2  651   3.507   0.273   5.993
16728TIP3    H1  652   3.522   0.232   6.081
16728TIP3    H2  653   3.441   0.214   5.950
16729TIP3   OH2  654   2.050   0.358   6.452
16729TIP3    H1  655   2.101   0.278   6.476
16729TIP3    H2  656   2.109   0.427   6.486
16730TIP3   OH2  657   1.886   0.656   6.559
16730TIP3    H1  658   1.937   0.633   6.478
16730TIP3    H2  659   1.928   0.740   6.579
16731TIP3   OH2  660   3.690   0.289   7.178
16731TIP3    H1  661   3.595   0.314   7.178
16731TIP3    H2  662   3.692   0.228   7.104
16732TIP3   OH2  663   3.690   0.281   5.650
16732TIP3    H1  664   3.730   0.210   5.598
16732TIP3    H2  665   3.761   0.347   5.653
16733TIP3   OH2  666   1.920   0.276   5.958
16733TIP3    H1  667   1.826   0.301   5.949
16733TIP3    H2  668   1.962   0.331   5.890
16734TIP3   OH2  669   3.393   1.779   6.156
16734TIP3    H1  670   3.461   1.748   6.094
16734TIP3    H2  671   3.445   1.828   6.221
16735TIP3   OH2  672   1.917   0.158   6.796
16735TIP3    H1  673   1.850   0.131   6.859
16735TIP3    H2  674   1.869   0.215   6.733
16736TIP3   OH2  675   2.137   1.469   7.210
16736TIP3    H1  676   2.053   1.490   7.165
16736TIP3    H2  677   2.110   1.461   7.302
16737TIP3   OH2  678   2.426   1.569   6.833
16737TIP3    H1  679   2.394   1.656   6.807
16737TIP3    H2  680   2.520   1.578   6.805
16738TIP3   OH2  681   2.863   1.713   7.123
16738TIP3    H1  682   2.876   1.679   7.215
16738TIP3    H2  683   2.952   1.743   7.099
16739TIP3   OH2  684   3.089   1.836   7.060
16739TIP3    H1  685   3.162   1.780   7.029
16739TIP3    H2  686   3.131   1.883   7.132
16740TIP3   OH2  687   3.586   0.107   6.966
16740TIP3    H1  688   3.500   0.134   6.930
16740TIP3    H2  689   3.603   0.023   6.926
16741TIP3   OH2  690   2.170   1.894   6.834
16741TIP3    H1  691   2.096   1.943   6.794
16741TIP3    H2  692   2.138   1.874   6.923
16742TIP3   OH2  693   2.417   1.851   6.741
16742TIP3    H1  694   2.328   1.866   6.782
16742TIP3    H2  695   2.411   1.911   6.664
16743TIP3   OH2  696   2.888   1.842   6.659
16743TIP3    H1  697   2.841   1.898   6.594
16743TIP3    H2  698   2.901   1.906   6.732
16744TIP3   OH2  699   3.117   1.724   6.763
16744TIP3    H1  700   3.031   1.751   6.725
16744TIP3    H2  701   3.165   1.808   6.751
16745TIP3   OH2  702   3.375   1.882   6.785
16745TIP3    H1  703   3.369   1.977   6.761
16745TIP3    H2  704   3.396   1.844   6.697
16746TIP3   OH2  705   2.116   1.758   6.529
16746TIP3    H1  706   2.108   1.712   6.615
16746TIP3    H2  707   2.197   1.721   6.490
16747TIP3   OH2  708   2.324   1.630   6.394
16747TIP3    H1  709   2.307   1.536   6.417
16747TIP3    H2  710   2.409   1.645   6.440
16748TIP3   OH2  711   2.584   1.678   6.481
16748TIP3    H1  712   2.600   1.586   6.455
16748TIP3    H2  713   2.588   1.672   6.578
16749TIP3   OH2  714   2.927   0.246   6.397
16749TIP3    H1  715   2.864   0.177   6.424
16749TIP3    H2  716   2.986   0.194   6.341
16750TIP3   OH2  717   3.427   0.047   6.358
16750TIP3    H1  718   3.497   0.115   6.344
16750TIP3    H2  719   3.345   0.095   6.376
16751TIP3   OH2  720   3.618   0.176   6.229
16751TIP3    H1  721   3.681   0.116   6.189
16751TIP3    H2  722   3.665   0.262   6.239
16752TIP3   OH2  723   2.154   0.149   6.191
16752TIP3    H1  724   2.088   0.110   6.134
16752TIP3    H2  725   2.210   0.068   6.197
16753TIP3   OH2  726   2.043   0.095   5.745
16753TIP3    H1  727   2.092   0.161   5.695
16753TIP3    H2  728   1.984   0.145   5.804
16754TIP3   OH2  729   2.617   0.101   6.159
16754TIP3    H1  730   2.707   0.135   6.155
16754TIP3    H2  731   2.614   0.076   6.251
16755TIP3   OH2  732   3.170   0.101   6.321
16755TIP3    H1  733   3.184   0.108   6.226
16755TIP3    H2  734   3.151   0.006   6.333
16756TIP3   OH2  735   3.306   0.109   5.871
16756TIP3    H1  736   3.230   0.169   5.870
16756TIP3    H2  737   3.271   0.026   5.908
16757TIP3   OH2  738   2.035   1.676   5.852
16757TIP3    H1  739   1.968   1.676   5.782
16757TIP3    H2  740   2.037   1.771   5.870
16758TIP3   OH2  741   2.225   0.266   5.606
16758TIP3    H1  742   2.283   0.216   5.550
16758TIP3    H2  743   2.289   0.311   5.666
16759TIP3   OH2  744   2.724   0.299   5.847
16759TIP3    H1  745   2.757   0.242   5.919
16759TIP3    H2  746   2.734   0.386   5.892
16760TIP3   OH2  747   2.920   1.811   5.685
16760TIP3    H1  748   3.015   1.828   5.669
16760TIP3    H2  749   2.901   1.753   5.607
16761TIP3   OH2  750   3.593   1.757   5.960
16761TIP3    H1  751   3.572   1.680   5.902
16761TIP3    H2  752   3.584   1.831   5.896
16762TIP3   OH2  753   2.157   0.162   7.122
16762TIP3    H1  754   2.118   0.086   7.166
16762TIP3    H2  755   2.247   0.154   7.160
16763TIP3   OH2  756   2.358   0.095   7.287
16763TIP3    H1  757   2.447   0.065   7.265
16763TIP3    H2  758   2.321   0.016   7.328
16764TIP3   OH2  759   2.218   1.776   5.549
16764TIP3    H1  760   2.188   1.801   5.637
16764TIP3    H2  761   2.292   1.717   5.567
16765TIP3   OH2  762   3.201   0.031   7.305
16765TIP3    H1  763   3.206  -0.023   7.385
16765TIP3    H2  764   3.289   0.022   7.267
16766TIP3   OH2  765   3.515   1.632   7.175
16766TIP3    H1  766   3.439   1.618   7.114
16766TIP3    H2  767   3.507   1.729   7.187
16767TIP3   OH2  768   4.961   1.019   6.166
16767TIP3    H1  769   4.960   1.117   6.163
16767TIP3    H2  770   4.888   0.996   6.106
16768TIP3   OH2  771   4.846   0.945   6.517
16768TIP3    H1  772   4.845   0.880   6.588
16768TIP3    H2  773   4.812   0.895   6.441
16769TIP3   OH2  774   4.082   0.912   6.672
16769TIP3    H1  775   4.090   0.844   6.741
16769TIP3    H2  776   4.157   0.970   6.694
16770TIP3   OH2  777   5.213   1.242   6.344
16770TIP3    H1  778   5.175   1.166   6.392
16770TIP3    H2  779   5.219   1.309   6.414
16771TIP3   OH2  780   4.175   1.357   6.522
16771TIP3    H1  781   4.143   1.271   6.490
16771TIP3    H2  782   4.270   1.339   6.527
16772TIP3   OH2  783   3.838   0.713   6.070
16772TIP3    H1  784   3.795   0.800   6.064
16772TIP3    H2  785   3.782   0.660   6.014
16773TIP3   OH2  786   3.909   0.936   6.285
16773TIP3    H1  787   3.936   0.854   6.330
16773TIP3    H2  788   3.979   0.946   6.219
16774TIP3   OH2  789   4.932   1.757   6.372
16774TIP3    H1  790   4.985   1.685   6.331
16774TIP3    H2  791   4.897   1.723   6.454
16775TIP3   OH2  792   4.684   1.185   6.563
16775TIP3    H1  793   4.718   1.122   6.497
16775TIP3    H2  794   4.763   1.199   6.616
16776TIP3   OH2  795   5.547   0.345   6.637
16776TIP3    H1  796   5.561   0.408   6.712
16776TIP3    H2  797   5.598   0.392   6.570
16777TIP3   OH2  798   5.003   0.633   6.593
16777TIP3    H1  799   5.017   0.537   6.595
16777TIP3    H2  800   4.990   0.646   6.497
16778TIP3   OH2  801   4.313   0.442   6.316
16778TIP3    H1  802   4.323   0.525   6.267
16778TIP3    H2  803   4.273   0.382   6.248
16779TIP3   OH2  804   5.085   0.449   6.153
16779TIP3    H1  805   5.151   0.417   6.219
16779TIP3    H2  806   5.141   0.506   6.099
16780TIP3   OH2  807   3.975   0.685   6.391
16780TIP3    H1  808   4.041   0.628   6.435
16780TIP3    H2  809   3.984   0.652   6.300
16781TIP3   OH2  810   4.491   0.837   6.321
16781TIP3    H1  811   4.557   0.779   6.361
16781TIP3    H2  812   4.439   0.771   6.271
16782TIP3   OH2  813   5.587   0.489   6.862
16782TIP3    H1  814   5.526   0.565   6.853
16782TIP3    H2  815   5.592   0.479   6.958
16783TIP3   OH2  816   4.204   0.332   6.721
16783TIP3    H1  817   4.174   0.387   6.646
16783TIP3    H2  818   4.134   0.353   6.789
16784TIP3   OH2  819   4.933   1.280   6.076
16784TIP3    H1  820   4.905   1.250   5.988
16784TIP3    H2  821   4.900   1.372   6.079
16785TIP3   OH2  822   4.454   1.095   6.745
16785TIP3    H1  823   4.384   1.159   6.766
16785TIP3    H2  824   4.525   1.155   6.716
16786TIP3   OH2  825   5.267   0.383   6.353
16786TIP3    H1  826   5.243   0.306   6.405
16786TIP3    H2  827   5.334   0.427   6.409
16787TIP3   OH2  828   4.158   0.517   6.521
16787TIP3    H1  829   4.222   0.583   6.554
16787TIP3    H2  830   4.211   0.474   6.450
16788TIP3   OH2  831   4.299   1.295   6.826
16788TIP3    H1  832   4.294   1.386   6.792
16788TIP3    H2  833   4.211   1.287   6.871
16789TIP3   OH2  834   3.905   1.257   5.905
16789TIP3    H1  835   3.884   1.289   5.815
16789TIP3    H2  836   3.914   1.340   5.956
16790TIP3   OH2  837   5.266   1.424   6.573
16790TIP3    H1  838   5.172   1.430   6.600
16790TIP3    H2  839   5.302   1.514   6.567
16791TIP3   OH2  840   5.302   0.251   6.723
16791TIP3    H1  841   5.229   0.314   6.712
16791TIP3    H2  842   5.372   0.294   6.671
16792TIP3   OH2  843   4.596   0.068   6.446
16792TIP3    H1  844   4.593  -0.027   6.464
16792TIP3    H2  845   4.518   0.097   6.496
16793TIP3   OH2  846   5.101   1.602   6.250
16793TIP3    H1  847   5.134   1.531   6.189
16793TIP3    H2  848   5.135   1.680   6.199
16794TIP3   OH2  849   5.212   1.396   6.094
16794TIP3    H1  850   5.187   1.326   6.030
16794TIP3    H2  851   5.219   1.343   6.175
16795TIP3   OH2  852   5.377   1.254   6.942
16795TIP3    H1  853   5.392   1.189   6.869
16795TIP3    H2  854   5.399   1.338   6.899
16796TIP3   OH2  855   4.826   0.942   5.918
16796TIP3    H1  856   4.757   1.000   5.881
16796TIP3    H2  857   4.897   0.952   5.851
16797TIP3   OH2  858   4.834   0.798   5.623
16797TIP3    H1  859   4.906   0.797   5.689
16797TIP3    H2  860   4.863   0.728   5.564
16798TIP3   OH2  861   5.565   0.885   6.746
16798TIP3    H1  862   5.499   0.957   6.750
16798TIP3    H2  863   5.615   0.908   6.665
16799TIP3   OH2  864   5.172   0.966   6.011
16799TIP3    H1  865   5.096   0.989   6.071
16799TIP3    H2  866   5.218   0.897   6.062
16800TIP3   OH2  867   5.164   0.781   6.922
16800TIP3    H1  868   5.164   0.862   6.975
16800TIP3    H2  869   5.101   0.810   6.853
16801TIP3   OH2  870   4.332   1.030   6.201
16801TIP3    H1  871   4.300   0.991   6.117
16801TIP3    H2  872   4.394   0.961   6.235
16802TIP3   OH2  873   4.465   1.369   6.469
16802TIP3    H1  874   4.464   1.316   6.389
16802TIP3    H2  875   4.543   1.333   6.515
16803TIP3   OH2  876   4.365   0.905   6.567
16803TIP3    H1  877   4.421   0.915   6.488
16803TIP3    H2  878   4.403   0.971   6.629
16804TIP3   OH2  879   5.010   1.467   6.637
16804TIP3    H1  880   4.975   1.523   6.708
16804TIP3    H2  881   4.984   1.378   6.677
16805TIP3   OH2  882   4.461   1.348   7.037
16805TIP3    H1  883   4.420   1.422   7.086
16805TIP3    H2  884   4.393   1.328   6.968
16806TIP3   OH2  885   5.059   0.883   5.778
16806TIP3    H1  886   5.115   0.901   5.857
16806TIP3    H2  887   5.100   0.935   5.706
16807TIP3   OH2  888   4.154   0.963   6.956
16807TIP3    H1  889   4.158   1.031   7.026
16807TIP3    H2  890   4.061   0.974   6.930
16808TIP3   OH2  891   4.832   1.557   6.124
16808TIP3    H1  892   4.872   1.588   6.205
16808TIP3    H2  893   4.773   1.630   6.098
16809TIP3   OH2  894   4.285   1.552   7.111
16809TIP3    H1  895   4.279   1.541   7.015
16809TIP3    H2  896   4.192   1.538   7.139
16810TIP3   OH2  897   5.430   0.058   5.770
16810TIP3    H1  898   5.336   0.070   5.794
16810TIP3    H2  899   5.452   0.140   5.722
16811TIP3   OH2  900   4.228   0.933   5.965
16811TIP3    H1  901   4.201   1.010   5.911
16811TIP3    H2  902   4.164   0.866   5.939
16812TIP3   OH2  903   5.540   1.493   5.610
16812TIP3    H1  904   5.555   1.588   5.615
16812TIP3    H2  905   5.632   1.463   5.593
16813TIP3   OH2  906   3.839   1.176   6.851
16813TIP3    H1  907   3.794   1.167   6.765
16813TIP3    H2  908   3.846   1.081   6.875
16814TIP3   OH2  909   3.815   1.449   6.530
16814TIP3    H1  910   3.910   1.437   6.529
16814TIP3    H2  911   3.806   1.530   6.581
16815TIP3   OH2  912   5.641   1.518   7.105
16815TIP3    H1  913   5.625   1.423   7.094
16815TIP3    H2  914   5.551   1.544   7.137
16816TIP3   OH2  915   4.734   1.473   6.984
16816TIP3    H1  916   4.741   1.557   7.036
16816TIP3    H2  917   4.647   1.438   7.011
16817TIP3   OH2  918   4.777   1.848   5.964
16817TIP3    H1  919   4.768   1.841   5.868
16817TIP3    H2  920   4.780   1.944   5.980
16818TIP3   OH2  921   4.142   1.735   6.147
16818TIP3    H1  922   4.157   1.694   6.235
16818TIP3    H2  923   4.057   1.695   6.123
16819TIP3   OH2  924   5.079   1.766   5.660
16819TIP3    H1  925   5.129   1.693   5.619
16819TIP3    H2  926   5.088   1.742   5.755
16820TIP3   OH2  927   5.053   1.764   5.944
16820TIP3    H1  928   4.956   1.769   5.958
16820TIP3    H2  929   5.077   1.686   5.996
16821TIP3   OH2  930   5.355   0.666   7.145
16821TIP3    H1  931   5.305   0.712   7.076
16821TIP3    H2  932   5.351   0.574   7.115
16822TIP3   OH2  933   4.067   1.307   6.946
16822TIP3    H1  934   4.089   1.270   7.034
16822TIP3    H2  935   3.980   1.267   6.924
16823TIP3   OH2  936   4.335   0.152   6.544
16823TIP3    H1  937   4.245   0.149   6.504
16823TIP3    H2  938   4.325   0.236   6.592
16824TIP3   OH2  939   4.803   0.171   6.890
16824TIP3    H1  940   4.851   0.101   6.935
16824TIP3    H2  941   4.716   0.129   6.874
16825TIP3   OH2  942   5.127   0.502   6.967
16825TIP3    H1  943   5.072   0.486   7.047
16825TIP3    H2  944   5.110   0.595   6.944
16826TIP3   OH2  945   5.206   0.982   5.547
16826TIP3    H1  946   5.204   0.968   5.451
16826TIP3    H2  947   5.287   1.032   5.563
16827TIP3   OH2  948   4.766   0.374   5.616
16827TIP3    H1  949   4.730   0.373   5.706
16827TIP3    H2  950   4.733   0.289   5.585
16828TIP3   OH2  951   4.345   0.651   6.667
16828TIP3    H1  952   4.272   0.650   6.731
16828TIP3    H2  953   4.340   0.742   6.630
16829TIP3   OH2  954   4.341   0.664   6.153
16829TIP3    H1  955   4.248   0.639   6.140
16829TIP3    H2  956   4.379   0.634   6.068
16830TIP3   OH2  957   4.893   0.714   6.030
16830TIP3    H1  958   4.852   0.796   5.995
16830TIP3    H2  959   4.962   0.697   5.963
16831TIP3   OH2  960   4.799   0.734   7.176
16831TIP3    H1  961   4.747   0.656   7.207
16831TIP3    H2  962   4.882   0.722   7.228
16832TIP3   OH2  963   4.996   0.662   6.315
16832TIP3    H1  964   4.969   0.719   6.241
16832TIP3    H2  965   5.006   0.577   6.268
16833TIP3   OH2  966   4.107   0.677   6.836
16833TIP3    H1  967   4.115   0.718   6.924
16833TIP3    H2  968   4.063   0.594   6.856
16834TIP3   OH2  969   4.445   0.412   5.519
16834TIP3    H1  970   4.400   0.373   5.595
16834TIP3    H2  971   4.376   0.458   5.470
16835TIP3   OH2  972   3.773   0.391   6.232
16835TIP3    H1  973   3.840   0.386   6.303
16835TIP3    H2  974   3.819   0.353   6.156
16836TIP3   OH2  975   3.902   0.461   5.776
16836TIP3    H1  976   3.950   0.519   5.713
16836TIP3    H2  977   3.832   0.523   5.805
16837TIP3   OH2  978   4.916   0.821   6.771
16837TIP3    H1  979   4.954   0.753   6.712
16837TIP3    H2  980   4.870   0.768   6.838
16838TIP3   OH2  981   4.597   0.419   6.254
16838TIP3    H1  982   4.504   0.419   6.284
16838TIP3    H2  983   4.645   0.401   6.336
16839TIP3   OH2  984   4.078   0.573   6.140
16839TIP3    H1  985   3.989   0.589   6.102
16839TIP3    H2  986   4.106   0.489   6.101
16840TIP3   OH2  987   4.442   0.577   5.904
16840TIP3    H1  988   4.537   0.589   5.920
16840TIP3    H2  989   4.418   0.644   5.837
16841TIP3   OH2  990   5.038   0.336   6.578
16841TIP3    H1  991   4.969   0.346   6.647
16841TIP3    H2  992   4.986   0.315   6.499
16842TIP3   OH2  993   4.314   0.697   5.666
16842TIP3    H1  994   4.258   0.661   5.595
16842TIP3    H2  995   4.394   0.718   5.616
16843TIP3   OH2  996   5.359   1.904   7.210
16843TIP3    H1  997   5.384   1.946   7.126
16843TIP3    H2  998   5.428   1.939   7.269
16844TIP3   OH2  999   4.125   1.153   7.166
16844TIP3    H1 1000   4.196   1.178   7.229
16844TIP3    H2 1001   4.048   1.163   7.227
16845TIP3   OH2 1002   4.725   0.694   6.443
16845TIP3    H1 1003   4.784   0.641   6.390
16845TIP3    H2 1004   4.710   0.639   6.522
16846TIP3   OH2 1005   4.229   0.308   6.088
16846TIP3    H1 1006   4.196   0.217   6.086
16846TIP3    H2 1007   4.306   0.303   6.030
16847TIP3   OH2 1008   4.588   0.524   6.686
16847TIP3    H1 1009   4.506   0.577   6.694
16847TIP3    H2 1010   4.645   0.561   6.757
16848TIP3   OH2 1011   4.648   1.150   5.853
16848TIP3    H1 1012   4.568   1.102   5.822
16848TIP3    H2 1013   4.626   1.161   5.948
16849TIP3   OH2 1014   5.366   1.069   6.735
16849TIP3    H1 1015   5.423   1.117   6.672
16849TIP3    H2 1016   5.280   1.074   6.688
16850TIP3   OH2 1017   5.032   0.429   5.673
16850TIP3    H1 1018   4.938   0.445   5.655
16850TIP3    H2 1019   5.064   0.516   5.703
16851TIP3   OH2 1020   4.796   1.175   6.977
16851TIP3    H1 1021   4.763   1.133   7.057
16851TIP3    H2 1022   4.772   1.267   6.989
16852TIP3   OH2 1023   5.104   0.623   5.839
16852TIP3    H1 1024   5.193   0.609   5.877
16852TIP3    H2 1025   5.114   0.704   5.787
16853TIP3   OH2 1026   4.159   1.089   6.435
16853TIP3    H1 1027   4.227   1.081   6.366
16853TIP3    H2 1028   4.164   1.002   6.480
16854TIP3   OH2 1029   4.856   1.297   5.760
16854TIP3    H1 1030   4.822   1.381   5.796
16854TIP3    H2 1031   4.783   1.235   5.781
16855TIP3   OH2 1032   3.858   0.929   6.961
16855TIP3    H1 1033   3.875   0.885   7.046
16855TIP3    H2 1034   3.796   0.868   6.917
16856TIP3   OH2 1035   4.559   0.885   7.179
16856TIP3    H1 1036   4.527   0.855   7.092
16856TIP3    H2 1037   4.651   0.853   7.180
16857TIP3   OH2 1038   5.027   1.422   6.971
16857TIP3    H1 1039   4.933   1.435   6.952
16857TIP3    H2 1040   5.025   1.448   7.065
16858TIP3   OH2 1041   5.594   0.637   5.814
16858TIP3    H1 1042   5.537   0.607   5.740
16858TIP3    H2 1043   5.601   0.731   5.786
16859TIP3   OH2 1044   5.592   1.223   7.094
16859TIP3    H1 1045   5.503   1.244   7.058
16859TIP3    H2 1046   5.646   1.217   7.012
16860TIP3   OH2 1047   5.424   1.520   5.854
16860TIP3    H1 1048   5.387   1.437   5.886
16860TIP3    H2 1049   5.454   1.501   5.762
16861TIP3   OH2 1050   5.144   1.001   6.563
16861TIP3    H1 1051   5.050   0.980   6.552
16861TIP3    H2 1052   5.187   0.925   6.520
16862TIP3   OH2 1053   4.396   1.434   6.173
16862TIP3    H1 1054   4.445   1.515   6.152
16862TIP3    H2 1055   4.308   1.457   6.140
16863TIP3   OH2 1056   3.969   0.919   5.624
16863TIP3    H1 1057   4.031   0.981   5.666
16863TIP3    H2 1058   3.884   0.948   5.660
16864TIP3   OH2 1059   4.537   1.201   6.124
16864TIP3    H1 1060   4.506   1.293   6.134
16864TIP3    H2 1061   4.466   1.152   6.169
16865TIP3   OH2 1062   4.582   1.618   6.765
16865TIP3    H1 1063   4.626   1.701   6.739
16865TIP3    H2 1064   4.642   1.585   6.835
16866TIP3   OH2 1065   4.406   1.700   6.081
16866TIP3    H1 1066   4.310   1.714   6.091
16866TIP3    H2 1067   4.441   1.785   6.113
16867TIP3   OH2 1068   4.939   1.223   6.727
16867TIP3    H1 1069   4.902   1.201   6.816
16867TIP3    H2 1070   4.998   1.148   6.711
16868TIP3   OH2 1071   5.164   1.324   5.638
16868TIP3    H1 1072   5.197   1.279   5.718
16868TIP3    H2 1073   5.069   1.307   5.647
16869TIP3   OH2 1074   5.217   1.677   6.977
16869TIP3    H1 1075   5.147   1.627   6.931
16869TIP3    H2 1076   5.235   1.748   6.912
16870TIP3   OH2 1077   5.614   1.765   5.659
16870TIP3    H1 1078   5.686   1.827   5.641
16870TIP3    H2 1079   5.543   1.825   5.691
16871TIP3   OH2 1080   4.022   0.398   6.916
16871TIP3    H1 1081   3.933   0.435   6.914
16871TIP3    H2 1082   4.009   0.314   6.962
16872TIP3   OH2 1083   5.246   1.189   5.862
16872TIP3    H1 1084   5.222   1.110   5.915
16872TIP3    H2 1085   5.342   1.194   5.880
16873TIP3   OH2 1086   3.984   1.581   6.759
16873TIP3    H1 1087   4.014   1.489   6.759
16873TIP3    H2 1088   4.010   1.610   6.847
16874TIP3   OH2 1089   4.581   1.430   5.483
16874TIP3    H1 1090   4.595   1.354   5.428
16874TIP3    H2 1091   4.537   1.393   5.563
16875TIP3   OH2 1092   4.460   1.387   5.730
16875TIP3    H1 1093   4.484   1.335   5.808
16875TIP3    H2 1094   4.467   1.480   5.761
16876TIP3   OH2 1095   4.110   1.112   5.777
16876TIP3    H1 1096   4.042   1.152   5.835
16876TIP3    H2 1097   4.164   1.189   5.752
16877TIP3   OH2 1098   4.900   0.390   6.808
16877TIP3    H1 1099   4.968   0.388   6.876
16877TIP3    H2 1100   4.859   0.301   6.824
16878TIP3   OH2 1101   4.973   0.335   5.922
16878TIP3    H1 1102   4.993   0.385   5.840
16878TIP3    H2 1103   5.028   0.381   5.987
16879TIP3   OH2 1104   4.739   1.553   5.799
16879TIP3    H1 1105   4.657   1.605   5.809
16879TIP3    H2 1106   4.791   1.607   5.738
16880TIP3   OH2 1107   4.693   0.511   6.003
16880TIP3    H1 1108   4.771   0.569   6.006
16880TIP3    H2 1109   4.667   0.501   6.096
16881TIP3   OH2 1110   4.747   0.611   6.920
16881TIP3    H1 1111   4.756   0.669   6.999
16881TIP3    H2 1112   4.813   0.542   6.932
16882TIP3   OH2 1113   4.781   0.217   6.094
16882TIP3    H1 1114   4.746   0.284   6.156
16882TIP3    H2 1115   4.847   0.273   6.046
16883TIP3   OH2 1116   4.477   1.657   5.806
16883TIP3    H1 1117   4.491   1.738   5.753
16883TIP3    H2 1118   4.451   1.693   5.893
16884TIP3   OH2 1119   4.342   0.328   5.763
16884TIP3    H1 1120   4.338   0.419   5.798
16884TIP3    H2 1121   4.433   0.305   5.789
16885TIP3   OH2 1122   5.365   0.400   7.006
16885TIP3    H1 1123   5.273   0.434   6.992
16885TIP3    H2 1124   5.396   0.399   6.914
16886TIP3   OH2 1125   5.228   0.780   6.407
16886TIP3    H1 1126   5.145   0.736   6.379
16886TIP3    H2 1127   5.275   0.711   6.459
16887TIP3   OH2 1128   4.170   1.371   5.668
16887TIP3    H1 1129   4.234   1.437   5.697
16887TIP3    H2 1130   4.219   1.326   5.597
16888TIP3   OH2 1131   4.005   0.639   5.585
16888TIP3    H1 1132   4.004   0.736   5.597
16888TIP3    H2 1133   3.918   0.620   5.548
16889TIP3   OH2 1134   5.330   1.704   6.567
16889TIP3    H1 1135   5.330   1.781   6.505
16889TIP3    H2 1136   5.426   1.710   6.593
16890TIP3   OH2 1137   4.080   0.132   6.452
16890TIP3    H1 1138   4.059   0.130   6.357
16890TIP3    H2 1139   4.048   0.044   6.479
16891TIP3   OH2 1140   3.979   1.510   6.068
16891TIP3    H1 1141   3.894   1.555   6.065
16891TIP3    H2 1142   4.027   1.557   5.999
16892TIP3   OH2 1143   3.901   1.775   7.199
16892TIP3    H1 1144   3.962   1.754   7.271
16892TIP3    H2 1145   3.859   1.690   7.179
16893TIP3   OH2 1146   4.364   1.668   7.356
16893TIP3    H1 1147   4.440   1.619   7.392
16893TIP3    H2 1148   4.363   1.639   7.263
16894TIP3   OH2 1149   4.780   1.618   5.499
16894TIP3    H1 1150   4.708   1.554   5.519
16894TIP3    H2 1151   4.852   1.560   5.475
16895TIP3   OH2 1152   5.020   1.505   7.232
16895TIP3    H1 1153   4.987   1.417   7.261
16895TIP3    H2 1154   5.096   1.518   7.292
16896TIP3   OH2 1155   5.237   1.596   5.519
16896TIP3    H1 1156   5.263   1.514   5.565
16896TIP3    H2 1157   5.314   1.616   5.465
16897TIP3   OH2 1158   3.890   1.152   7.295
16897TIP3    H1 1159   3.908   1.062   7.264
16897TIP3    H2 1160   3.817   1.180   7.238
16898TIP3   OH2 1161   4.328   1.187   5.502
16898TIP3    H1 1162   4.339   1.110   5.560
16898TIP3    H2 1163   4.394   1.173   5.434
16899TIP3   OH2 1164   4.565   1.151   7.236
16899TIP3    H1 1165   4.529   1.183   7.151
16899TIP3    H2 1166   4.569   1.054   7.226
16900TIP3   OH2 1167   4.862   1.295   5.478
16900TIP3    H1 1168   4.840   1.309   5.572
16900TIP3    H2 1169   4.846   1.201   5.467
16901TIP3   OH2 1170   5.132   1.138   6.975
16901TIP3    H1 1171   5.211   1.197   6.968
16901TIP3    H2 1172   5.062   1.204   6.978
16902TIP3   OH2 1173   3.982   0.875   7.236
16902TIP3    H1 1174   4.024   0.788   7.225
16902TIP3    H2 1175   3.955   0.874   7.328
16903TIP3   OH2 1176   4.447   0.989   5.742
16903TIP3    H1 1177   4.396   0.936   5.804
16903TIP3    H2 1178   4.476   0.921   5.676
16904TIP3   OH2 1179   4.373   0.770   6.971
16904TIP3    H1 1180   4.313   0.842   6.997
16904TIP3    H2 1181   4.412   0.807   6.890
16905TIP3   OH2 1182   4.554   0.819   5.562
16905TIP3    H1 1183   4.540   0.794   5.469
16905TIP3    H2 1184   4.652   0.817   5.572
16906TIP3   OH2 1185   4.879   1.027   7.302
16906TIP3    H1 1186   4.975   1.024   7.294
16906TIP3    H2 1187   4.863   0.952   7.361
16907TIP3   OH2 1188   5.495   1.044   5.502
16907TIP3    H1 1189   5.456   1.008   5.423
16907TIP3    H2 1190   5.495   1.140   5.485
16908TIP3   OH2 1191   4.414   0.507   7.076
16908TIP3    H1 1192   4.426   0.437   7.012
16908TIP3    H2 1193   4.409   0.588   7.022
16909TIP3   OH2 1194   4.454   0.345   6.831
16909TIP3    H1 1195   4.505   0.393   6.761
16909TIP3    H2 1196   4.364   0.336   6.790
16910TIP3   OH2 1197   4.607   0.894   6.856
16910TIP3    H1 1198   4.683   0.878   6.799
16910TIP3    H2 1199   4.571   0.978   6.823
16911TIP3   OH2 1200   5.045   0.669   7.346
16911TIP3    H1 1201   5.070   0.576   7.346
16911TIP3    H2 1202   5.129   0.714   7.357
16912TIP3   OH2 1203   5.179   0.948   7.164
16912TIP3    H1 1204   5.156   1.024   7.106
16912TIP3    H2 1205   5.276   0.947   7.150
16913TIP3   OH2 1206   4.259   0.632   7.268
16913TIP3    H1 1207   4.181   0.573   7.254
16913TIP3    H2 1208   4.324   0.593   7.206
16914TIP3   OH2 1209   4.523   0.093   6.869
16914TIP3    H1 1210   4.514   0.191   6.859
16914TIP3    H2 1211   4.448   0.061   6.821
16915TIP3   OH2 1212   4.660   0.521   7.229
16915TIP3    H1 1213   4.631   0.499   7.321
16915TIP3    H2 1214   4.578   0.503   7.179
16916TIP3   OH2 1215   4.930   0.438   7.142
16916TIP3    H1 1216   4.834   0.441   7.154
16916TIP3    H2 1217   4.958   0.374   7.210
16917TIP3   OH2 1218   5.085   0.300   7.331
16917TIP3    H1 1219   5.085   0.204   7.333
16917TIP3    H2 1220   5.060   0.334   7.421
16918TIP3   OH2 1221   4.069   0.425   7.242
16918TIP3    H1 1222   4.093   0.350   7.184
16918TIP3    H2 1223   4.061   0.380   7.329
16919TIP3   OH2 1224   4.561   0.069   7.126
16919TIP3    H1 1225   4.624  -0.007   7.130
16919TIP3    H2 1226   4.539   0.059   7.031
16920TIP3   OH2 1227   4.590   0.189   7.356
16920TIP3    H1 1228   4.574   0.144   7.270
16920TIP3    H2 1229   4.533   0.268   7.346
16921TIP3   OH2 1230   4.538   1.885   5.670
16921TIP3    H1 1231   4.635   1.890   5.674
16921TIP3    H2 1232   4.519   1.944   5.597
16922TIP3   OH2 1233   3.896   1.341   5.618
16922TIP3    H1 1234   3.992   1.350   5.640
16922TIP3    H2 1235   3.901   1.280   5.543
16923TIP3   OH2 1236   3.769   1.878   6.114
16923TIP3    H1 1237   3.698   1.829   6.066
16923TIP3    H2 1238   3.798   1.812   6.179
16924TIP3   OH2 1239   3.852   1.691   6.300
16924TIP3    H1 1240   3.817   1.603   6.320
16924TIP3    H2 1241   3.875   1.724   6.389
16925TIP3   OH2 1242   5.603   1.772   6.594
16925TIP3    H1 1243   5.610   1.787   6.690
16925TIP3    H2 1244   5.676   1.827   6.563
16926TIP3   OH2 1245   5.564   1.730   6.889
16926TIP3    H1 1246   5.518   1.653   6.851
16926TIP3    H2 1247   5.614   1.686   6.959
16927TIP3   OH2 1248   5.409   1.301   7.357
16927TIP3    H1 1249   5.318   1.296   7.394
16927TIP3    H2 1250   5.441   1.383   7.397
16928TIP3   OH2 1251   5.540   1.134   5.898
16928TIP3    H1 1252   5.626   1.175   5.917
16928TIP3    H2 1253   5.538   1.063   5.965
16929TIP3   OH2 1254   5.576   0.943   6.087
16929TIP3    H1 1255   5.501   0.892   6.125
16929TIP3    H2 1256   5.635   0.956   6.164
16930TIP3   OH2 1257   5.551   1.212   6.586
16930TIP3    H1 1258   5.633   1.174   6.548
16930TIP3    H2 1259   5.568   1.307   6.569
16931TIP3   OH2 1260   5.406   1.505   6.811
16931TIP3    H1 1261   5.339   1.536   6.874
16931TIP3    H2 1262   5.352   1.460   6.744
16932TIP3   OH2 1263   5.607   0.927   5.722
16932TIP3    H1 1264   5.547   0.963   5.653
16932TIP3    H2 1265   5.597   0.995   5.791
16933TIP3   OH2 1266   5.442   0.647   5.582
16933TIP3    H1 1267   5.448   0.713   5.513
16933TIP3    H2 1268   5.423   0.564   5.532
16934TIP3   OH2 1269   5.358   0.790   6.144
16934TIP3    H1 1270   5.343   0.695   6.140
16934TIP3    H2 1271   5.324   0.812   6.233
16935TIP3   OH2 1272   3.858   0.999   6.550
16935TIP3    H1 1273   3.876   0.990   6.454
16935TIP3    H2 1274   3.947   0.981   6.585
16936TIP3   OH2 1275   5.442   0.986   7.110
16936TIP3    H1 1276   5.504   0.912   7.125
16936TIP3    H2 1277   5.502   1.064   7.112
16937TIP3   OH2 1278   5.593   0.776   7.177
16937TIP3    H1 1279   5.505   0.735   7.162
16937TIP3    H2 1280   5.651   0.698   7.169
16938TIP3   OH2 1281   5.363   0.399   5.497
16938TIP3    H1 1282   5.426   0.351   5.554
16938TIP3    H2 1283   5.280   0.350   5.508
16939TIP3   OH2 1284   5.324   0.548   5.991
16939TIP3    H1 1285   5.354   0.455   6.003
16939TIP3    H2 1286   5.403   0.588   5.952
16940TIP3   OH2 1287   5.389   0.602   6.534
16940TIP3    H1 1288   5.484   0.627   6.533
16940TIP3    H2 1289   5.369   0.617   6.628
16941TIP3   OH2 1290   5.394   0.676   6.811
16941TIP3    H1 1291   5.306   0.704   6.845
16941TIP3    H2 1292   5.438   0.762   6.790
16942TIP3   OH2 1293   3.821   0.530   7.167
16942TIP3    H1 1294   3.914   0.504   7.185
16942TIP3    H2 1295   3.774   0.448   7.193
16943TIP3   OH2 1296   5.630   0.082   7.355
16943TIP3    H1 1297   5.651   0.016   7.286
16943TIP3    H2 1298   5.628   0.161   7.297
16944TIP3   OH2 1299   5.390   0.274   5.994
16944TIP3    H1 1300   5.408   0.231   6.080
16944TIP3    H2 1301   5.327   0.213   5.950
16945TIP3   OH2 1302   3.937   0.357   6.449
16945TIP3    H1 1303   3.987   0.277   6.475
16945TIP3    H2 1304   3.993   0.426   6.488
16946TIP3   OH2 1305   3.768   0.658   6.554
16946TIP3    H1 1306   3.824   0.633   6.478
16946TIP3    H2 1307   3.814   0.738   6.581
16947TIP3   OH2 1308   5.575   0.289   7.181
16947TIP3    H1 1309   5.481   0.314   7.176
16947TIP3    H2 1310   5.579   0.230   7.103
16948TIP3   OH2 1311   5.575   0.283   5.648
16948TIP3    H1 1312   5.616   0.209   5.600
16948TIP3    H2 1313   5.647   0.348   5.653
16949TIP3   OH2 1314   3.805   0.273   5.956
16949TIP3    H1 1315   3.712   0.302   5.950
16949TIP3    H2 1316   3.847   0.332   5.891
16950TIP3   OH2 1317   5.279   1.777   6.158
16950TIP3    H1 1318   5.346   1.749   6.093
16950TIP3    H2 1319   5.332   1.831   6.218
16951TIP3   OH2 1320   3.801   0.153   6.793
16951TIP3    H1 1321   3.736   0.133   6.861
16951TIP3    H2 1322   3.756   0.217   6.735
16952TIP3   OH2 1323   4.023   1.471   7.209
16952TIP3    H1 1324   3.939   1.491   7.165
16952TIP3    H2 1325   3.998   1.461   7.301
16953TIP3   OH2 1326   4.313   1.569   6.835
16953TIP3    H1 1327   4.279   1.656   6.808
16953TIP3    H2 1328   4.406   1.578   6.804
16954TIP3   OH2 1329   4.746   1.712   7.125
16954TIP3    H1 1330   4.761   1.678   7.217
16954TIP3    H2 1331   4.836   1.742   7.101
16955TIP3   OH2 1332   4.975   1.840   7.056
16955TIP3    H1 1333   5.047   1.779   7.035
16955TIP3    H2 1334   5.012   1.882   7.137
16956TIP3   OH2 1335   5.471   0.107   6.966
16956TIP3    H1 1336   5.386   0.134   6.930
16956TIP3    H2 1337   5.489   0.024   6.926
16957TIP3   OH2 1338   4.056   1.895   6.835
16957TIP3    H1 1339   3.982   1.943   6.795
16957TIP3    H2 1340   4.025   1.875   6.925
16958TIP3   OH2 1341   4.303   1.851   6.742
16958TIP3    H1 1342   4.214   1.866   6.781
16958TIP3    H2 1343   4.297   1.910   6.664
16959TIP3   OH2 1344   4.777   1.843   6.656
16959TIP3    H1 1345   4.725   1.898   6.595
16959TIP3    H2 1346   4.786   1.905   6.732
16960TIP3   OH2 1347   5.006   1.722   6.747
16960TIP3    H1 1348   4.915   1.752   6.729
16960TIP3    H2 1349   5.049   1.810   6.756
16961TIP3   OH2 1350   5.258   1.880   6.782
16961TIP3    H1 1351   5.255   1.977   6.763
16961TIP3    H2 1352   5.285   1.847   6.696
16962TIP3   OH2 1353   4.001   1.759   6.529
16962TIP3    H1 1354   3.994   1.712   6.615
16962TIP3    H2 1355   4.083   1.721   6.490
16963TIP3   OH2 1356   4.209   1.630   6.394
16963TIP3    H1 1357   4.193   1.536   6.417
16963TIP3    H2 1358   4.295   1.645   6.440
16964TIP3   OH2 1359   4.470   1.678   6.482
16964TIP3    H1 1360   4.485   1.585   6.455
16964TIP3    H2 1361   4.474   1.672   6.578
16965TIP3   OH2 1362   4.813   0.246   6.397
16965TIP3    H1 1363   4.749   0.177   6.424
16965TIP3    H2 1364   4.872   0.194   6.341
16966TIP3   OH2 1365   5.313   0.048   6.359
16966TIP3    H1 1366   5.383   0.114   6.342
16966TIP3    H2 1367   5.231   0.097   6.376
16967TIP3   OH2 1368   5.502   0.177   6.230
16967TIP3    H1 1369   5.563   0.114   6.189
16967TIP3    H2 1370   5.552   0.261   6.238
16968TIP3   OH2 1371   4.042   0.146   6.190
16968TIP3    H1 1372   3.974   0.110   6.133
16968TIP3    H2 1373   4.097   0.066   6.197
16969TIP3   OH2 1374   3.928   0.095   5.749
16969TIP3    H1 1375   3.979   0.157   5.695
16969TIP3    H2 1376   3.869   0.151   5.803
16970TIP3   OH2 1377   4.502   0.101   6.159
16970TIP3    H1 1378   4.593   0.135   6.155
16970TIP3    H2 1379   4.499   0.076   6.252
16971TIP3   OH2 1380   5.056   0.101   6.321
16971TIP3    H1 1381   5.069   0.108   6.226
16971TIP3    H2 1382   5.037   0.006   6.333
16972TIP3   OH2 1383   5.190   0.110   5.869
16972TIP3    H1 1384   5.114   0.169   5.871
16972TIP3    H2 1385   5.159   0.027   5.909
16973TIP3   OH2 1386   3.921   1.676   5.852
16973TIP3    H1 1387   3.853   1.676   5.782
16973TIP3    H2 1388   3.923   1.771   5.870
16974TIP3   OH2 1389   4.110   0.268   5.606
16974TIP3    H1 1390   4.167   0.213   5.551
16974TIP3    H2 1391   4.176   0.309   5.665
16975TIP3   OH2 1392   4.609   0.300   5.847
16975TIP3    H1 1393   4.642   0.243   5.919
16975TIP3    H2 1394   4.620   0.386   5.892
16976TIP3   OH2 1395   4.806   1.811   5.685
16976TIP3    H1 1396   4.900   1.828   5.668
16976TIP3    H2 1397   4.787   1.753   5.608
16977TIP3   OH2 1398   5.478   1.758   5.960
16977TIP3    H1 1399   5.457   1.680   5.902
16977TIP3    H2 1400   5.469   1.831   5.896
16978TIP3   OH2 1401   4.041   0.162   7.128
16978TIP3    H1 1402   4.004   0.081   7.166
16978TIP3    H2 1403   4.132   0.156   7.161
16979TIP3   OH2 1404   4.246   0.096   7.288
16979TIP3    H1 1405   4.333   0.064   7.261
16979TIP3    H2 1406   4.206   0.016   7.324
16980TIP3   OH2 1407   4.103   1.776   5.549
16980TIP3    H1 1408   4.074   1.801   5.637
16980TIP3    H2 1409   4.177   1.717   5.567
16981TIP3   OH2 1410   5.404   1.632   7.172
16981TIP3    H1 1411   5.323   1.616   7.117
16981TIP3    H2 1412   5.390   1.727   7.190
16982TIP3   OH2 1413   6.846   1.019   6.166
16982TIP3    H1 1414   6.846   1.117   6.162
16982TIP3    H2 1415   6.774   0.996   6.106
16983TIP3   OH2 1416   6.732   0.945   6.517
16983TIP3    H1 1417   6.730   0.880   6.588
16983TIP3    H2 1418   6.697   0.896   6.441
16984TIP3   OH2 1419   5.967   0.912   6.672
16984TIP3    H1 1420   5.976   0.844   6.741
16984TIP3    H2 1421   6.042   0.970   6.694
16985TIP3   OH2 1422   7.101   1.240   6.344
16985TIP3    H1 1423   7.059   1.168   6.393
16985TIP3    H2 1424   7.103   1.311   6.411
16986TIP3   OH2 1425   6.060   1.357   6.522
16986TIP3    H1 1426   6.029   1.271   6.490
16986TIP3    H2 1427   6.156   1.339   6.526
16987TIP3   OH2 1428   5.724   0.713   6.070
16987TIP3    H1 1429   5.680   0.800   6.064
16987TIP3    H2 1430   5.668   0.659   6.014
16988TIP3   OH2 1431   5.795   0.936   6.285
16988TIP3    H1 1432   5.822   0.854   6.330
16988TIP3    H2 1433   5.865   0.946   6.219
16989TIP3   OH2 1434   6.813   1.756   6.368
16989TIP3    H1 1435   6.878   1.686   6.340
16989TIP3    H2 1436   6.792   1.723   6.456
16990TIP3   OH2 1437   6.569   1.186   6.563
16990TIP3    H1 1438   6.603   1.122   6.497
16990TIP3    H2 1439   6.650   1.201   6.615
16991TIP3   OH2 1440   7.430   0.346   6.633
16991TIP3    H1 1441   7.444   0.404   6.712
16991TIP3    H2 1442   7.487   0.393   6.571
16992TIP3   OH2 1443   6.891   0.631   6.592
16992TIP3    H1 1444   6.902   0.535   6.595
16992TIP3    H2 1445   6.875   0.647   6.497
16993TIP3   OH2 1446   6.199   0.441   6.316
16993TIP3    H1 1447   6.208   0.525   6.267
16993TIP3    H2 1448   6.158   0.382   6.249
16994TIP3   OH2 1449   6.978   0.435   6.150
16994TIP3    H1 1450   7.037   0.427   6.227
16994TIP3    H2 1451   7.021   0.508   6.099
16995TIP3   OH2 1452   5.860   0.685   6.390
16995TIP3    H1 1453   5.927   0.628   6.435
16995TIP3    H2 1454   5.870   0.651   6.299
16996TIP3   OH2 1455   6.376   0.837   6.321
16996TIP3    H1 1456   6.443   0.779   6.361
16996TIP3    H2 1457   6.324   0.771   6.271
16997TIP3   OH2 1458   7.476   0.492   6.862
16997TIP3    H1 1459   7.410   0.564   6.851
16997TIP3    H2 1460   7.476   0.478   6.958
16998TIP3   OH2 1461   6.090   0.333   6.721
16998TIP3    H1 1462   6.059   0.387   6.646
16998TIP3    H2 1463   6.019   0.353   6.789
16999TIP3   OH2 1464   6.818   1.279   6.075
16999TIP3    H1 1465   6.790   1.250   5.986
16999TIP3    H2 1466   6.787   1.372   6.080
17000TIP3   OH2 1467   6.341   1.096   6.748
17000TIP3    H1 1468   6.269   1.160   6.764
17000TIP3    H2 1469   6.411   1.154   6.715
17001TIP3   OH2 1470   7.139   0.387   6.371
17001TIP3    H1 1471   7.122   0.307   6.424
17001TIP3    H2 1472   7.202   0.434   6.429
17002TIP3   OH2 1473   6.044   0.516   6.521
17002TIP3    H1 1474   6.108   0.583   6.554
17002TIP3    H2 1475   6.097   0.474   6.450
17003TIP3   OH2 1476   6.185   1.296   6.830
17003TIP3    H1 1477   6.179   1.385   6.790
17003TIP3    H2 1478   6.094   1.287   6.868
17004TIP3   OH2 1479   5.791   1.257   5.905
17004TIP3    H1 1480   5.770   1.289   5.815
17004TIP3    H2 1481   5.799   1.340   5.956
17005TIP3   OH2 1482   7.154   1.423   6.581
17005TIP3    H1 1483   7.057   1.434   6.594
17005TIP3    H2 1484   7.181   1.515   6.561
17006TIP3   OH2 1485   7.187   0.250   6.719
17006TIP3    H1 1486   7.115   0.315   6.716
17006TIP3    H2 1487   7.260   0.296   6.674
17007TIP3   OH2 1488   6.483   0.068   6.445
17007TIP3    H1 1489   6.478  -0.027   6.464
17007TIP3    H2 1490   6.404   0.096   6.496
17008TIP3   OH2 1491   6.980   1.602   6.240
17008TIP3    H1 1492   7.023   1.530   6.190
17008TIP3    H2 1493   7.022   1.681   6.201
17009TIP3   OH2 1494   7.100   1.395   6.092
17009TIP3    H1 1495   7.072   1.325   6.030
17009TIP3    H2 1496   7.104   1.345   6.176
17010TIP3   OH2 1497   7.262   1.254   6.941
17010TIP3    H1 1498   7.277   1.189   6.869
17010TIP3    H2 1499   7.283   1.339   6.898
17011TIP3   OH2 1500   6.712   0.941   5.918
17011TIP3    H1 1501   6.643   0.999   5.882
17011TIP3    H2 1502   6.783   0.952   5.851
17012TIP3   OH2 1503   6.719   0.798   5.623
17012TIP3    H1 1504   6.791   0.798   5.689
17012TIP3    H2 1505   6.748   0.728   5.564
17013TIP3   OH2 1506   7.453   0.884   6.744
17013TIP3    H1 1507   7.385   0.955   6.752
17013TIP3    H2 1508   7.498   0.913   6.663
17014TIP3   OH2 1509   7.056   0.965   6.011
17014TIP3    H1 1510   6.982   0.989   6.071
17014TIP3    H2 1511   7.104   0.897   6.062
17015TIP3   OH2 1512   7.050   0.781   6.922
17015TIP3    H1 1513   7.050   0.862   6.975
17015TIP3    H2 1514   6.987   0.810   6.853
17016TIP3   OH2 1515   6.218   1.030   6.201
17016TIP3    H1 1516   6.186   0.991   6.117
17016TIP3    H2 1517   6.279   0.961   6.235
17017TIP3   OH2 1518   6.350   1.369   6.470
17017TIP3    H1 1519   6.349   1.316   6.389
17017TIP3    H2 1520   6.428   1.333   6.515
17018TIP3   OH2 1521   6.251   0.905   6.568
17018TIP3    H1 1522   6.306   0.915   6.488
17018TIP3    H2 1523   6.290   0.971   6.629
17019TIP3   OH2 1524   6.893   1.462   6.640
17019TIP3    H1 1525   6.862   1.526   6.704
17019TIP3    H2 1526   6.866   1.376   6.680
17020TIP3   OH2 1527   6.334   1.340   7.049
17020TIP3    H1 1528   6.310   1.431   7.076
17020TIP3    H2 1529   6.281   1.329   6.965
17021TIP3   OH2 1530   6.945   0.883   5.777
17021TIP3    H1 1531   7.000   0.901   5.857
17021TIP3    H2 1532   6.987   0.935   5.706
17022TIP3   OH2 1533   6.041   0.966   6.954
17022TIP3    H1 1534   6.043   1.031   7.025
17022TIP3    H2 1535   5.947   0.972   6.930
17023TIP3   OH2 1536   6.716   1.557   6.124
17023TIP3    H1 1537   6.759   1.587   6.204
17023TIP3    H2 1538   6.660   1.631   6.100
17024TIP3   OH2 1539   6.169   1.537   7.116
17024TIP3    H1 1540   6.166   1.545   7.018
17024TIP3    H2 1541   6.073   1.546   7.135
17025TIP3   OH2 1542   7.316   0.062   5.780
17025TIP3    H1 1543   7.219   0.069   5.786
17025TIP3    H2 1544   7.339   0.136   5.719
17026TIP3   OH2 1545   6.114   0.933   5.965
17026TIP3    H1 1546   6.087   1.010   5.911
17026TIP3    H2 1547   6.050   0.866   5.940
17027TIP3   OH2 1548   7.426   1.492   5.610
17027TIP3    H1 1549   7.440   1.588   5.614
17027TIP3    H2 1550   7.517   1.463   5.593
17028TIP3   OH2 1551   5.724   1.176   6.851
17028TIP3    H1 1552   5.679   1.167   6.765
17028TIP3    H2 1553   5.732   1.081   6.875
17029TIP3   OH2 1554   5.701   1.449   6.531
17029TIP3    H1 1555   5.797   1.437   6.527
17029TIP3    H2 1556   5.694   1.530   6.582
17030TIP3   OH2 1557   7.524   1.519   7.093
17030TIP3    H1 1558   7.513   1.423   7.099
17030TIP3    H2 1559   7.440   1.545   7.139
17031TIP3   OH2 1560   6.621   1.473   6.988
17031TIP3    H1 1561   6.626   1.558   7.037
17031TIP3    H2 1562   6.533   1.438   7.010
17032TIP3   OH2 1563   6.663   1.848   5.965
17032TIP3    H1 1564   6.654   1.840   5.868
17032TIP3    H2 1565   6.666   1.944   5.980
17033TIP3   OH2 1566   6.028   1.735   6.147
17033TIP3    H1 1567   6.042   1.694   6.235
17033TIP3    H2 1568   5.943   1.695   6.123
17034TIP3   OH2 1569   6.964   1.768   5.661
17034TIP3    H1 1570   7.015   1.694   5.619
17034TIP3    H2 1571   6.973   1.741   5.754
17035TIP3   OH2 1572   6.938   1.762   5.941
17035TIP3    H1 1573   6.842   1.769   5.960
17035TIP3    H2 1574   6.963   1.688   5.998
17036TIP3   OH2 1575   7.242   0.665   7.145
17036TIP3    H1 1576   7.191   0.712   7.077
17036TIP3    H2 1577   7.238   0.574   7.114
17037TIP3   OH2 1578   5.952   1.308   6.946
17037TIP3    H1 1579   5.971   1.267   7.032
17037TIP3    H2 1580   5.866   1.268   6.921
17038TIP3   OH2 1581   6.220   0.152   6.544
17038TIP3    H1 1582   6.130   0.149   6.504
17038TIP3    H2 1583   6.210   0.236   6.592
17039TIP3   OH2 1584   6.689   0.171   6.889
17039TIP3    H1 1585   6.736   0.102   6.936
17039TIP3    H2 1586   6.601   0.129   6.875
17040TIP3   OH2 1587   7.013   0.502   6.967
17040TIP3    H1 1588   6.958   0.485   7.047
17040TIP3    H2 1589   6.995   0.595   6.944
17041TIP3   OH2 1590   7.092   0.981   5.548
17041TIP3    H1 1591   7.090   0.969   5.452
17041TIP3    H2 1592   7.173   1.033   5.562
17042TIP3   OH2 1593   6.652   0.374   5.615
17042TIP3    H1 1594   6.615   0.373   5.705
17042TIP3    H2 1595   6.619   0.289   5.585
17043TIP3   OH2 1596   6.231   0.651   6.667
17043TIP3    H1 1597   6.157   0.650   6.730
17043TIP3    H2 1598   6.226   0.742   6.630
17044TIP3   OH2 1599   6.227   0.665   6.153
17044TIP3    H1 1600   6.133   0.639   6.140
17044TIP3    H2 1601   6.265   0.634   6.068
17045TIP3   OH2 1602   6.779   0.711   6.030
17045TIP3    H1 1603   6.738   0.795   5.997
17045TIP3    H2 1604   6.848   0.698   5.962
17046TIP3   OH2 1605   6.683   0.735   7.176
17046TIP3    H1 1606   6.633   0.655   7.204
17046TIP3    H2 1607   6.768   0.722   7.223
17047TIP3   OH2 1608   6.885   0.661   6.313
17047TIP3    H1 1609   6.853   0.721   6.243
17047TIP3    H2 1610   6.889   0.578   6.265
17048TIP3   OH2 1611   5.993   0.677   6.836
17048TIP3    H1 1612   6.001   0.717   6.925
17048TIP3    H2 1613   5.948   0.594   6.856
17049TIP3   OH2 1614   6.331   0.412   5.518
17049TIP3    H1 1615   6.285   0.373   5.595
17049TIP3    H2 1616   6.262   0.458   5.470
17050TIP3   OH2 1617   5.658   0.392   6.232
17050TIP3    H1 1618   5.726   0.386   6.303
17050TIP3    H2 1619   5.704   0.351   6.156
17051TIP3   OH2 1620   5.788   0.461   5.775
17051TIP3    H1 1621   5.836   0.519   5.713
17051TIP3    H2 1622   5.718   0.523   5.805
17052TIP3   OH2 1623   6.802   0.820   6.770
17052TIP3    H1 1624   6.840   0.752   6.711
17052TIP3    H2 1625   6.756   0.768   6.838
17053TIP3   OH2 1626   6.484   0.418   6.254
17053TIP3    H1 1627   6.390   0.420   6.282
17053TIP3    H2 1628   6.528   0.403   6.339
17054TIP3   OH2 1629   5.963   0.574   6.140
17054TIP3    H1 1630   5.875   0.589   6.102
17054TIP3    H2 1631   5.991   0.489   6.101
17055TIP3   OH2 1632   6.328   0.577   5.904
17055TIP3    H1 1633   6.423   0.589   5.920
17055TIP3    H2 1634   6.303   0.644   5.837
17056TIP3   OH2 1635   6.923   0.335   6.575
17056TIP3    H1 1636   6.858   0.347   6.649
17056TIP3    H2 1637   6.866   0.316   6.501
17057TIP3   OH2 1638   6.199   0.697   5.666
17057TIP3    H1 1639   6.143   0.661   5.595
17057TIP3    H2 1640   6.279   0.718   5.616
17058TIP3   OH2 1641   7.241   1.911   7.214
17058TIP3    H1 1642   7.271   1.943   7.126
17058TIP3    H2 1643   7.318   1.935   7.267
17059TIP3   OH2 1644   6.011   1.164   7.168
17059TIP3    H1 1645   6.077   1.158   7.236
17059TIP3    H2 1646   5.928   1.160   7.223
17060TIP3   OH2 1647   6.610   0.694   6.443
17060TIP3    H1 1648   6.670   0.640   6.390
17060TIP3    H2 1649   6.595   0.641   6.522
17061TIP3   OH2 1650   6.115   0.309   6.088
17061TIP3    H1 1651   6.082   0.218   6.086
17061TIP3    H2 1652   6.192   0.302   6.030
17062TIP3   OH2 1653   6.474   0.524   6.686
17062TIP3    H1 1654   6.392   0.577   6.694
17062TIP3    H2 1655   6.530   0.561   6.757
17063TIP3   OH2 1656   6.533   1.150   5.853
17063TIP3    H1 1657   6.453   1.103   5.822
17063TIP3    H2 1658   6.512   1.161   5.948
17064TIP3   OH2 1659   7.252   1.068   6.735
17064TIP3    H1 1660   7.308   1.117   6.672
17064TIP3    H2 1661   7.166   1.074   6.688
17065TIP3   OH2 1662   6.916   0.427   5.679
17065TIP3    H1 1663   6.824   0.445   5.653
17065TIP3    H2 1664   6.950   0.516   5.702
17066TIP3   OH2 1665   6.679   1.174   6.976
17066TIP3    H1 1666   6.651   1.133   7.059
17066TIP3    H2 1667   6.659   1.268   6.988
17067TIP3   OH2 1668   6.991   0.620   5.842
17067TIP3    H1 1669   7.082   0.611   5.875
17067TIP3    H2 1670   6.998   0.701   5.788
17068TIP3   OH2 1671   6.044   1.089   6.435
17068TIP3    H1 1672   6.113   1.081   6.366
17068TIP3    H2 1673   6.050   1.002   6.480
17069TIP3   OH2 1674   6.742   1.296   5.760
17069TIP3    H1 1675   6.708   1.382   5.794
17069TIP3    H2 1676   6.668   1.235   5.781
17070TIP3   OH2 1677   5.743   0.929   6.959
17070TIP3    H1 1678   5.761   0.886   7.045
17070TIP3    H2 1679   5.681   0.867   6.917
17071TIP3   OH2 1680   6.445   0.885   7.180
17071TIP3    H1 1681   6.413   0.855   7.093
17071TIP3    H2 1682   6.537   0.853   7.178
17072TIP3   OH2 1683   6.911   1.420   6.976
17072TIP3    H1 1684   6.819   1.436   6.950
17072TIP3    H2 1685   6.908   1.443   7.069
17073TIP3   OH2 1686   7.477   0.637   5.816
17073TIP3    H1 1687   7.423   0.608   5.739
17073TIP3    H2 1688   7.487   0.730   5.787
17074TIP3   OH2 1689   7.479   1.220   7.091
17074TIP3    H1 1690   7.390   1.244   7.056
17074TIP3    H2 1691   7.534   1.217   7.011
17075TIP3   OH2 1692   7.309   1.519   5.854
17075TIP3    H1 1693   7.271   1.436   5.885
17075TIP3    H2 1694   7.338   1.500   5.762
17076TIP3   OH2 1695   7.029   1.001   6.563
17076TIP3    H1 1696   6.935   0.980   6.552
17076TIP3    H2 1697   7.072   0.925   6.520
17077TIP3   OH2 1698   6.281   1.434   6.173
17077TIP3    H1 1699   6.331   1.515   6.152
17077TIP3    H2 1700   6.194   1.457   6.140
17078TIP3   OH2 1701   5.853   0.922   5.620
17078TIP3    H1 1702   5.917   0.980   5.666
17078TIP3    H2 1703   5.769   0.948   5.662
17079TIP3   OH2 1704   6.423   1.201   6.124
17079TIP3    H1 1705   6.392   1.293   6.134
17079TIP3    H2 1706   6.351   1.152   6.169
17080TIP3   OH2 1707   6.468   1.619   6.765
17080TIP3    H1 1708   6.514   1.700   6.737
17080TIP3    H2 1709   6.530   1.585   6.832
17081TIP3   OH2 1710   6.290   1.700   6.079
17081TIP3    H1 1711   6.194   1.714   6.091
17081TIP3    H2 1712   6.327   1.784   6.113
17082TIP3   OH2 1713   6.822   1.220   6.729
17082TIP3    H1 1714   6.787   1.199   6.818
17082TIP3    H2 1715   6.885   1.148   6.711
17083TIP3   OH2 1716   7.051   1.326   5.644
17083TIP3    H1 1717   7.082   1.277   5.721
17083TIP3    H2 1718   6.956   1.307   5.645
17084TIP3   OH2 1719   7.100   1.679   6.978
17084TIP3    H1 1720   7.034   1.628   6.928
17084TIP3    H2 1721   7.121   1.747   6.910
17085TIP3   OH2 1722   7.500   1.765   5.658
17085TIP3    H1 1723   7.572   1.828   5.641
17085TIP3    H2 1724   7.429   1.825   5.690
17086TIP3   OH2 1725   5.908   0.398   6.916
17086TIP3    H1 1726   5.818   0.435   6.914
17086TIP3    H2 1727   5.895   0.313   6.961
17087TIP3   OH2 1728   7.132   1.189   5.864
17087TIP3    H1 1729   7.108   1.109   5.916
17087TIP3    H2 1730   7.227   1.194   5.880
17088TIP3   OH2 1731   5.869   1.582   6.757
17088TIP3    H1 1732   5.899   1.489   6.758
17088TIP3    H2 1733   5.895   1.611   6.845
17089TIP3   OH2 1734   6.465   1.430   5.484
17089TIP3    H1 1735   6.483   1.354   5.428
17089TIP3    H2 1736   6.423   1.393   5.563
17090TIP3   OH2 1737   6.345   1.387   5.730
17090TIP3    H1 1738   6.370   1.335   5.808
17090TIP3    H2 1739   6.352   1.480   5.761
17091TIP3   OH2 1740   5.996   1.112   5.777
17091TIP3    H1 1741   5.928   1.152   5.835
17091TIP3    H2 1742   6.049   1.189   5.752
17092TIP3   OH2 1743   6.787   0.389   6.808
17092TIP3    H1 1744   6.855   0.388   6.875
17092TIP3    H2 1745   6.746   0.301   6.825
17093TIP3   OH2 1746   6.861   0.335   5.928
17093TIP3    H1 1747   6.874   0.381   5.841
17093TIP3    H2 1748   6.916   0.392   5.982
17094TIP3   OH2 1749   6.625   1.553   5.799
17094TIP3    H1 1750   6.543   1.605   5.809
17094TIP3    H2 1751   6.677   1.607   5.738
17095TIP3   OH2 1752   6.581   0.508   6.004
17095TIP3    H1 1753   6.656   0.571   6.005
17095TIP3    H2 1754   6.551   0.504   6.096
17096TIP3   OH2 1755   6.635   0.613   6.919
17096TIP3    H1 1756   6.642   0.669   6.998
17096TIP3    H2 1757   6.699   0.541   6.932
17097TIP3   OH2 1758   6.670   0.218   6.097
17097TIP3    H1 1759   6.622   0.285   6.150
17097TIP3    H2 1760   6.721   0.276   6.035
17098TIP3   OH2 1761   6.362   1.657   5.806
17098TIP3    H1 1762   6.377   1.738   5.753
17098TIP3    H2 1763   6.337   1.693   5.893
17099TIP3   OH2 1764   6.228   0.329   5.762
17099TIP3    H1 1765   6.224   0.419   5.798
17099TIP3    H2 1766   6.319   0.305   5.789
17100TIP3   OH2 1767   7.251   0.401   7.007
17100TIP3    H1 1768   7.158   0.433   6.994
17100TIP3    H2 1769   7.281   0.399   6.914
17101TIP3   OH2 1770   7.115   0.779   6.406
17101TIP3    H1 1771   7.030   0.739   6.382
17101TIP3    H2 1772   7.160   0.712   6.461
17102TIP3   OH2 1773   6.055   1.371   5.668
17102TIP3    H1 1774   6.119   1.437   5.697
17102TIP3    H2 1775   6.105   1.326   5.597
17103TIP3   OH2 1776   5.891   0.640   5.581
17103TIP3    H1 1777   5.889   0.736   5.599
17103TIP3    H2 1778   5.803   0.619   5.551
17104TIP3   OH2 1779   7.219   1.706   6.574
17104TIP3    H1 1780   7.210   1.774   6.505
17104TIP3    H2 1781   7.316   1.712   6.592
17105TIP3   OH2 1782   5.965   0.131   6.452
17105TIP3    H1 1783   5.943   0.130   6.356
17105TIP3    H2 1784   5.932   0.043   6.478
17106TIP3   OH2 1785   5.865   1.510   6.068
17106TIP3    H1 1786   5.779   1.555   6.065
17106TIP3    H2 1787   5.912   1.557   5.999
17107TIP3   OH2 1788   5.782   1.775   7.199
17107TIP3    H1 1789   5.848   1.756   7.269
17107TIP3    H2 1790   5.744   1.689   7.177
17108TIP3   OH2 1791   6.246   1.658   7.357
17108TIP3    H1 1792   6.328   1.622   7.394
17108TIP3    H2 1793   6.254   1.643   7.262
17109TIP3   OH2 1794   6.664   1.618   5.499
17109TIP3    H1 1795   6.594   1.552   5.518
17109TIP3    H2 1796   6.737   1.559   5.475
17110TIP3   OH2 1797   7.126   1.601   5.525
17110TIP3    H1 1798   7.146   1.513   5.562
17110TIP3    H2 1799   7.198   1.611   5.463
17111TIP3   OH2 1800   5.779   1.152   7.298
17111TIP3    H1 1801   5.792   1.062   7.265
17111TIP3    H2 1802   5.703   1.179   7.242
17112TIP3   OH2 1803   6.214   1.187   5.503
17112TIP3    H1 1804   6.225   1.110   5.561
17112TIP3    H2 1805   6.280   1.172   5.435
17113TIP3   OH2 1806   6.441   1.153   7.236
17113TIP3    H1 1807   6.419   1.181   7.146
17113TIP3    H2 1808   6.458   1.056   7.225
17114TIP3   OH2 1809   6.745   1.296   5.479
17114TIP3    H1 1810   6.727   1.308   5.573
17114TIP3    H2 1811   6.733   1.201   5.465
17115TIP3   OH2 1812   7.018   1.139   6.977
17115TIP3    H1 1813   7.097   1.196   6.967
17115TIP3    H2 1814   6.947   1.204   6.977
17116TIP3   OH2 1815   5.870   0.879   7.235
17116TIP3    H1 1816   5.906   0.791   7.221
17116TIP3    H2 1817   5.842   0.873   7.328
17117TIP3   OH2 1818   6.333   0.988   5.742
17117TIP3    H1 1819   6.281   0.935   5.804
17117TIP3    H2 1820   6.362   0.921   5.676
17118TIP3   OH2 1821   6.259   0.769   6.972
17118TIP3    H1 1822   6.198   0.840   6.997
17118TIP3    H2 1823   6.298   0.806   6.891
17119TIP3   OH2 1824   6.439   0.818   5.561
17119TIP3    H1 1825   6.426   0.794   5.468
17119TIP3    H2 1826   6.537   0.817   5.572
17120TIP3   OH2 1827   6.765   1.029   7.305
17120TIP3    H1 1828   6.862   1.028   7.294
17120TIP3    H2 1829   6.750   0.950   7.357
17121TIP3   OH2 1830   7.373   1.046   5.505
17121TIP3    H1 1831   7.348   1.006   5.421
17121TIP3    H2 1832   7.382   1.140   5.483
17122TIP3   OH2 1833   6.300   0.507   7.078
17122TIP3    H1 1834   6.311   0.437   7.011
17122TIP3    H2 1835   6.295   0.587   7.022
17123TIP3   OH2 1836   6.340   0.345   6.832
17123TIP3    H1 1837   6.391   0.393   6.762
17123TIP3    H2 1838   6.250   0.336   6.792
17124TIP3   OH2 1839   6.493   0.894   6.857
17124TIP3    H1 1840   6.568   0.878   6.799
17124TIP3    H2 1841   6.456   0.978   6.824
17125TIP3   OH2 1842   6.931   0.671   7.353
17125TIP3    H1 1843   6.954   0.577   7.346
17125TIP3    H2 1844   7.018   0.714   7.356
17126TIP3   OH2 1845   7.066   0.949   7.164
17126TIP3    H1 1846   7.042   1.023   7.105
17126TIP3    H2 1847   7.162   0.948   7.148
17127TIP3   OH2 1848   6.145   0.629   7.273
17127TIP3    H1 1849   6.067   0.576   7.249
17127TIP3    H2 1850   6.210   0.594   7.208
17128TIP3   OH2 1851   6.407   0.093   6.871
17128TIP3    H1 1852   6.400   0.190   6.859
17128TIP3    H2 1853   6.333   0.061   6.820
17129TIP3   OH2 1854   6.545   0.520   7.231
17129TIP3    H1 1855   6.520   0.501   7.322
17129TIP3    H2 1856   6.464   0.504   7.179
17130TIP3   OH2 1857   6.815   0.439   7.142
17130TIP3    H1 1858   6.719   0.439   7.154
17130TIP3    H2 1859   6.846   0.373   7.209
17131TIP3   OH2 1860   6.966   0.304   7.331
17131TIP3    H1 1861   6.972   0.206   7.333
17131TIP3    H2 1862   6.952   0.329   7.425
17132TIP3   OH2 1863   5.957   0.424   7.243
17132TIP3    H1 1864   5.979   0.352   7.181
17132TIP3    H2 1865   5.943   0.376   7.325
17133TIP3   OH2 1866   6.446   0.070   7.126
17133TIP3    H1 1867   6.508  -0.006   7.132
17133TIP3    H2 1868   6.424   0.060   7.031
17134TIP3   OH2 1869   6.470   0.192   7.356
17134TIP3    H1 1870   6.464   0.142   7.271
17134TIP3    H2 1871   6.415   0.267   7.334
17135TIP3   OH2 1872   6.424   1.886   5.670
17135TIP3    H1 1873   6.521   1.889   5.674
17135TIP3    H2 1874   6.405   1.944   5.596
17136TIP3   OH2 1875   5.782   1.342   5.619
17136TIP3    H1 1876   5.878   1.350   5.640
17136TIP3    H2 1877   5.788   1.281   5.544
17137TIP3   OH2 1878   5.655   1.877   6.114
17137TIP3    H1 1879   5.584   1.829   6.067
17137TIP3    H2 1880   5.684   1.812   6.180
17138TIP3   OH2 1881   5.738   1.691   6.300
17138TIP3    H1 1882   5.703   1.603   6.320
17138TIP3    H2 1883   5.760   1.724   6.389
17139TIP3   OH2 1884   7.488   1.771   6.593
17139TIP3    H1 1885   7.494   1.787   6.689
17139TIP3    H2 1886   7.561   1.827   6.563
17140TIP3   OH2 1887   7.450   1.730   6.887
17140TIP3    H1 1888   7.402   1.653   6.851
17140TIP3    H2 1889   7.499   1.686   6.958
17141TIP3   OH2 1890   7.294   1.307   7.351
17141TIP3    H1 1891   7.207   1.296   7.392
17141TIP3    H2 1892   7.331   1.381   7.400
17142TIP3   OH2 1893   7.426   1.135   5.898
17142TIP3    H1 1894   7.512   1.175   5.917
17142TIP3    H2 1895   7.424   1.063   5.965
17143TIP3   OH2 1896   7.461   0.943   6.086
17143TIP3    H1 1897   7.386   0.894   6.126
17143TIP3    H2 1898   7.520   0.957   6.162
17144TIP3   OH2 1899   7.437   1.213   6.585
17144TIP3    H1 1900   7.518   1.177   6.547
17144TIP3    H2 1901   7.451   1.308   6.569
17145TIP3   OH2 1902   7.293   1.502   6.811
17145TIP3    H1 1903   7.224   1.536   6.871
17145TIP3    H2 1904   7.238   1.462   6.740
17146TIP3   OH2 1905   7.491   0.926   5.724
17146TIP3    H1 1906   7.435   0.961   5.653
17146TIP3    H2 1907   7.482   0.996   5.792
17147TIP3   OH2 1908   7.325   0.646   5.582
17147TIP3    H1 1909   7.335   0.713   5.513
17147TIP3    H2 1910   7.310   0.565   5.530
17148TIP3   OH2 1911   7.246   0.790   6.145
17148TIP3    H1 1912   7.227   0.696   6.139
17148TIP3    H2 1913   7.209   0.814   6.232
17149TIP3   OH2 1914   5.744   1.000   6.551
17149TIP3    H1 1915   5.762   0.991   6.454
17149TIP3    H2 1916   5.834   0.981   6.586
17150TIP3   OH2 1917   7.328   0.987   7.112
17150TIP3    H1 1918   7.389   0.912   7.126
17150TIP3    H2 1919   7.390   1.064   7.112
17151TIP3   OH2 1920   7.479   0.776   7.176
17151TIP3    H1 1921   7.391   0.736   7.161
17151TIP3    H2 1922   7.537   0.698   7.171
17152TIP3   OH2 1923   7.249   0.398   5.497
17152TIP3    H1 1924   7.312   0.351   5.555
17152TIP3    H2 1925   7.166   0.350   5.508
17153TIP3   OH2 1926   7.214   0.546   6.003
17153TIP3    H1 1927   7.241   0.454   5.990
17153TIP3    H2 1928   7.283   0.591   5.950
17154TIP3   OH2 1929   7.276   0.597   6.532
17154TIP3    H1 1930   7.369   0.629   6.534
17154TIP3    H2 1931   7.252   0.617   6.625
17155TIP3   OH2 1932   7.279   0.676   6.809
17155TIP3    H1 1933   7.192   0.704   6.845
17155TIP3    H2 1934   7.321   0.763   6.789
17156TIP3   OH2 1935   5.706   0.527   7.165
17156TIP3    H1 1936   5.799   0.504   7.183
17156TIP3    H2 1937   5.659   0.446   7.192
17157TIP3   OH2 1938   7.512   0.081   7.351
17157TIP3    H1 1939   7.536   0.016   7.284
17157TIP3    H2 1940   7.515   0.164   7.301
17158TIP3   OH2 1941   7.264   0.278   6.006
17158TIP3    H1 1942   7.300   0.221   6.075
17158TIP3    H2 1943   7.215   0.215   5.945
17159TIP3   OH2 1944   5.822   0.358   6.449
17159TIP3    H1 1945   5.872   0.277   6.475
17159TIP3    H2 1946   5.878   0.427   6.488
17160TIP3   OH2 1947   5.654   0.658   6.555
17160TIP3    H1 1948   5.710   0.633   6.478
17160TIP3    H2 1949   5.700   0.739   6.581
17161TIP3   OH2 1950   7.461   0.294   7.177
17161TIP3    H1 1951   7.366   0.313   7.175
17161TIP3    H2 1952   7.464   0.228   7.105
17162TIP3   OH2 1953   7.461   0.282   5.649
17162TIP3    H1 1954   7.501   0.209   5.600
17162TIP3    H2 1955   7.532   0.348   5.653
17163TIP3   OH2 1956   5.691   0.276   5.958
17163TIP3    H1 1957   5.598   0.301   5.949
17163TIP3    H2 1958   5.733   0.331   5.890
17164TIP3   OH2 1959   7.164   1.779   6.156
17164TIP3    H1 1960   7.232   1.748   6.093
17164TIP3    H2 1961   7.216   1.828   6.220
17165TIP3   OH2 1962   5.687   0.154   6.793
17165TIP3    H1 1963   5.622   0.133   6.861
17165TIP3    H2 1964   5.642   0.217   6.735
17166TIP3   OH2 1965   5.911   1.467   7.212
17166TIP3    H1 1966   5.829   1.490   7.163
17166TIP3    H2 1967   5.876   1.463   7.299
17167TIP3   OH2 1968   6.200   1.571   6.838
17167TIP3    H1 1969   6.165   1.655   6.807
17167TIP3    H2 1970   6.291   1.579   6.803
17168TIP3   OH2 1971   6.633   1.711   7.126
17168TIP3    H1 1972   6.647   1.679   7.218
17168TIP3    H2 1973   6.721   1.744   7.100
17169TIP3   OH2 1974   6.860   1.838   7.058
17169TIP3    H1 1975   6.934   1.781   7.031
17169TIP3    H2 1976   6.899   1.883   7.136
17170TIP3   OH2 1977   7.357   0.107   6.964
17170TIP3    H1 1978   7.271   0.133   6.930
17170TIP3    H2 1979   7.374   0.022   6.926
17171TIP3   OH2 1980   5.941   1.893   6.835
17171TIP3    H1 1981   5.869   1.943   6.795
17171TIP3    H2 1982   5.910   1.874   6.924
17172TIP3   OH2 1983   6.188   1.851   6.742
17172TIP3    H1 1984   6.099   1.866   6.781
17172TIP3    H2 1985   6.183   1.910   6.664
17173TIP3   OH2 1986   6.659   1.842   6.658
17173TIP3    H1 1987   6.613   1.898   6.594
17173TIP3    H2 1988   6.672   1.905   6.732
17174TIP3   OH2 1989   6.888   1.725   6.761
17174TIP3    H1 1990   6.802   1.752   6.723
17174TIP3    H2 1991   6.936   1.809   6.751
17175TIP3   OH2 1992   7.147   1.881   6.784
17175TIP3    H1 1993   7.140   1.977   6.761
17175TIP3    H2 1994   7.167   1.844   6.696
17176TIP3   OH2 1995   5.886   1.758   6.528
17176TIP3    H1 1996   5.878   1.713   6.615
17176TIP3    H2 1997   5.968   1.721   6.490
17177TIP3   OH2 1998   6.095   1.630   6.394
17177TIP3    H1 1999   6.078   1.536   6.417
17177TIP3    H2 2000   6.180   1.645   6.440
17178TIP3   OH2 2001   6.356   1.678   6.482
17178TIP3    H1 2002   6.371   1.585   6.455
17178TIP3    H2 2003   6.360   1.672   6.578
17179TIP3   OH2 2004   6.699   0.246   6.392
17179TIP3    H1 2005   6.632   0.183   6.428
17179TIP3    H2 2006   6.752   0.181   6.348
17180TIP3   OH2 2007   7.198   0.060   6.373
17180TIP3    H1 2008   7.268   0.126   6.362
17180TIP3    H2 2009   7.110   0.102   6.385
17181TIP3   OH2 2010   7.389   0.176   6.224
17181TIP3    H1 2011   7.457   0.115   6.189
17181TIP3    H2 2012   7.450   0.253   6.241
17182TIP3   OH2 2013   5.926   0.149   6.191
17182TIP3    H1 2014   5.859   0.110   6.134
17182TIP3    H2 2015   5.981   0.068   6.197
17183TIP3   OH2 2016   5.814   0.094   5.747
17183TIP3    H1 2017   5.864   0.158   5.695
17183TIP3    H2 2018   5.755   0.147   5.804
17184TIP3   OH2 2019   6.389   0.101   6.159
17184TIP3    H1 2020   6.479   0.135   6.156
17184TIP3    H2 2021   6.383   0.075   6.251
17185TIP3   OH2 2022   6.950   0.094   6.325
17185TIP3    H1 2023   6.966   0.083   6.232
17185TIP3    H2 2024   6.920   0.001   6.345
17186TIP3   OH2 2025   7.075   0.114   5.889
17186TIP3    H1 2026   7.000   0.167   5.860
17186TIP3    H2 2027   7.042   0.023   5.898
17187TIP3   OH2 2028   5.807   1.676   5.852
17187TIP3    H1 2029   5.739   1.676   5.782
17187TIP3    H2 2030   5.809   1.771   5.870
17188TIP3   OH2 2031   5.996   0.269   5.605
17188TIP3    H1 2032   6.052   0.213   5.551
17188TIP3    H2 2033   6.062   0.309   5.665
17189TIP3   OH2 2034   6.498   0.300   5.846
17189TIP3    H1 2035   6.525   0.242   5.918
17189TIP3    H2 2036   6.504   0.387   5.891
17190TIP3   OH2 2037   6.691   1.811   5.685
17190TIP3    H1 2038   6.786   1.828   5.669
17190TIP3    H2 2039   6.673   1.753   5.608
17191TIP3   OH2 2040   7.364   1.757   5.960
17191TIP3    H1 2041   7.343   1.680   5.902
17191TIP3    H2 2042   7.355   1.831   5.896
17192TIP3   OH2 2043   5.926   0.163   7.128
17192TIP3    H1 2044   5.891   0.082   7.165
17192TIP3    H2 2045   6.018   0.155   7.159
17193TIP3   OH2 2046   6.132   0.097   7.293
17193TIP3    H1 2047   6.216   0.062   7.260
17193TIP3    H2 2048   6.091   0.015   7.323
17194TIP3   OH2 2049   5.989   1.776   5.549
17194TIP3    H1 2050   5.960   1.801   5.637
17194TIP3    H2 2051   6.063   1.717   5.567
17195TIP3   OH2 2052   6.973   0.033   7.308
17195TIP3    H1 2053   6.982  -0.024   7.384
17195TIP3    H2 2054   7.060   0.022   7.266
17196TIP3   OH2 2055   7.288   1.630   7.169
17196TIP3    H1 2056   7.208   1.617   7.114
17196TIP3    H2 2057   7.278   1.724   7.190
17197TIP3   OH2 2058   7.854   0.904   6.671
17197TIP3    H1 2059   7.865   0.848   6.750
17197TIP3    H2 2060   7.923   0.971   6.690
17198TIP3   OH2 2061   7.944   1.354   6.527
17198TIP3    H1 2062   7.915   1.269   6.490
17198TIP3    H2 2063   8.041   1.340   6.530
17199TIP3   OH2 2064   7.608   0.712   6.073
17199TIP3    H1 2065   7.569   0.802   6.064
17199TIP3    H2 2066   7.555   0.662   6.010
17200TIP3   OH2 2067   7.685   0.938   6.286
17200TIP3    H1 2068   7.709   0.855   6.329
17200TIP3    H2 2069   7.755   0.946   6.219
17201TIP3   OH2 2070   8.038   0.457   6.339
17201TIP3    H1 2071   8.086   0.528   6.287
17201TIP3    H2 2072   8.041   0.390   6.272
17202TIP3   OH2 2073   7.746   0.678   6.394
17202TIP3    H1 2074   7.822   0.626   6.425
17202TIP3    H2 2075   7.754   0.654   6.299
17203TIP3   OH2 2076   7.973   0.331   6.723
17203TIP3    H1 2077   7.944   0.384   6.646
17203TIP3    H2 2078   7.904   0.351   6.791
17204TIP3   OH2 2079   7.919   0.530   6.545
17204TIP3    H1 2080   7.998   0.588   6.556
17204TIP3    H2 2081   7.964   0.482   6.468
17205TIP3   OH2 2082   8.050   1.305   6.813
17205TIP3    H1 2083   8.058   1.400   6.797
17205TIP3    H2 2084   7.973   1.299   6.874
17206TIP3   OH2 2085   7.678   1.258   5.906
17206TIP3    H1 2086   7.654   1.290   5.816
17206TIP3    H2 2087   7.684   1.342   5.957
17207TIP3   OH2 2088   8.084   1.033   6.202
17207TIP3    H1 2089   8.070   0.995   6.113
17207TIP3    H2 2090   8.157   0.977   6.236
17208TIP3   OH2 2091   7.923   0.966   6.951
17208TIP3    H1 2092   7.931   1.030   7.025
17208TIP3    H2 2093   7.829   0.977   6.934
17209TIP3   OH2 2094   8.055   1.552   7.114
17209TIP3    H1 2095   8.051   1.537   7.017
17209TIP3    H2 2096   7.961   1.537   7.138
17210TIP3   OH2 2097   8.004   0.930   5.962
17210TIP3    H1 2098   7.974   1.010   5.913
17210TIP3    H2 2099   7.931   0.870   5.943
17211TIP3   OH2 2100   7.610   1.175   6.850
17211TIP3    H1 2101   7.564   1.168   6.765
17211TIP3    H2 2102   7.616   1.081   6.875
17212TIP3   OH2 2103   7.589   1.449   6.530
17212TIP3    H1 2104   7.685   1.438   6.529
17212TIP3    H2 2105   7.579   1.531   6.581
17213TIP3   OH2 2106   7.910   1.736   6.146
17213TIP3    H1 2107   7.928   1.694   6.232
17213TIP3    H2 2108   7.827   1.691   6.123
17214TIP3   OH2 2109   7.831   1.313   6.952
17214TIP3    H1 2110   7.861   1.269   7.035
17214TIP3    H2 2111   7.751   1.264   6.925
17215TIP3   OH2 2112   8.101   0.152   6.538
17215TIP3    H1 2113   8.011   0.149   6.501
17215TIP3    H2 2114   8.099   0.237   6.583
17216TIP3   OH2 2115   8.109   0.663   6.736
17216TIP3    H1 2116   8.016   0.642   6.746
17216TIP3    H2 2117   8.102   0.719   6.656
17217TIP3   OH2 2118   8.082   0.652   6.180
17217TIP3    H1 2119   7.994   0.633   6.142
17217TIP3    H2 2120   8.144   0.626   6.112
17218TIP3   OH2 2121   7.865   0.679   6.836
17218TIP3    H1 2122   7.885   0.720   6.923
17218TIP3    H2 2123   7.839   0.590   6.864
17219TIP3   OH2 2124   7.541   0.389   6.234
17219TIP3    H1 2125   7.613   0.389   6.301
17219TIP3    H2 2126   7.592   0.357   6.156
17220TIP3   OH2 2127   7.675   0.463   5.781
17220TIP3    H1 2128   7.721   0.517   5.713
17220TIP3    H2 2129   7.603   0.525   5.804
17221TIP3   OH2 2130   7.837   0.569   6.146
17221TIP3    H1 2131   7.756   0.588   6.096
17221TIP3    H2 2132   7.876   0.488   6.106
17222TIP3   OH2 2133   8.088   0.689   5.666
17222TIP3    H1 2134   8.025   0.664   5.595
17222TIP3    H2 2135   8.163   0.720   5.615
17223TIP3   OH2 2136   7.899   1.152   7.168
17223TIP3    H1 2137   7.966   1.182   7.232
17223TIP3    H2 2138   7.819   1.166   7.224
17224TIP3   OH2 2139   7.975   0.309   6.076
17224TIP3    H1 2140   7.955   0.215   6.088
17224TIP3    H2 2141   8.071   0.308   6.062
17225TIP3   OH2 2142   7.929   1.085   6.434
17225TIP3    H1 2143   8.001   1.082   6.367
17225TIP3    H2 2144   7.941   1.001   6.480
17226TIP3   OH2 2145   7.630   0.927   6.958
17226TIP3    H1 2146   7.646   0.888   7.046
17226TIP3    H2 2147   7.563   0.868   6.919
17227TIP3   OH2 2148   7.740   0.920   5.623
17227TIP3    H1 2149   7.802   0.982   5.666
17227TIP3    H2 2150   7.654   0.948   5.660
17228TIP3   OH2 2151   7.792   0.399   6.914
17228TIP3    H1 2152   7.701   0.434   6.918
17228TIP3    H2 2153   7.781   0.314   6.961
17229TIP3   OH2 2154   7.757   1.582   6.758
17229TIP3    H1 2155   7.784   1.489   6.760
17229TIP3    H2 2156   7.783   1.610   6.846
17230TIP3   OH2 2157   7.881   1.112   5.776
17230TIP3    H1 2158   7.814   1.152   5.835
17230TIP3    H2 2159   7.932   1.190   5.751
17231TIP3   OH2 2160  -0.051   0.323   5.745
17231TIP3    H1 2161  -0.047   0.412   5.782
17231TIP3    H2 2162   0.042   0.300   5.762
17232TIP3   OH2 2163   7.943   1.368   5.670
17232TIP3    H1 2164   8.006   1.436   5.696
17232TIP3    H2 2165   7.993   1.327   5.597
17233TIP3   OH2 2166   7.779   0.640   5.590
17233TIP3    H1 2167   7.773   0.737   5.595
17233TIP3    H2 2168   7.694   0.618   5.549
17234TIP3   OH2 2169   7.848   0.136   6.452
17234TIP3    H1 2170   7.833   0.130   6.355
17234TIP3    H2 2171   7.822   0.045   6.480
17235TIP3   OH2 2172   7.749   1.511   6.067
17235TIP3    H1 2173   7.664   1.557   6.063
17235TIP3    H2 2174   7.800   1.558   6.000
17236TIP3   OH2 2175   7.675   1.776   7.195
17236TIP3    H1 2176   7.733   1.754   7.269
17236TIP3    H2 2177   7.630   1.690   7.179
17237TIP3   OH2 2178   7.665   1.151   7.293
17237TIP3    H1 2179   7.679   1.060   7.264
17237TIP3    H2 2180   7.587   1.180   7.243
17238TIP3   OH2 2181   8.098   1.185   5.503
17238TIP3    H1 2182   8.109   1.109   5.560
17238TIP3    H2 2183   8.164   1.176   5.434
17239TIP3   OH2 2184   7.753   0.876   7.235
17239TIP3    H1 2185   7.790   0.788   7.222
17239TIP3    H2 2186   7.728   0.876   7.329
17240TIP3   OH2 2187   8.014   0.648   7.255
17240TIP3    H1 2188   7.950   0.574   7.251
17240TIP3    H2 2189   8.092   0.603   7.215
17241TIP3   OH2 2190   7.850   0.426   7.241
17241TIP3    H1 2191   7.865   0.349   7.182
17241TIP3    H2 2192   7.834   0.381   7.327
17242TIP3   OH2 2193   7.669   1.341   5.618
17242TIP3    H1 2194   7.764   1.349   5.639
17242TIP3    H2 2195   7.673   1.280   5.543
17243TIP3   OH2 2196   7.541   1.878   6.113
17243TIP3    H1 2197   7.470   1.829   6.067
17243TIP3    H2 2198   7.571   1.812   6.179
17244TIP3   OH2 2199   7.626   1.691   6.300
17244TIP3    H1 2200   7.590   1.603   6.320
17244TIP3    H2 2201   7.648   1.724   6.388
17245TIP3   OH2 2202   7.627   0.987   6.549
17245TIP3    H1 2203   7.648   0.992   6.453
17245TIP3    H2 2204   7.718   0.986   6.584
17246TIP3   OH2 2205   7.596   0.526   7.160
17246TIP3    H1 2206   7.687   0.503   7.186
17246TIP3    H2 2207   7.547   0.446   7.192
17247TIP3   OH2 2208   7.707   0.360   6.453
17247TIP3    H1 2209   7.759   0.278   6.471
17247TIP3    H2 2210   7.771   0.425   6.485
17248TIP3   OH2 2211   7.538   0.657   6.552
17248TIP3    H1 2212   7.590   0.636   6.471
17248TIP3    H2 2213   7.565   0.748   6.572
17249TIP3   OH2 2214   7.573   0.279   5.963
17249TIP3    H1 2215   7.482   0.303   5.942
17249TIP3    H2 2216   7.621   0.329   5.893
17250TIP3   OH2 2217   7.575   0.156   6.793
17250TIP3    H1 2218   7.509   0.132   6.860
17250TIP3    H2 2219   7.526   0.216   6.735
17251TIP3   OH2 2220   7.792   1.474   7.208
17251TIP3    H1 2221   7.707   1.490   7.164
17251TIP3    H2 2222   7.764   1.461   7.299
17252TIP3   OH2 2223   8.088   1.572   6.840
17252TIP3    H1 2224   8.050   1.655   6.806
17252TIP3    H2 2225   8.179   1.580   6.805
17253TIP3   OH2 2226   7.828   1.893   6.835
17253TIP3    H1 2227   7.755   1.941   6.794
17253TIP3    H2 2228   7.793   1.874   6.923
17254TIP3   OH2 2229   8.056   1.826   6.721
17254TIP3    H1 2230   7.985   1.858   6.781
17254TIP3    H2 2231   8.070   1.907   6.666
17255TIP3   OH2 2232   7.768   1.758   6.530
17255TIP3    H1 2233   7.765   1.713   6.617
17255TIP3    H2 2234   7.851   1.723   6.491
17256TIP3   OH2 2235   7.980   1.631   6.397
17256TIP3    H1 2236   7.962   1.537   6.417
17256TIP3    H2 2237   8.065   1.642   6.441
17257TIP3   OH2 2238   7.804   0.147   6.194
17257TIP3    H1 2239   7.745   0.106   6.130
17257TIP3    H2 2240   7.865   0.070   6.201
17258TIP3   OH2 2241   7.699   0.092   5.748
17258TIP3    H1 2242   7.749   0.156   5.694
17258TIP3    H2 2243   7.642   0.147   5.804
17259TIP3   OH2 2244   7.691   1.676   5.852
17259TIP3    H1 2245   7.624   1.676   5.781
17259TIP3    H2 2246   7.692   1.771   5.871
17260TIP3   OH2 2247   7.882   0.268   5.607
17260TIP3    H1 2248   7.937   0.213   5.551
17260TIP3    H2 2249   7.951   0.310   5.664
17261TIP3   OH2 2250   7.813   0.161   7.127
17261TIP3    H1 2251   7.776   0.082   7.167
17261TIP3    H2 2252   7.904   0.154   7.162
17262TIP3   OH2 2253   8.017   0.097   7.284
17262TIP3    H1 2254   8.104   0.060   7.261
17262TIP3    H2 2255   7.977   0.018   7.325
17263TIP3   OH2 2256   7.875   1.776   5.548
17263TIP3    H1 2257   7.847   1.804   5.636
17263TIP3    H2 2258   7.950   1.717   5.564
17264TIP3   OH2 2259   1.189   2.905   6.166
17264TIP3    H1 2260   1.189   3.003   6.162
17264TIP3    H2 2261   1.117   2.881   6.106
17265TIP3   OH2 2262   1.067   2.834   6.520
17265TIP3    H1 2263   1.077   2.763   6.585
17265TIP3    H2 2264   1.044   2.782   6.441
17266TIP3   OH2 2265   0.312   2.791   6.666
17266TIP3    H1 2266   0.317   2.729   6.741
17266TIP3    H2 2267   0.378   2.856   6.694
17267TIP3   OH2 2268   1.444   3.125   6.345
17267TIP3    H1 2269   1.402   3.054   6.394
17267TIP3    H2 2270   1.446   3.196   6.412
17268TIP3   OH2 2271   0.402   3.242   6.522
17268TIP3    H1 2272   0.371   3.155   6.490
17268TIP3    H2 2273   0.498   3.224   6.525
17269TIP3   OH2 2274   0.098   2.630   6.013
17269TIP3    H1 2275   0.041   2.692   6.062
17269TIP3    H2 2276   0.032   2.564   5.992
17270TIP3   OH2 2277   0.154   2.817   6.291
17270TIP3    H1 2278   0.171   2.730   6.334
17270TIP3    H2 2279   0.218   2.825   6.219
17271TIP3   OH2 2280   1.156   3.641   6.368
17271TIP3    H1 2281   1.221   3.572   6.339
17271TIP3    H2 2282   1.135   3.608   6.455
17272TIP3   OH2 2283   0.922   3.080   6.547
17272TIP3    H1 2284   0.952   3.010   6.486
17272TIP3    H2 2285   1.005   3.097   6.596
17273TIP3   OH2 2286   1.772   2.237   6.636
17273TIP3    H1 2287   1.791   2.295   6.711
17273TIP3    H2 2288   1.829   2.278   6.569
17274TIP3   OH2 2289   1.230   2.518   6.594
17274TIP3    H1 2290   1.246   2.422   6.595
17274TIP3    H2 2291   1.219   2.532   6.498
17275TIP3   OH2 2292   0.541   2.326   6.316
17275TIP3    H1 2293   0.552   2.410   6.267
17275TIP3    H2 2294   0.501   2.269   6.246
17276TIP3   OH2 2295   1.314   2.334   6.154
17276TIP3    H1 2296   1.380   2.303   6.220
17276TIP3    H2 2297   1.371   2.391   6.099
17277TIP3   OH2 2298   0.223   2.568   6.385
17277TIP3    H1 2299   0.279   2.506   6.433
17277TIP3    H2 2300   0.218   2.530   6.296
17278TIP3   OH2 2301   0.720   2.724   6.324
17278TIP3    H1 2302   0.787   2.663   6.360
17278TIP3    H2 2303   0.668   2.659   6.272
17279TIP3   OH2 2304   1.818   2.379   6.865
17279TIP3    H1 2305   1.752   2.449   6.844
17279TIP3    H2 2306   1.821   2.358   6.959
17280TIP3   OH2 2307   0.432   2.216   6.719
17280TIP3    H1 2308   0.402   2.272   6.644
17280TIP3    H2 2309   0.363   2.238   6.787
17281TIP3   OH2 2310   1.161   3.165   6.075
17281TIP3    H1 2311   1.132   3.135   5.988
17281TIP3    H2 2312   1.130   3.258   6.080
17282TIP3   OH2 2313   0.673   2.981   6.747
17282TIP3    H1 2314   0.596   3.038   6.772
17282TIP3    H2 2315   0.726   3.053   6.715
17283TIP3   OH2 2316   1.495   2.269   6.352
17283TIP3    H1 2317   1.474   2.192   6.406
17283TIP3    H2 2318   1.563   2.312   6.407
17284TIP3   OH2 2319   0.387   2.401   6.524
17284TIP3    H1 2320   0.449   2.471   6.556
17284TIP3    H2 2321   0.440   2.360   6.451
17285TIP3   OH2 2322   0.526   3.181   6.826
17285TIP3    H1 2323   0.522   3.273   6.794
17285TIP3    H2 2324   0.437   3.173   6.869
17286TIP3   OH2 2325   0.134   3.144   5.906
17286TIP3    H1 2326   0.113   3.172   5.815
17286TIP3    H2 2327   0.142   3.228   5.955
17287TIP3   OH2 2328   1.497   3.309   6.582
17287TIP3    H1 2329   1.400   3.320   6.593
17287TIP3    H2 2330   1.524   3.401   6.562
17288TIP3   OH2 2331   1.531   2.141   6.725
17288TIP3    H1 2332   1.456   2.198   6.709
17288TIP3    H2 2333   1.600   2.178   6.666
17289TIP3   OH2 2334   0.826   1.950   6.467
17289TIP3    H1 2335   0.812   1.853   6.460
17289TIP3    H2 2336   0.738   1.980   6.497
17290TIP3   OH2 2337   1.323   3.488   6.240
17290TIP3    H1 2338   1.366   3.416   6.190
17290TIP3    H2 2339   1.365   3.567   6.201
17291TIP3   OH2 2340   1.444   3.280   6.092
17291TIP3    H1 2341   1.415   3.211   6.030
17291TIP3    H2 2342   1.447   3.231   6.176
17292TIP3   OH2 2343   1.606   3.142   6.936
17292TIP3    H1 2344   1.621   3.076   6.867
17292TIP3    H2 2345   1.628   3.226   6.896
17293TIP3   OH2 2346   1.055   2.828   5.919
17293TIP3    H1 2347   0.986   2.885   5.882
17293TIP3    H2 2348   1.126   2.837   5.852
17294TIP3   OH2 2349   1.062   2.683   5.623
17294TIP3    H1 2350   1.134   2.683   5.689
17294TIP3    H2 2351   1.091   2.613   5.564
17295TIP3   OH2 2352   1.794   2.768   6.745
17295TIP3    H1 2353   1.730   2.843   6.752
17295TIP3    H2 2354   1.843   2.795   6.665
17296TIP3   OH2 2355   1.401   2.851   6.012
17296TIP3    H1 2356   1.325   2.874   6.071
17296TIP3    H2 2357   1.447   2.782   6.062
17297TIP3   OH2 2358   1.395   2.663   6.914
17297TIP3    H1 2359   1.392   2.742   6.975
17297TIP3    H2 2360   1.328   2.697   6.851
17298TIP3   OH2 2361   0.561   2.916   6.202
17298TIP3    H1 2362   0.527   2.877   6.118
17298TIP3    H2 2363   0.622   2.846   6.234
17299TIP3   OH2 2364   0.690   3.250   6.473
17299TIP3    H1 2365   0.691   3.204   6.388
17299TIP3    H2 2366   0.774   3.222   6.512
17300TIP3   OH2 2367   0.597   2.788   6.568
17300TIP3    H1 2368   0.648   2.800   6.485
17300TIP3    H2 2369   0.628   2.858   6.628
17301TIP3   OH2 2370   1.233   3.347   6.638
17301TIP3    H1 2371   1.207   3.412   6.704
17301TIP3    H2 2372   1.213   3.262   6.682
17302TIP3   OH2 2373   0.690   3.233   7.036
17302TIP3    H1 2374   0.650   3.308   7.086
17302TIP3    H2 2375   0.618   3.215   6.971
17303TIP3   OH2 2376   1.288   2.768   5.778
17303TIP3    H1 2377   1.343   2.787   5.858
17303TIP3    H2 2378   1.329   2.820   5.706
17304TIP3   OH2 2379   0.385   2.852   6.954
17304TIP3    H1 2380   0.386   2.918   7.026
17304TIP3    H2 2381   0.292   2.860   6.929
17305TIP3   OH2 2382   1.058   3.442   6.124
17305TIP3    H1 2383   1.102   3.473   6.204
17305TIP3    H2 2384   1.003   3.517   6.100
17306TIP3   OH2 2385   0.511   3.434   7.111
17306TIP3    H1 2386   0.508   3.426   7.014
17306TIP3    H2 2387   0.418   3.426   7.137
17307TIP3   OH2 2388   1.659   1.943   5.767
17307TIP3    H1 2389   1.563   1.953   5.790
17307TIP3    H2 2390   1.680   2.028   5.725
17308TIP3   OH2 2391   0.459   2.819   5.965
17308TIP3    H1 2392   0.430   2.896   5.913
17308TIP3    H2 2393   0.392   2.753   5.941
17309TIP3   OH2 2394   1.769   3.378   5.610
17309TIP3    H1 2395   1.784   3.474   5.614
17309TIP3    H2 2396   1.860   3.348   5.593
17310TIP3   OH2 2397   0.110   3.037   6.833
17310TIP3    H1 2398   0.032   3.058   6.776
17310TIP3    H2 2399   0.073   2.958   6.876
17311TIP3   OH2 2400   0.048   3.340   6.524
17311TIP3    H1 2401   0.141   3.316   6.532
17311TIP3    H2 2402   0.036   3.414   6.584
17312TIP3   OH2 2403   1.868   3.405   7.098
17312TIP3    H1 2404   1.854   3.309   7.098
17312TIP3    H2 2405   1.780   3.429   7.138
17313TIP3   OH2 2406   0.963   3.359   6.983
17313TIP3    H1 2407   0.970   3.442   7.036
17313TIP3    H2 2408   0.877   3.324   7.012
17314TIP3   OH2 2409   1.006   3.734   5.964
17314TIP3    H1 2410   0.997   3.726   5.868
17314TIP3    H2 2411   1.009   3.829   5.980
17315TIP3   OH2 2412   0.371   3.620   6.146
17315TIP3    H1 2413   0.384   3.579   6.234
17315TIP3    H2 2414   0.285   3.580   6.122
17316TIP3   OH2 2415   1.308   3.652   5.660
17316TIP3    H1 2416   1.358   3.578   5.619
17316TIP3    H2 2417   1.316   3.628   5.755
17317TIP3   OH2 2418   1.281   3.648   5.941
17317TIP3    H1 2419   1.185   3.655   5.960
17317TIP3    H2 2420   1.306   3.574   5.998
17318TIP3   OH2 2421   1.561   2.544   7.156
17318TIP3    H1 2422   1.518   2.601   7.087
17318TIP3    H2 2423   1.559   2.455   7.117
17319TIP3   OH2 2424   0.291   3.198   6.949
17319TIP3    H1 2425   0.313   3.156   7.034
17319TIP3    H2 2426   0.208   3.151   6.923
17320TIP3   OH2 2427   0.565   2.040   6.542
17320TIP3    H1 2428   0.474   2.028   6.505
17320TIP3    H2 2429   0.551   2.123   6.590
17321TIP3   OH2 2430   1.028   2.007   6.879
17321TIP3    H1 2431   1.067   1.964   6.957
17321TIP3    H2 2432   0.931   1.994   6.893
17322TIP3   OH2 2433   1.361   2.393   6.971
17322TIP3    H1 2434   1.299   2.369   7.045
17322TIP3    H2 2435   1.335   2.483   6.944
17323TIP3   OH2 2436   1.433   2.870   5.547
17323TIP3    H1 2437   1.434   2.853   5.452
17323TIP3    H2 2438   1.517   2.917   5.562
17324TIP3   OH2 2439   0.991   2.264   5.612
17324TIP3    H1 2440   0.960   2.260   5.705
17324TIP3    H2 2441   0.964   2.176   5.584
17325TIP3   OH2 2442   0.572   2.537   6.667
17325TIP3    H1 2443   0.499   2.536   6.731
17325TIP3    H2 2444   0.567   2.627   6.629
17326TIP3   OH2 2445   0.570   2.551   6.155
17326TIP3    H1 2446   0.476   2.525   6.141
17326TIP3    H2 2447   0.608   2.520   6.070
17327TIP3   OH2 2448   1.122   2.599   6.031
17327TIP3    H1 2449   1.081   2.681   5.996
17327TIP3    H2 2450   1.190   2.583   5.963
17328TIP3   OH2 2451   1.030   2.620   7.170
17328TIP3    H1 2452   0.977   2.544   7.205
17328TIP3    H2 2453   1.111   2.611   7.224
17329TIP3   OH2 2454   1.225   2.548   6.315
17329TIP3    H1 2455   1.197   2.604   6.240
17329TIP3    H2 2456   1.235   2.463   6.268
17330TIP3   OH2 2457   0.336   2.565   6.838
17330TIP3    H1 2458   0.339   2.605   6.927
17330TIP3    H2 2459   0.291   2.481   6.856
17331TIP3   OH2 2460   0.676   2.296   5.518
17331TIP3    H1 2461   0.630   2.259   5.595
17331TIP3    H2 2462   0.606   2.343   5.470
17332TIP3   OH2 2463   0.081   2.284   6.183
17332TIP3    H1 2464   0.072   2.265   6.280
17332TIP3    H2 2465   0.072   2.197   6.141
17333TIP3   OH2 2466   0.146   2.366   5.788
17333TIP3    H1 2467   0.185   2.413   5.711
17333TIP3    H2 2468   0.066   2.419   5.799
17334TIP3   OH2 2469   1.138   2.709   6.768
17334TIP3    H1 2470   1.182   2.640   6.713
17334TIP3    H2 2471   1.101   2.652   6.839
17335TIP3   OH2 2472   0.826   2.304   6.254
17335TIP3    H1 2473   0.732   2.305   6.283
17335TIP3    H2 2474   0.874   2.288   6.337
17336TIP3   OH2 2475   0.310   2.461   6.138
17336TIP3    H1 2476   0.221   2.474   6.101
17336TIP3    H2 2477   0.333   2.374   6.101
17337TIP3   OH2 2478   0.670   2.466   5.905
17337TIP3    H1 2479   0.766   2.475   5.919
17337TIP3    H2 2480   0.646   2.531   5.837
17338TIP3   OH2 2481   1.267   2.227   6.578
17338TIP3    H1 2482   1.198   2.233   6.649
17338TIP3    H2 2483   1.215   2.203   6.500
17339TIP3   OH2 2484   0.544   2.583   5.666
17339TIP3    H1 2485   0.487   2.548   5.595
17339TIP3    H2 2486   0.623   2.605   5.615
17340TIP3   OH2 2487   1.585   3.793   7.213
17340TIP3    H1 2488   1.614   3.829   7.127
17340TIP3    H2 2489   1.658   3.822   7.270
17341TIP3   OH2 2490   0.367   3.037   7.164
17341TIP3    H1 2491   0.432   3.063   7.229
17341TIP3    H2 2492   0.284   3.048   7.217
17342TIP3   OH2 2493   0.954   2.581   6.445
17342TIP3    H1 2494   1.012   2.527   6.390
17342TIP3    H2 2495   0.939   2.523   6.521
17343TIP3   OH2 2496   0.451   2.196   6.085
17343TIP3    H1 2497   0.422   2.102   6.086
17343TIP3    H2 2498   0.533   2.189   6.034
17344TIP3   OH2 2499   0.818   2.415   6.684
17344TIP3    H1 2500   0.734   2.463   6.694
17344TIP3    H2 2501   0.873   2.446   6.758
17345TIP3   OH2 2502   0.876   3.036   5.853
17345TIP3    H1 2503   0.797   2.988   5.822
17345TIP3    H2 2504   0.855   3.047   5.948
17346TIP3   OH2 2505   1.597   2.949   6.731
17346TIP3    H1 2506   1.651   3.005   6.672
17346TIP3    H2 2507   1.509   2.961   6.690
17347TIP3   OH2 2508   1.260   2.313   5.676
17347TIP3    H1 2509   1.166   2.329   5.656
17347TIP3    H2 2510   1.293   2.401   5.703
17348TIP3   OH2 2511   1.009   3.061   6.969
17348TIP3    H1 2512   0.997   3.020   7.057
17348TIP3    H2 2513   1.007   3.155   6.993
17349TIP3   OH2 2514   1.333   2.509   5.840
17349TIP3    H1 2515   1.423   2.494   5.877
17349TIP3    H2 2516   1.342   2.590   5.787
17350TIP3   OH2 2517   0.390   2.976   6.438
17350TIP3    H1 2518   0.453   2.966   6.364
17350TIP3    H2 2519   0.392   2.888   6.479
17351TIP3   OH2 2520   1.085   3.182   5.760
17351TIP3    H1 2521   1.050   3.267   5.796
17351TIP3    H2 2522   1.011   3.121   5.781
17352TIP3   OH2 2523   0.087   2.809   6.961
17352TIP3    H1 2524   0.108   2.768   7.046
17352TIP3    H2 2525   0.022   2.750   6.920
17353TIP3   OH2 2526   0.789   2.772   7.175
17353TIP3    H1 2527   0.755   2.738   7.092
17353TIP3    H2 2528   0.880   2.737   7.179
17354TIP3   OH2 2529   1.252   3.303   6.973
17354TIP3    H1 2530   1.161   3.326   6.952
17354TIP3    H2 2531   1.254   3.331   7.068
17355TIP3   OH2 2532   1.826   2.523   5.813
17355TIP3    H1 2533   1.766   2.492   5.742
17355TIP3    H2 2534   1.828   2.617   5.785
17356TIP3   OH2 2535   1.826   3.108   7.094
17356TIP3    H1 2536   1.733   3.127   7.063
17356TIP3    H2 2537   1.875   3.104   7.011
17357TIP3   OH2 2538   1.653   3.405   5.854
17357TIP3    H1 2539   1.615   3.322   5.886
17357TIP3    H2 2540   1.682   3.386   5.762
17358TIP3   OH2 2541   1.371   2.888   6.561
17358TIP3    H1 2542   1.278   2.864   6.551
17358TIP3    H2 2543   1.416   2.811   6.520
17359TIP3   OH2 2544   0.625   3.320   6.173
17359TIP3    H1 2545   0.675   3.400   6.152
17359TIP3    H2 2546   0.537   3.343   6.141
17360TIP3   OH2 2547   0.193   2.799   5.633
17360TIP3    H1 2548   0.259   2.864   5.664
17360TIP3    H2 2549   0.111   2.839   5.662
17361TIP3   OH2 2550   0.765   3.086   6.125
17361TIP3    H1 2551   0.735   3.179   6.134
17361TIP3    H2 2552   0.693   3.037   6.168
17362TIP3   OH2 2553   0.811   3.502   6.765
17362TIP3    H1 2554   0.855   3.584   6.737
17362TIP3    H2 2555   0.872   3.473   6.834
17363TIP3   OH2 2556   0.634   3.585   6.079
17363TIP3    H1 2557   0.537   3.600   6.091
17363TIP3    H2 2558   0.670   3.670   6.112
17364TIP3   OH2 2559   1.154   3.097   6.727
17364TIP3    H1 2560   1.140   3.088   6.823
17364TIP3    H2 2561   1.232   3.039   6.713
17365TIP3   OH2 2562   1.393   3.209   5.638
17365TIP3    H1 2563   1.426   3.164   5.718
17365TIP3    H2 2564   1.298   3.193   5.647
17366TIP3   OH2 2565   1.442   3.564   6.978
17366TIP3    H1 2566   1.376   3.512   6.929
17366TIP3    H2 2567   1.463   3.633   6.910
17367TIP3   OH2 2568   1.843   3.651   5.659
17367TIP3    H1 2569   1.915   3.713   5.641
17367TIP3    H2 2570   1.772   3.710   5.691
17368TIP3   OH2 2571   0.250   2.290   6.916
17368TIP3    H1 2572   0.160   2.324   6.916
17368TIP3    H2 2573   0.239   2.202   6.956
17369TIP3   OH2 2574   1.475   3.075   5.862
17369TIP3    H1 2575   1.451   2.996   5.915
17369TIP3    H2 2576   1.570   3.080   5.880
17370TIP3   OH2 2577   0.210   3.466   6.761
17370TIP3    H1 2578   0.243   3.374   6.758
17370TIP3    H2 2579   0.245   3.496   6.846
17371TIP3   OH2 2580   0.810   3.316   5.483
17371TIP3    H1 2581   0.824   3.239   5.428
17371TIP3    H2 2582   0.766   3.279   5.563
17372TIP3   OH2 2583   0.688   3.272   5.730
17372TIP3    H1 2584   0.713   3.221   5.808
17372TIP3    H2 2585   0.693   3.365   5.761
17373TIP3   OH2 2586   0.337   2.998   5.775
17373TIP3    H1 2587   0.270   3.037   5.836
17373TIP3    H2 2588   0.392   3.075   5.753
17374TIP3   OH2 2589   1.124   2.265   6.811
17374TIP3    H1 2590   1.195   2.271   6.876
17374TIP3    H2 2591   1.086   2.178   6.831
17375TIP3   OH2 2592   1.198   2.224   5.922
17375TIP3    H1 2593   1.223   2.269   5.839
17375TIP3    H2 2594   1.257   2.267   5.985
17376TIP3   OH2 2595   0.968   3.439   5.799
17376TIP3    H1 2596   0.886   3.491   5.809
17376TIP3    H2 2597   1.020   3.492   5.738
17377TIP3   OH2 2598   0.922   2.398   6.003
17377TIP3    H1 2599   1.001   2.455   6.006
17377TIP3    H2 2600   0.896   2.386   6.096
17378TIP3   OH2 2601   0.977   2.502   6.919
17378TIP3    H1 2602   0.986   2.555   7.000
17378TIP3    H2 2603   1.042   2.431   6.930
17379TIP3   OH2 2604   1.007   2.104   6.091
17379TIP3    H1 2605   0.975   2.169   6.156
17379TIP3    H2 2606   1.076   2.158   6.045
17380TIP3   OH2 2607   0.705   3.542   5.806
17380TIP3    H1 2608   0.720   3.624   5.753
17380TIP3    H2 2609   0.680   3.578   5.893
17381TIP3   OH2 2610   0.573   2.213   5.766
17381TIP3    H1 2611   0.569   2.305   5.798
17381TIP3    H2 2612   0.664   2.189   5.790
17382TIP3   OH2 2613   1.599   2.296   7.008
17382TIP3    H1 2614   1.502   2.315   6.994
17382TIP3    H2 2615   1.623   2.281   6.914
17383TIP3   OH2 2616   1.457   2.665   6.407
17383TIP3    H1 2617   1.374   2.621   6.379
17383TIP3    H2 2618   1.503   2.597   6.460
17384TIP3   OH2 2619   0.399   3.257   5.667
17384TIP3    H1 2620   0.462   3.324   5.697
17384TIP3    H2 2621   0.449   3.212   5.597
17385TIP3   OH2 2622   0.230   2.524   5.583
17385TIP3    H1 2623   0.233   2.621   5.596
17385TIP3    H2 2624   0.145   2.503   5.544
17386TIP3   OH2 2625   1.563   3.592   6.573
17386TIP3    H1 2626   1.554   3.660   6.505
17386TIP3    H2 2627   1.659   3.597   6.592
17387TIP3   OH2 2628   0.316   2.002   6.452
17387TIP3    H1 2629   0.290   2.005   6.357
17387TIP3    H2 2630   0.267   1.923   6.480
17388TIP3   OH2 2631   0.210   3.395   6.070
17388TIP3    H1 2632   0.123   3.438   6.066
17388TIP3    H2 2633   0.255   3.444   6.000
17389TIP3   OH2 2634   0.127   3.661   7.204
17389TIP3    H1 2635   0.196   3.634   7.268
17389TIP3    H2 2636   0.089   3.576   7.176
17390TIP3   OH2 2637   0.596   3.555   7.360
17390TIP3    H1 2638   0.672   3.501   7.388
17390TIP3    H2 2639   0.591   3.527   7.266
17391TIP3   OH2 2640   1.007   3.503   5.497
17391TIP3    H1 2641   0.937   3.439   5.519
17391TIP3    H2 2642   1.081   3.445   5.475
17392TIP3   OH2 2643   1.247   3.391   7.235
17392TIP3    H1 2644   1.218   3.300   7.259
17392TIP3    H2 2645   1.324   3.403   7.293
17393TIP3   OH2 2646   1.467   3.482   5.519
17393TIP3    H1 2647   1.492   3.400   5.565
17393TIP3    H2 2648   1.544   3.499   5.465
17394TIP3   OH2 2649   0.142   3.037   7.280
17394TIP3    H1 2650   0.147   2.941   7.258
17394TIP3    H2 2651   0.068   3.066   7.225
17395TIP3   OH2 2652   0.555   3.072   5.502
17395TIP3    H1 2653   0.569   2.995   5.560
17395TIP3    H2 2654   0.622   3.059   5.435
17396TIP3   OH2 2655   0.798   3.039   7.233
17396TIP3    H1 2656   0.754   3.068   7.152
17396TIP3    H2 2657   0.796   2.941   7.228
17397TIP3   OH2 2658   1.090   3.181   5.478
17397TIP3    H1 2659   1.069   3.195   5.572
17397TIP3    H2 2660   1.075   3.086   5.467
17398TIP3   OH2 2661   1.353   3.026   6.953
17398TIP3    H1 2662   1.438   3.074   6.973
17398TIP3    H2 2663   1.293   3.094   6.984
17399TIP3   OH2 2664   0.203   2.758   7.234
17399TIP3    H1 2665   0.257   2.678   7.223
17399TIP3    H2 2666   0.188   2.760   7.330
17400TIP3   OH2 2667   0.677   2.875   5.743
17400TIP3    H1 2668   0.625   2.821   5.805
17400TIP3    H2 2669   0.705   2.807   5.677
17401TIP3   OH2 2670   0.603   2.658   6.971
17401TIP3    H1 2671   0.540   2.727   6.998
17401TIP3    H2 2672   0.638   2.693   6.888
17402TIP3   OH2 2673   0.782   2.704   5.562
17402TIP3    H1 2674   0.769   2.679   5.469
17402TIP3    H2 2675   0.880   2.702   5.572
17403TIP3   OH2 2676   1.108   2.915   7.311
17403TIP3    H1 2677   1.203   2.913   7.291
17403TIP3    H2 2678   1.095   2.834   7.362
17404TIP3   OH2 2679   1.716   2.932   5.506
17404TIP3    H1 2680   1.693   2.891   5.422
17404TIP3    H2 2681   1.726   3.025   5.483
17405TIP3   OH2 2682   0.643   2.394   7.077
17405TIP3    H1 2683   0.654   2.323   7.012
17405TIP3    H2 2684   0.637   2.475   7.022
17406TIP3   OH2 2685   0.682   2.232   6.831
17406TIP3    H1 2686   0.733   2.278   6.761
17406TIP3    H2 2687   0.593   2.224   6.791
17407TIP3   OH2 2688   0.841   2.782   6.859
17407TIP3    H1 2689   0.913   2.757   6.799
17407TIP3    H2 2690   0.791   2.858   6.827
17408TIP3   OH2 2691   1.276   2.553   7.347
17408TIP3    H1 2692   1.301   2.460   7.346
17408TIP3    H2 2693   1.360   2.602   7.354
17409TIP3   OH2 2694   1.394   2.796   7.134
17409TIP3    H1 2695   1.376   2.892   7.113
17409TIP3    H2 2696   1.485   2.825   7.155
17410TIP3   OH2 2697   0.483   2.523   7.264
17410TIP3    H1 2698   0.410   2.460   7.253
17410TIP3    H2 2699   0.552   2.484   7.207
17411TIP3   OH2 2700   0.759   1.975   6.873
17411TIP3    H1 2701   0.743   2.072   6.861
17411TIP3    H2 2702   0.686   1.939   6.821
17412TIP3   OH2 2703   0.889   2.407   7.231
17412TIP3    H1 2704   0.858   2.385   7.321
17412TIP3    H2 2705   0.809   2.388   7.180
17413TIP3   OH2 2706   1.159   2.321   7.138
17413TIP3    H1 2707   1.064   2.329   7.154
17413TIP3    H2 2708   1.187   2.260   7.209
17414TIP3   OH2 2709   1.321   2.186   7.334
17414TIP3    H1 2710   1.310   2.088   7.335
17414TIP3    H2 2711   1.291   2.213   7.423
17415TIP3   OH2 2712   0.299   2.310   7.243
17415TIP3    H1 2713   0.324   2.237   7.182
17415TIP3    H2 2714   0.293   2.265   7.326
17416TIP3   OH2 2715   0.783   1.913   7.140
17416TIP3    H1 2716   0.852   1.844   7.138
17416TIP3    H2 2717   0.772   1.930   7.045
17417TIP3   OH2 2718   0.821   2.075   7.351
17417TIP3    H1 2719   0.804   2.023   7.269
17417TIP3    H2 2720   0.761   2.151   7.342
17418TIP3   OH2 2721   0.767   3.771   5.670
17418TIP3    H1 2722   0.864   3.775   5.674
17418TIP3    H2 2723   0.748   3.829   5.597
17419TIP3   OH2 2724   0.132   3.228   5.621
17419TIP3    H1 2725   0.228   3.236   5.640
17419TIP3    H2 2726   0.130   3.169   5.545
17420TIP3   OH2 2727   8.143   3.768   6.109
17420TIP3    H1 2728   8.067   3.721   6.072
17420TIP3    H2 2729   8.169   3.706   6.180
17421TIP3   OH2 2730   0.084   3.579   6.297
17421TIP3    H1 2731   0.048   3.490   6.315
17421TIP3    H2 2732   0.109   3.612   6.386
17422TIP3   OH2 2733   1.835   3.656   6.594
17422TIP3    H1 2734   1.838   3.673   6.690
17422TIP3    H2 2735   1.905   3.714   6.563
17423TIP3   OH2 2736   1.792   3.616   6.889
17423TIP3    H1 2737   1.745   3.539   6.850
17423TIP3    H2 2738   1.842   3.571   6.959
17424TIP3   OH2 2739   1.656   3.196   7.382
17424TIP3    H1 2740   1.559   3.184   7.385
17424TIP3    H2 2741   1.676   3.286   7.413
17425TIP3   OH2 2742   1.768   3.020   5.898
17425TIP3    H1 2743   1.854   3.061   5.917
17425TIP3    H2 2744   1.766   2.949   5.965
17426TIP3   OH2 2745   1.807   2.823   6.086
17426TIP3    H1 2746   1.728   2.780   6.126
17426TIP3    H2 2747   1.863   2.843   6.165
17427TIP3   OH2 2748   1.779   3.098   6.586
17427TIP3    H1 2749   1.861   3.060   6.550
17427TIP3    H2 2750   1.795   3.194   6.569
17428TIP3   OH2 2751   1.636   3.389   6.812
17428TIP3    H1 2752   1.567   3.420   6.873
17428TIP3    H2 2753   1.580   3.346   6.743
17429TIP3   OH2 2754   1.835   2.811   5.725
17429TIP3    H1 2755   1.778   2.846   5.653
17429TIP3    H2 2756   1.824   2.882   5.792
17430TIP3   OH2 2757   1.668   2.532   5.582
17430TIP3    H1 2758   1.678   2.598   5.513
17430TIP3    H2 2759   1.653   2.450   5.530
17431TIP3   OH2 2760   1.586   2.676   6.144
17431TIP3    H1 2761   1.572   2.580   6.140
17431TIP3    H2 2762   1.553   2.698   6.232
17432TIP3   OH2 2763   0.083   2.881   6.547
17432TIP3    H1 2764   0.105   2.877   6.452
17432TIP3    H2 2765   0.171   2.870   6.587
17433TIP3   OH2 2766   1.702   2.851   7.068
17433TIP3    H1 2767   1.742   2.799   7.137
17433TIP3    H2 2768   1.717   2.942   7.106
17434TIP3   OH2 2769   1.830   2.663   7.200
17434TIP3    H1 2770   1.737   2.644   7.182
17434TIP3    H2 2771   1.887   2.588   7.176
17435TIP3   OH2 2772   1.595   2.283   5.496
17435TIP3    H1 2773   1.655   2.235   5.556
17435TIP3    H2 2774   1.509   2.239   5.508
17436TIP3   OH2 2775   1.552   2.433   5.992
17436TIP3    H1 2776   1.583   2.340   6.003
17436TIP3    H2 2777   1.630   2.473   5.952
17437TIP3   OH2 2778   1.617   2.489   6.536
17437TIP3    H1 2779   1.713   2.512   6.532
17437TIP3    H2 2780   1.597   2.504   6.629
17438TIP3   OH2 2781   1.627   2.565   6.828
17438TIP3    H1 2782   1.533   2.592   6.843
17438TIP3    H2 2783   1.664   2.649   6.788
17439TIP3   OH2 2784   0.057   2.398   7.148
17439TIP3    H1 2785   0.148   2.390   7.180
17439TIP3    H2 2786   0.008   2.329   7.195
17440TIP3   OH2 2787   1.845   1.965   7.345
17440TIP3    H1 2788   1.887   1.899   7.288
17440TIP3    H2 2789   1.867   2.047   7.298
17441TIP3   OH2 2790   1.620   2.161   5.994
17441TIP3    H1 2791   1.641   2.118   6.080
17441TIP3    H2 2792   1.559   2.098   5.950
17442TIP3   OH2 2793   0.167   2.242   6.449
17442TIP3    H1 2794   0.214   2.161   6.477
17442TIP3    H2 2795   0.219   2.312   6.489
17443TIP3   OH2 2796  -0.006   2.569   6.491
17443TIP3    H1 2797   0.067   2.513   6.460
17443TIP3    H2 2798   0.048   2.617   6.557
17444TIP3   OH2 2799   1.800   2.182   7.182
17444TIP3    H1 2800   1.705   2.198   7.173
17444TIP3    H2 2801   1.810   2.121   7.106
17445TIP3   OH2 2802   1.802   2.167   5.648
17445TIP3    H1 2803   1.846   2.095   5.600
17445TIP3    H2 2804   1.873   2.232   5.652
17446TIP3   OH2 2805   0.050   2.158   5.960
17446TIP3    H1 2806  -0.044   2.176   5.937
17446TIP3    H2 2807   0.094   2.220   5.901
17447TIP3   OH2 2808   1.507   3.664   6.156
17447TIP3    H1 2809   1.576   3.633   6.094
17447TIP3    H2 2810   1.559   3.714   6.221
17448TIP3   OH2 2811   8.178   2.053   6.807
17448TIP3    H1 2812   8.107   2.015   6.860
17448TIP3    H2 2813   8.126   2.105   6.744
17449TIP3   OH2 2814   0.248   3.361   7.210
17449TIP3    H1 2815   0.165   3.373   7.164
17449TIP3    H2 2816   0.219   3.345   7.300
17450TIP3   OH2 2817   0.543   3.452   6.832
17450TIP3    H1 2818   0.506   3.539   6.808
17450TIP3    H2 2819   0.636   3.466   6.804
17451TIP3   OH2 2820   0.975   3.598   7.128
17451TIP3    H1 2821   0.992   3.562   7.219
17451TIP3    H2 2822   1.064   3.628   7.100
17452TIP3   OH2 2823   1.203   3.724   7.057
17452TIP3    H1 2824   1.276   3.666   7.032
17452TIP3    H2 2825   1.240   3.767   7.137
17453TIP3   OH2 2826   1.704   1.987   6.967
17453TIP3    H1 2827   1.620   2.013   6.925
17453TIP3    H2 2828   1.722   1.905   6.916
17454TIP3   OH2 2829   0.283   3.778   6.836
17454TIP3    H1 2830   0.211   3.829   6.795
17454TIP3    H2 2831   0.250   3.761   6.925
17455TIP3   OH2 2832   0.532   3.737   6.742
17455TIP3    H1 2833   0.442   3.751   6.781
17455TIP3    H2 2834   0.525   3.796   6.664
17456TIP3   OH2 2835   1.002   3.728   6.659
17456TIP3    H1 2836   0.956   3.784   6.594
17456TIP3    H2 2837   1.016   3.792   6.733
17457TIP3   OH2 2838   1.231   3.609   6.761
17457TIP3    H1 2839   1.145   3.637   6.725
17457TIP3    H2 2840   1.279   3.694   6.752
17458TIP3   OH2 2841   1.489   3.766   6.784
17458TIP3    H1 2842   1.483   3.862   6.761
17458TIP3    H2 2843   1.511   3.729   6.696
17459TIP3   OH2 2844   0.229   3.641   6.527
17459TIP3    H1 2845   0.228   3.598   6.614
17459TIP3    H2 2846   0.312   3.608   6.488
17460TIP3   OH2 2847   0.436   3.515   6.395
17460TIP3    H1 2848   0.421   3.421   6.416
17460TIP3    H2 2849   0.522   3.531   6.440
17461TIP3   OH2 2850   0.697   3.565   6.481
17461TIP3    H1 2851   0.713   3.473   6.454
17461TIP3    H2 2852   0.703   3.558   6.577
17462TIP3   OH2 2853   1.044   2.129   6.396
17462TIP3    H1 2854   0.976   2.064   6.423
17462TIP3    H2 2855   1.099   2.075   6.337
17463TIP3   OH2 2856   1.558   1.934   6.403
17463TIP3    H1 2857   1.619   1.993   6.352
17463TIP3    H2 2858   1.469   1.969   6.379
17464TIP3   OH2 2859   1.725   2.059   6.230
17464TIP3    H1 2860   1.794   2.002   6.188
17464TIP3    H2 2861   1.775   2.143   6.240
17465TIP3   OH2 2862   0.280   1.990   6.179
17465TIP3    H1 2863   0.199   1.969   6.129
17465TIP3    H2 2864   0.329   1.905   6.174
17466TIP3   OH2 2865   0.161   1.965   5.755
17466TIP3    H1 2866   0.206   2.030   5.698
17466TIP3    H2 2867   0.099   2.018   5.807
17467TIP3   OH2 2868   0.728   1.984   6.159
17467TIP3    H1 2869   0.818   2.020   6.152
17467TIP3    H2 2870   0.724   1.962   6.252
17468TIP3   OH2 2871   1.299   1.985   6.322
17468TIP3    H1 2872   1.295   1.997   6.226
17468TIP3    H2 2873   1.261   1.895   6.334
17469TIP3   OH2 2874   1.427   1.988   5.887
17469TIP3    H1 2875   1.352   2.048   5.872
17469TIP3    H2 2876   1.383   1.903   5.911
17470TIP3   OH2 2877   0.147   3.563   5.857
17470TIP3    H1 2878   0.086   3.561   5.782
17470TIP3    H2 2879   0.155   3.658   5.869
17471TIP3   OH2 2880   0.338   2.159   5.606
17471TIP3    H1 2881   0.392   2.100   5.551
17471TIP3    H2 2882   0.408   2.193   5.664
17472TIP3   OH2 2883   0.844   2.186   5.844
17472TIP3    H1 2884   0.869   2.128   5.918
17472TIP3    H2 2885   0.850   2.272   5.892
17473TIP3   OH2 2886   1.035   3.697   5.685
17473TIP3    H1 2887   1.129   3.714   5.669
17473TIP3    H2 2888   1.016   3.639   5.607
17474TIP3   OH2 2889   1.707   3.643   5.960
17474TIP3    H1 2890   1.687   3.565   5.902
17474TIP3    H2 2891   1.698   3.717   5.896
17475TIP3   OH2 2892   0.264   2.048   7.132
17475TIP3    H1 2893   0.231   1.962   7.164
17475TIP3    H2 2894   0.358   2.042   7.159
17476TIP3   OH2 2895   0.471   1.983   7.289
17476TIP3    H1 2896   0.559   1.950   7.263
17476TIP3    H2 2897   0.432   1.902   7.325
17477TIP3   OH2 2898   0.333   3.660   5.550
17477TIP3    H1 2899   0.303   3.688   5.637
17477TIP3    H2 2900   0.406   3.602   5.568
17478TIP3   OH2 2901   1.313   1.914   7.299
17478TIP3    H1 2902   1.316   1.868   7.386
17478TIP3    H2 2903   1.404   1.909   7.268
17479TIP3   OH2 2904   1.634   3.520   7.165
17479TIP3    H1 2905   1.550   3.501   7.117
17479TIP3    H2 2906   1.618   3.613   7.190
17480TIP3   OH2 2907   3.075   2.905   6.166
17480TIP3    H1 2908   3.074   3.003   6.162
17480TIP3    H2 2909   3.002   2.881   6.106
17481TIP3   OH2 2910   2.963   2.830   6.517
17481TIP3    H1 2911   2.958   2.766   6.588
17481TIP3    H2 2912   2.927   2.781   6.441
17482TIP3   OH2 2913   2.196   2.798   6.671
17482TIP3    H1 2914   2.206   2.730   6.741
17482TIP3    H2 2915   2.271   2.856   6.693
17483TIP3   OH2 2916   3.331   3.124   6.346
17483TIP3    H1 2917   3.287   3.054   6.394
17483TIP3    H2 2918   3.332   3.196   6.412
17484TIP3   OH2 2919   2.289   3.243   6.522
17484TIP3    H1 2920   2.258   3.156   6.490
17484TIP3    H2 2921   2.385   3.224   6.527
17485TIP3   OH2 2922   1.960   2.599   6.058
17485TIP3    H1 2923   1.909   2.684   6.067
17485TIP3    H2 2924   1.891   2.545   6.018
17486TIP3   OH2 2925   2.023   2.819   6.281
17486TIP3    H1 2926   2.051   2.741   6.332
17486TIP3    H2 2927   2.096   2.835   6.221
17487TIP3   OH2 2928   3.042   3.641   6.368
17487TIP3    H1 2929   3.106   3.572   6.340
17487TIP3    H2 2930   3.020   3.608   6.456
17488TIP3   OH2 2931   2.798   3.071   6.562
17488TIP3    H1 2932   2.833   3.008   6.498
17488TIP3    H2 2933   2.879   3.087   6.615
17489TIP3   OH2 2934   3.655   2.240   6.635
17489TIP3    H1 2935   3.678   2.293   6.715
17489TIP3    H2 2936   3.717   2.277   6.570
17490TIP3   OH2 2937   3.123   2.518   6.593
17490TIP3    H1 2938   3.129   2.421   6.594
17490TIP3    H2 2939   3.102   2.531   6.498
17491TIP3   OH2 2940   2.427   2.326   6.316
17491TIP3    H1 2941   2.439   2.410   6.269
17491TIP3    H2 2942   2.387   2.268   6.248
17492TIP3   OH2 2943   3.200   2.334   6.153
17492TIP3    H1 2944   3.265   2.302   6.219
17492TIP3    H2 2945   3.256   2.391   6.099
17493TIP3   OH2 2946   2.090   2.569   6.390
17493TIP3    H1 2947   2.155   2.514   6.438
17493TIP3    H2 2948   2.099   2.532   6.301
17494TIP3   OH2 2949   2.603   2.722   6.320
17494TIP3    H1 2950   2.671   2.666   6.361
17494TIP3    H2 2951   2.553   2.655   6.271
17495TIP3   OH2 2952   3.702   2.378   6.862
17495TIP3    H1 2953   3.639   2.453   6.859
17495TIP3    H2 2954   3.708   2.366   6.958
17496TIP3   OH2 2955   2.317   2.216   6.721
17496TIP3    H1 2956   2.289   2.273   6.646
17496TIP3    H2 2957   2.249   2.239   6.788
17497TIP3   OH2 2958   3.046   3.164   6.075
17497TIP3    H1 2959   3.019   3.136   5.987
17497TIP3    H2 2960   3.016   3.258   6.080
17498TIP3   OH2 2961   2.569   2.981   6.744
17498TIP3    H1 2962   2.498   3.045   6.766
17498TIP3    H2 2963   2.640   3.040   6.716
17499TIP3   OH2 2964   3.380   2.270   6.353
17499TIP3    H1 2965   3.359   2.191   6.405
17499TIP3    H2 2966   3.450   2.311   6.407
17500TIP3   OH2 2967   2.273   2.404   6.521
17500TIP3    H1 2968   2.337   2.471   6.555
17500TIP3    H2 2969   2.327   2.360   6.450
17501TIP3   OH2 2970   2.414   3.180   6.827
17501TIP3    H1 2971   2.409   3.272   6.793
17501TIP3    H2 2972   2.325   3.173   6.871
17502TIP3   OH2 2973   2.020   3.143   5.905
17502TIP3    H1 2974   1.998   3.175   5.815
17502TIP3    H2 2975   2.028   3.226   5.956
17503TIP3   OH2 2976   3.383   3.309   6.581
17503TIP3    H1 2977   3.286   3.320   6.594
17503TIP3    H2 2978   3.410   3.401   6.562
17504TIP3   OH2 2979   3.415   2.140   6.722
17504TIP3    H1 2980   3.340   2.200   6.711
17504TIP3    H2 2981   3.486   2.178   6.667
17505TIP3   OH2 2982   2.712   1.950   6.467
17505TIP3    H1 2983   2.697   1.853   6.459
17505TIP3    H2 2984   2.624   1.980   6.497
17506TIP3   OH2 2985   3.208   3.488   6.240
17506TIP3    H1 2986   3.251   3.416   6.190
17506TIP3    H2 2987   3.251   3.567   6.201
17507TIP3   OH2 2988   3.329   3.280   6.092
17507TIP3    H1 2989   3.301   3.211   6.030
17507TIP3    H2 2990   3.333   3.231   6.176
17508TIP3   OH2 2991   3.496   3.138   6.941
17508TIP3    H1 2992   3.505   3.075   6.868
17508TIP3    H2 2993   3.509   3.224   6.898
17509TIP3   OH2 2994   2.940   2.828   5.918
17509TIP3    H1 2995   2.871   2.885   5.881
17509TIP3    H2 2996   3.011   2.837   5.852
17510TIP3   OH2 2997   2.948   2.685   5.620
17510TIP3    H1 2998   3.018   2.684   5.688
17510TIP3    H2 2999   2.978   2.612   5.565
17511TIP3   OH2 3000   3.671   2.765   6.735
17511TIP3    H1 3001   3.620   2.848   6.754
17511TIP3    H2 3002   3.735   2.799   6.668
17512TIP3   OH2 3003   3.286   2.851   6.011
17512TIP3    H1 3004   3.211   2.874   6.070
17512TIP3    H2 3005   3.332   2.782   6.062
17513TIP3   OH2 3006   3.281   2.669   6.916
17513TIP3    H1 3007   3.278   2.747   6.976
17513TIP3    H2 3008   3.210   2.698   6.855
17514TIP3   OH2 3009   2.447   2.916   6.202
17514TIP3    H1 3010   2.417   2.878   6.117
17514TIP3    H2 3011   2.510   2.848   6.236
17515TIP3   OH2 3012   2.579   3.254   6.470
17515TIP3    H1 3013   2.578   3.201   6.389
17515TIP3    H2 3014   2.657   3.219   6.515
17516TIP3   OH2 3015   2.480   2.790   6.568
17516TIP3    H1 3016   2.535   2.801   6.487
17516TIP3    H2 3017   2.519   2.857   6.629
17517TIP3   OH2 3018   3.121   3.348   6.641
17517TIP3    H1 3019   3.092   3.411   6.707
17517TIP3    H2 3020   3.096   3.262   6.683
17518TIP3   OH2 3021   2.575   3.233   7.039
17518TIP3    H1 3022   2.534   3.309   7.086
17518TIP3    H2 3023   2.509   3.213   6.969
17519TIP3   OH2 3024   3.173   2.768   5.778
17519TIP3    H1 3025   3.229   2.787   5.858
17519TIP3    H2 3026   3.215   2.820   5.706
17520TIP3   OH2 3027   2.271   2.849   6.956
17520TIP3    H1 3028   2.273   2.916   7.026
17520TIP3    H2 3029   2.178   2.860   6.928
17521TIP3   OH2 3030   2.945   3.442   6.123
17521TIP3    H1 3031   2.988   3.473   6.204
17521TIP3    H2 3032   2.888   3.517   6.100
17522TIP3   OH2 3033   2.399   3.436   7.112
17522TIP3    H1 3034   2.394   3.426   7.015
17522TIP3    H2 3035   2.306   3.424   7.137
17523TIP3   OH2 3036   3.545   1.943   5.767
17523TIP3    H1 3037   3.450   1.954   5.790
17523TIP3    H2 3038   3.566   2.028   5.725
17524TIP3   OH2 3039   2.342   2.819   5.966
17524TIP3    H1 3040   2.319   2.898   5.913
17524TIP3    H2 3041   2.278   2.758   5.934
17525TIP3   OH2 3042   3.655   3.378   5.610
17525TIP3    H1 3043   3.669   3.474   5.614
17525TIP3    H2 3044   3.746   3.348   5.593
17526TIP3   OH2 3045   1.961   3.062   6.847
17526TIP3    H1 3046   1.906   3.053   6.767
17526TIP3    H2 3047   1.960   2.969   6.875
17527TIP3   OH2 3048   1.929   3.335   6.530
17527TIP3    H1 3049   2.025   3.323   6.528
17527TIP3    H2 3050   1.921   3.416   6.581
17528TIP3   OH2 3051   3.751   3.404   7.097
17528TIP3    H1 3052   3.741   3.308   7.096
17528TIP3    H2 3053   3.665   3.428   7.139
17529TIP3   OH2 3054   2.847   3.361   6.981
17529TIP3    H1 3055   2.857   3.441   7.037
17529TIP3    H2 3056   2.764   3.322   7.013
17530TIP3   OH2 3057   2.891   3.733   5.965
17530TIP3    H1 3058   2.883   3.726   5.868
17530TIP3    H2 3059   2.895   3.830   5.980
17531TIP3   OH2 3060   2.256   3.621   6.147
17531TIP3    H1 3061   2.271   3.579   6.235
17531TIP3    H2 3062   2.171   3.580   6.123
17532TIP3   OH2 3063   3.193   3.652   5.660
17532TIP3    H1 3064   3.244   3.578   5.619
17532TIP3    H2 3065   3.202   3.628   5.755
17533TIP3   OH2 3066   3.167   3.648   5.941
17533TIP3    H1 3067   3.071   3.655   5.960
17533TIP3    H2 3068   3.192   3.574   5.998
17534TIP3   OH2 3069   3.471   2.552   7.144
17534TIP3    H1 3070   3.419   2.597   7.076
17534TIP3    H2 3071   3.466   2.458   7.119
17535TIP3   OH2 3072   2.181   3.192   6.948
17535TIP3    H1 3073   2.201   3.154   7.036
17535TIP3    H2 3074   2.094   3.152   6.925
17536TIP3   OH2 3075   2.449   2.041   6.541
17536TIP3    H1 3076   2.358   2.028   6.505
17536TIP3    H2 3077   2.436   2.124   6.589
17537TIP3   OH2 3078   2.914   2.007   6.880
17537TIP3    H1 3079   2.952   1.965   6.958
17537TIP3    H2 3080   2.816   1.995   6.892
17538TIP3   OH2 3081   3.243   2.392   6.968
17538TIP3    H1 3082   3.187   2.370   7.046
17538TIP3    H2 3083   3.222   2.484   6.947
17539TIP3   OH2 3084   3.318   2.870   5.547
17539TIP3    H1 3085   3.320   2.853   5.452
17539TIP3    H2 3086   3.402   2.917   5.563
17540TIP3   OH2 3087   2.877   2.264   5.612
17540TIP3    H1 3088   2.845   2.259   5.705
17540TIP3    H2 3089   2.850   2.176   5.584
17541TIP3   OH2 3090   2.460   2.537   6.667
17541TIP3    H1 3091   2.386   2.536   6.731
17541TIP3    H2 3092   2.453   2.628   6.629
17542TIP3   OH2 3093   2.452   2.555   6.149
17542TIP3    H1 3094   2.363   2.517   6.145
17542TIP3    H2 3095   2.496   2.518   6.070
17543TIP3   OH2 3096   3.007   2.599   6.031
17543TIP3    H1 3097   2.967   2.682   5.996
17543TIP3    H2 3098   3.076   2.583   5.963
17544TIP3   OH2 3099   2.913   2.619   7.176
17544TIP3    H1 3100   2.861   2.541   7.204
17544TIP3    H2 3101   2.998   2.611   7.222
17545TIP3   OH2 3102   3.114   2.549   6.314
17545TIP3    H1 3103   3.082   2.604   6.241
17545TIP3    H2 3104   3.120   2.463   6.268
17546TIP3   OH2 3105   2.220   2.564   6.837
17546TIP3    H1 3106   2.233   2.603   6.925
17546TIP3    H2 3107   2.180   2.478   6.856
17547TIP3   OH2 3108   2.560   2.297   5.519
17547TIP3    H1 3109   2.515   2.259   5.595
17547TIP3    H2 3110   2.490   2.344   5.470
17548TIP3   OH2 3111   1.890   2.279   6.231
17548TIP3    H1 3112   1.954   2.268   6.305
17548TIP3    H2 3113   1.932   2.232   6.156
17549TIP3   OH2 3114   2.023   2.352   5.780
17549TIP3    H1 3115   2.063   2.404   5.708
17549TIP3    H2 3116   1.943   2.407   5.799
17550TIP3   OH2 3117   3.036   2.706   6.773
17550TIP3    H1 3118   3.067   2.637   6.711
17550TIP3    H2 3119   2.983   2.655   6.838
17551TIP3   OH2 3120   2.712   2.304   6.254
17551TIP3    H1 3121   2.619   2.304   6.284
17551TIP3    H2 3122   2.760   2.288   6.336
17552TIP3   OH2 3123   2.190   2.444   6.158
17552TIP3    H1 3124   2.098   2.458   6.126
17552TIP3    H2 3125   2.221   2.362   6.113
17553TIP3   OH2 3126   2.553   2.469   5.908
17553TIP3    H1 3127   2.650   2.473   5.920
17553TIP3    H2 3128   2.536   2.530   5.834
17554TIP3   OH2 3129   3.153   2.230   6.579
17554TIP3    H1 3130   3.084   2.233   6.648
17554TIP3    H2 3131   3.102   2.203   6.500
17555TIP3   OH2 3132   2.425   2.581   5.667
17555TIP3    H1 3133   2.373   2.547   5.592
17555TIP3    H2 3134   2.507   2.603   5.619
17556TIP3   OH2 3135   3.472   3.791   7.213
17556TIP3    H1 3136   3.499   3.830   7.127
17556TIP3    H2 3137   3.544   3.823   7.270
17557TIP3   OH2 3138   2.240   3.038   7.169
17557TIP3    H1 3139   2.311   3.065   7.228
17557TIP3    H2 3140   2.162   3.050   7.227
17558TIP3   OH2 3141   2.840   2.580   6.444
17558TIP3    H1 3142   2.899   2.526   6.390
17558TIP3    H2 3143   2.825   2.525   6.522
17559TIP3   OH2 3144   2.338   2.197   6.083
17559TIP3    H1 3145   2.310   2.103   6.087
17559TIP3    H2 3146   2.421   2.186   6.033
17560TIP3   OH2 3147   2.703   2.413   6.685
17560TIP3    H1 3148   2.621   2.464   6.694
17560TIP3    H2 3149   2.758   2.448   6.758
17561TIP3   OH2 3150   2.762   3.036   5.853
17561TIP3    H1 3151   2.682   2.988   5.822
17561TIP3    H2 3152   2.741   3.047   5.948
17562TIP3   OH2 3153   3.482   2.946   6.729
17562TIP3    H1 3154   3.536   3.006   6.673
17562TIP3    H2 3155   3.393   2.964   6.691
17563TIP3   OH2 3156   3.145   2.313   5.676
17563TIP3    H1 3157   3.052   2.329   5.656
17563TIP3    H2 3158   3.178   2.401   5.703
17564TIP3   OH2 3159   2.902   3.060   6.974
17564TIP3    H1 3160   2.883   3.020   7.060
17564TIP3    H2 3161   2.890   3.154   6.992
17565TIP3   OH2 3162   3.219   2.509   5.839
17565TIP3    H1 3163   3.309   2.494   5.876
17565TIP3    H2 3164   3.228   2.590   5.787
17566TIP3   OH2 3165   2.273   2.973   6.435
17566TIP3    H1 3166   2.343   2.967   6.367
17566TIP3    H2 3167   2.280   2.888   6.480
17567TIP3   OH2 3168   2.971   3.183   5.760
17567TIP3    H1 3169   2.936   3.267   5.796
17567TIP3    H2 3170   2.897   3.121   5.781
17568TIP3   OH2 3171   1.973   2.814   6.961
17568TIP3    H1 3172   1.992   2.772   7.046
17568TIP3    H2 3173   1.909   2.757   6.916
17569TIP3   OH2 3174   2.672   2.767   7.181
17569TIP3    H1 3175   2.643   2.743   7.092
17569TIP3    H2 3176   2.768   2.745   7.177
17570TIP3   OH2 3177   3.140   3.315   6.968
17570TIP3    H1 3178   3.045   3.321   6.952
17570TIP3    H2 3179   3.139   3.324   7.065
17571TIP3   OH2 3180   3.708   2.522   5.814
17571TIP3    H1 3181   3.651   2.492   5.740
17571TIP3    H2 3182   3.716   2.616   5.786
17572TIP3   OH2 3183   3.709   3.109   7.095
17572TIP3    H1 3184   3.618   3.129   7.059
17572TIP3    H2 3185   3.762   3.103   7.012
17573TIP3   OH2 3186   3.538   3.405   5.854
17573TIP3    H1 3187   3.501   3.322   5.886
17573TIP3    H2 3188   3.568   3.386   5.762
17574TIP3   OH2 3189   3.258   2.885   6.565
17574TIP3    H1 3190   3.163   2.868   6.552
17574TIP3    H2 3191   3.298   2.811   6.516
17575TIP3   OH2 3192   2.510   3.320   6.173
17575TIP3    H1 3193   2.560   3.400   6.152
17575TIP3    H2 3194   2.422   3.343   6.140
17576TIP3   OH2 3195   2.084   2.801   5.630
17576TIP3    H1 3196   2.145   2.869   5.665
17576TIP3    H2 3197   1.998   2.835   5.659
17577TIP3   OH2 3198   2.652   3.086   6.124
17577TIP3    H1 3199   2.621   3.178   6.134
17577TIP3    H2 3200   2.580   3.037   6.169
17578TIP3   OH2 3201   2.697   3.505   6.765
17578TIP3    H1 3202   2.743   3.585   6.737
17578TIP3    H2 3203   2.759   3.470   6.833
17579TIP3   OH2 3204   2.519   3.585   6.079
17579TIP3    H1 3205   2.423   3.600   6.091
17579TIP3    H2 3206   2.556   3.670   6.112
17580TIP3   OH2 3207   3.046   3.105   6.726
17580TIP3    H1 3208   3.018   3.088   6.818
17580TIP3    H2 3209   3.113   3.036   6.713
17581TIP3   OH2 3210   3.278   3.209   5.638
17581TIP3    H1 3211   3.312   3.164   5.718
17581TIP3    H2 3212   3.184   3.193   5.647
17582TIP3   OH2 3213   3.331   3.565   6.977
17582TIP3    H1 3214   3.262   3.512   6.931
17582TIP3    H2 3215   3.349   3.633   6.909
17583TIP3   OH2 3216   3.729   3.651   5.659
17583TIP3    H1 3217   3.801   3.713   5.641
17583TIP3    H2 3218   3.658   3.710   5.691
17584TIP3   OH2 3219   2.136   2.289   6.915
17584TIP3    H1 3220   2.046   2.321   6.912
17584TIP3    H2 3221   2.128   2.203   6.961
17585TIP3   OH2 3222   3.361   3.075   5.861
17585TIP3    H1 3223   3.336   2.996   5.914
17585TIP3    H2 3224   3.456   3.080   5.880
17586TIP3   OH2 3225   2.099   3.467   6.759
17586TIP3    H1 3226   2.128   3.374   6.759
17586TIP3    H2 3227   2.125   3.496   6.847
17587TIP3   OH2 3228   2.695   3.315   5.483
17587TIP3    H1 3229   2.710   3.239   5.429
17587TIP3    H2 3230   2.652   3.281   5.564
17588TIP3   OH2 3231   2.574   3.273   5.730
17588TIP3    H1 3232   2.599   3.221   5.807
17588TIP3    H2 3233   2.581   3.366   5.761
17589TIP3   OH2 3234   2.225   2.997   5.779
17589TIP3    H1 3235   2.156   3.040   5.834
17589TIP3    H2 3236   2.278   3.074   5.751
17590TIP3   OH2 3237   3.010   2.266   6.809
17590TIP3    H1 3238   3.081   2.272   6.875
17590TIP3    H2 3239   2.971   2.179   6.830
17591TIP3   OH2 3240   3.083   2.224   5.922
17591TIP3    H1 3241   3.108   2.269   5.839
17591TIP3    H2 3242   3.143   2.267   5.985
17592TIP3   OH2 3243   2.854   3.438   5.799
17592TIP3    H1 3244   2.772   3.491   5.810
17592TIP3    H2 3245   2.906   3.493   5.738
17593TIP3   OH2 3246   2.807   2.398   6.003
17593TIP3    H1 3247   2.886   2.455   6.006
17593TIP3    H2 3248   2.782   2.386   6.096
17594TIP3   OH2 3249   2.861   2.499   6.920
17594TIP3    H1 3250   2.872   2.559   6.997
17594TIP3    H2 3251   2.930   2.431   6.929
17595TIP3   OH2 3252   2.893   2.104   6.091
17595TIP3    H1 3253   2.861   2.169   6.155
17595TIP3    H2 3254   2.962   2.158   6.045
17596TIP3   OH2 3255   2.591   3.542   5.806
17596TIP3    H1 3256   2.606   3.624   5.753
17596TIP3    H2 3257   2.566   3.578   5.893
17597TIP3   OH2 3258   2.458   2.214   5.767
17597TIP3    H1 3259   2.456   2.305   5.798
17597TIP3    H2 3260   2.549   2.187   5.789
17598TIP3   OH2 3261   3.481   2.285   7.006
17598TIP3    H1 3262   3.388   2.317   6.994
17598TIP3    H2 3263   3.511   2.283   6.914
17599TIP3   OH2 3264   3.343   2.665   6.417
17599TIP3    H1 3265   3.261   2.625   6.378
17599TIP3    H2 3266   3.388   2.586   6.451
17600TIP3   OH2 3267   2.284   3.256   5.668
17600TIP3    H1 3268   2.348   3.322   5.697
17600TIP3    H2 3269   2.334   3.212   5.597
17601TIP3   OH2 3270   2.117   2.525   5.592
17601TIP3    H1 3271   2.118   2.622   5.594
17601TIP3    H2 3272   2.034   2.505   5.547
17602TIP3   OH2 3273   3.449   3.591   6.574
17602TIP3    H1 3274   3.439   3.660   6.505
17602TIP3    H2 3275   3.545   3.597   6.592
17603TIP3   OH2 3276   2.198   2.004   6.454
17603TIP3    H1 3277   2.178   2.006   6.358
17603TIP3    H2 3278   2.156   1.919   6.480
17604TIP3   OH2 3279   2.094   3.396   6.068
17604TIP3    H1 3280   2.008   3.441   6.065
17604TIP3    H2 3281   2.141   3.443   5.999
17605TIP3   OH2 3282   2.015   3.661   7.200
17605TIP3    H1 3283   2.073   3.639   7.274
17605TIP3    H2 3284   1.972   3.575   7.181
17606TIP3   OH2 3285   2.481   3.552   7.360
17606TIP3    H1 3286   2.559   3.503   7.389
17606TIP3    H2 3287   2.476   3.525   7.267
17607TIP3   OH2 3288   2.893   3.504   5.497
17607TIP3    H1 3289   2.822   3.440   5.520
17607TIP3    H2 3290   2.966   3.445   5.475
17608TIP3   OH2 3291   3.127   3.418   7.239
17608TIP3    H1 3292   3.104   3.322   7.246
17608TIP3    H2 3293   3.212   3.408   7.286
17609TIP3   OH2 3294   3.352   3.482   5.519
17609TIP3    H1 3295   3.377   3.400   5.565
17609TIP3    H2 3296   3.429   3.499   5.465
17610TIP3   OH2 3297   2.005   3.035   7.298
17610TIP3    H1 3298   2.024   2.949   7.258
17610TIP3    H2 3299   1.933   3.069   7.239
17611TIP3   OH2 3300   2.443   3.072   5.502
17611TIP3    H1 3301   2.452   2.995   5.561
17611TIP3    H2 3302   2.508   3.058   5.435
17612TIP3   OH2 3303   2.674   3.038   7.234
17612TIP3    H1 3304   2.643   3.068   7.148
17612TIP3    H2 3305   2.687   2.941   7.224
17613TIP3   OH2 3306   2.971   3.180   5.476
17613TIP3    H1 3307   2.957   3.196   5.572
17613TIP3    H2 3308   2.964   3.084   5.471
17614TIP3   OH2 3309   3.249   3.022   6.951
17614TIP3    H1 3310   3.324   3.082   6.972
17614TIP3    H2 3311   3.179   3.081   6.985
17615TIP3   OH2 3312   2.094   2.761   7.237
17615TIP3    H1 3313   2.143   2.679   7.223
17615TIP3    H2 3314   2.075   2.760   7.330
17616TIP3   OH2 3315   2.561   2.875   5.739
17616TIP3    H1 3316   2.513   2.822   5.804
17616TIP3    H2 3317   2.592   2.806   5.676
17617TIP3   OH2 3318   2.487   2.654   6.972
17617TIP3    H1 3319   2.427   2.727   6.998
17617TIP3    H2 3320   2.526   2.691   6.891
17618TIP3   OH2 3321   2.669   2.706   5.558
17618TIP3    H1 3322   2.655   2.675   5.468
17618TIP3    H2 3323   2.766   2.700   5.573
17619TIP3   OH2 3324   2.990   2.901   7.298
17619TIP3    H1 3325   3.086   2.919   7.296
17619TIP3    H2 3326   2.977   2.835   7.366
17620TIP3   OH2 3327   3.602   2.932   5.506
17620TIP3    H1 3328   3.579   2.891   5.422
17620TIP3    H2 3329   3.611   3.025   5.483
17621TIP3   OH2 3330   2.532   2.394   7.079
17621TIP3    H1 3331   2.537   2.323   7.013
17621TIP3    H2 3332   2.522   2.474   7.023
17622TIP3   OH2 3333   2.568   2.232   6.832
17622TIP3    H1 3334   2.619   2.278   6.761
17622TIP3    H2 3335   2.479   2.224   6.792
17623TIP3   OH2 3336   2.722   2.780   6.857
17623TIP3    H1 3337   2.797   2.764   6.799
17623TIP3    H2 3338   2.686   2.864   6.824
17624TIP3   OH2 3339   3.159   2.554   7.357
17624TIP3    H1 3340   3.188   2.463   7.348
17624TIP3    H2 3341   3.244   2.602   7.352
17625TIP3   OH2 3342   3.296   2.831   7.159
17625TIP3    H1 3343   3.268   2.913   7.112
17625TIP3    H2 3344   3.392   2.836   7.148
17626TIP3   OH2 3345   2.375   2.517   7.271
17626TIP3    H1 3346   2.297   2.461   7.253
17626TIP3    H2 3347   2.437   2.482   7.205
17627TIP3   OH2 3348   2.646   1.975   6.871
17627TIP3    H1 3349   2.629   2.072   6.860
17627TIP3    H2 3350   2.571   1.938   6.821
17628TIP3   OH2 3351   2.773   2.405   7.232
17628TIP3    H1 3352   2.746   2.383   7.320
17628TIP3    H2 3353   2.695   2.389   7.175
17629TIP3   OH2 3354   3.046   2.324   7.142
17629TIP3    H1 3355   2.949   2.327   7.151
17629TIP3    H2 3356   3.074   2.258   7.207
17630TIP3   OH2 3357   3.199   2.182   7.336
17630TIP3    H1 3358   3.199   2.087   7.337
17630TIP3    H2 3359   3.181   2.213   7.427
17631TIP3   OH2 3360   2.179   2.313   7.243
17631TIP3    H1 3361   2.208   2.240   7.184
17631TIP3    H2 3362   2.176   2.266   7.329
17632TIP3   OH2 3363   2.672   1.918   7.140
17632TIP3    H1 3364   2.734   1.841   7.139
17632TIP3    H2 3365   2.656   1.929   7.044
17633TIP3   OH2 3366   2.706   2.082   7.347
17633TIP3    H1 3367   2.689   2.023   7.269
17633TIP3    H2 3368   2.638   2.147   7.336
17634TIP3   OH2 3369   2.652   3.771   5.670
17634TIP3    H1 3370   2.750   3.775   5.674
17634TIP3    H2 3371   2.634   3.829   5.597
17635TIP3   OH2 3372   2.011   3.226   5.618
17635TIP3    H1 3373   2.106   3.235   5.639
17635TIP3    H2 3374   2.016   3.165   5.543
17636TIP3   OH2 3375   1.884   3.763   6.113
17636TIP3    H1 3376   1.813   3.714   6.066
17636TIP3    H2 3377   1.913   3.698   6.179
17637TIP3   OH2 3378   1.967   3.576   6.300
17637TIP3    H1 3379   1.932   3.488   6.320
17637TIP3    H2 3380   1.989   3.609   6.389
17638TIP3   OH2 3381   3.720   3.656   6.594
17638TIP3    H1 3382   3.723   3.672   6.690
17638TIP3    H2 3383   3.791   3.714   6.563
17639TIP3   OH2 3384   3.678   3.616   6.888
17639TIP3    H1 3385   3.630   3.539   6.850
17639TIP3    H2 3386   3.727   3.571   6.958
17640TIP3   OH2 3387   3.523   3.185   7.354
17640TIP3    H1 3388   3.432   3.181   7.390
17640TIP3    H2 3389   3.558   3.267   7.397
17641TIP3   OH2 3390   3.654   3.020   5.898
17641TIP3    H1 3391   3.740   3.060   5.917
17641TIP3    H2 3392   3.653   2.949   5.965
17642TIP3   OH2 3393   3.690   2.829   6.087
17642TIP3    H1 3394   3.615   2.778   6.124
17642TIP3    H2 3395   3.751   2.842   6.162
17643TIP3   OH2 3396   3.666   3.097   6.586
17643TIP3    H1 3397   3.748   3.062   6.547
17643TIP3    H2 3398   3.679   3.193   6.569
17644TIP3   OH2 3399   3.522   3.389   6.812
17644TIP3    H1 3400   3.452   3.421   6.872
17644TIP3    H2 3401   3.468   3.349   6.741
17645TIP3   OH2 3402   3.720   2.812   5.724
17645TIP3    H1 3403   3.663   2.847   5.653
17645TIP3    H2 3404   3.711   2.882   5.792
17646TIP3   OH2 3405   3.553   2.532   5.582
17646TIP3    H1 3406   3.564   2.598   5.513
17646TIP3    H2 3407   3.539   2.450   5.530
17647TIP3   OH2 3408   3.474   2.675   6.146
17647TIP3    H1 3409   3.456   2.580   6.138
17647TIP3    H2 3410   3.436   2.698   6.231
17648TIP3   OH2 3411   1.973   2.884   6.548
17648TIP3    H1 3412   1.991   2.876   6.453
17648TIP3    H2 3413   2.062   2.867   6.585
17649TIP3   OH2 3414   3.559   2.872   7.108
17649TIP3    H1 3415   3.618   2.797   7.129
17649TIP3    H2 3416   3.616   2.951   7.115
17650TIP3   OH2 3417   3.708   2.662   7.173
17650TIP3    H1 3418   3.620   2.620   7.163
17650TIP3    H2 3419   3.766   2.583   7.171
17651TIP3   OH2 3420   3.480   2.283   5.496
17651TIP3    H1 3421   3.540   2.235   5.556
17651TIP3    H2 3422   3.394   2.239   5.508
17652TIP3   OH2 3423   3.439   2.434   5.991
17652TIP3    H1 3424   3.469   2.341   6.003
17652TIP3    H2 3425   3.518   2.474   5.952
17653TIP3   OH2 3426   3.502   2.472   6.514
17653TIP3    H1 3427   3.599   2.491   6.517
17653TIP3    H2 3428   3.476   2.459   6.606
17654TIP3   OH2 3429   3.509   2.561   6.833
17654TIP3    H1 3430   3.417   2.588   6.858
17654TIP3    H2 3431   3.557   2.646   6.820
17655TIP3   OH2 3432   1.929   2.414   7.162
17655TIP3    H1 3433   2.025   2.395   7.181
17655TIP3    H2 3434   1.893   2.328   7.194
17656TIP3   OH2 3435   3.739   1.967   7.348
17656TIP3    H1 3436   3.771   1.900   7.285
17656TIP3    H2 3437   3.747   2.048   7.294
17657TIP3   OH2 3438   3.505   2.161   5.994
17657TIP3    H1 3439   3.527   2.117   6.079
17657TIP3    H2 3440   3.445   2.098   5.950
17658TIP3   OH2 3441   2.055   2.244   6.448
17658TIP3    H1 3442   2.100   2.161   6.476
17658TIP3    H2 3443   2.108   2.312   6.491
17659TIP3   OH2 3444   1.883   2.543   6.557
17659TIP3    H1 3445   1.938   2.518   6.480
17659TIP3    H2 3446   1.929   2.625   6.580
17660TIP3   OH2 3447   3.689   2.173   7.183
17660TIP3    H1 3448   3.596   2.204   7.176
17660TIP3    H2 3449   3.694   2.122   7.101
17661TIP3   OH2 3450   3.688   2.168   5.648
17661TIP3    H1 3451   3.731   2.096   5.601
17661TIP3    H2 3452   3.760   2.233   5.655
17662TIP3   OH2 3453   1.919   2.172   5.962
17662TIP3    H1 3454   1.824   2.186   5.948
17662TIP3    H2 3455   1.960   2.217   5.887
17663TIP3   OH2 3456   3.393   3.664   6.156
17663TIP3    H1 3457   3.461   3.633   6.094
17663TIP3    H2 3458   3.444   3.714   6.221
17664TIP3   OH2 3459   1.915   2.037   6.793
17664TIP3    H1 3460   1.847   2.014   6.858
17664TIP3    H2 3461   1.868   2.101   6.736
17665TIP3   OH2 3462   2.138   3.357   7.207
17665TIP3    H1 3463   2.053   3.376   7.165
17665TIP3    H2 3464   2.111   3.351   7.299
17666TIP3   OH2 3465   2.428   3.455   6.835
17666TIP3    H1 3466   2.394   3.542   6.807
17666TIP3    H2 3467   2.520   3.464   6.804
17667TIP3   OH2 3468   2.860   3.598   7.124
17667TIP3    H1 3469   2.875   3.564   7.215
17667TIP3    H2 3470   2.951   3.627   7.102
17668TIP3   OH2 3471   3.090   3.724   7.055
17668TIP3    H1 3472   3.162   3.663   7.034
17668TIP3    H2 3473   3.126   3.767   7.135
17669TIP3   OH2 3474   3.589   1.983   6.968
17669TIP3    H1 3475   3.508   2.015   6.926
17669TIP3    H2 3476   3.608   1.903   6.914
17670TIP3   OH2 3477   2.170   3.779   6.834
17670TIP3    H1 3478   2.097   3.829   6.794
17670TIP3    H2 3479   2.138   3.760   6.923
17671TIP3   OH2 3480   2.417   3.737   6.741
17671TIP3    H1 3481   2.328   3.753   6.781
17671TIP3    H2 3482   2.412   3.796   6.664
17672TIP3   OH2 3483   2.888   3.728   6.659
17672TIP3    H1 3484   2.842   3.784   6.594
17672TIP3    H2 3485   2.901   3.791   6.733
17673TIP3   OH2 3486   3.117   3.609   6.761
17673TIP3    H1 3487   3.031   3.637   6.725
17673TIP3    H2 3488   3.165   3.694   6.752
17674TIP3   OH2 3489   3.375   3.767   6.784
17674TIP3    H1 3490   3.369   3.862   6.761
17674TIP3    H2 3491   3.397   3.729   6.696
17675TIP3   OH2 3492   2.116   3.644   6.529
17675TIP3    H1 3493   2.108   3.598   6.615
17675TIP3    H2 3494   2.197   3.606   6.490
17676TIP3   OH2 3495   2.324   3.515   6.394
17676TIP3    H1 3496   2.307   3.422   6.417
17676TIP3    H2 3497   2.409   3.530   6.440
17677TIP3   OH2 3498   2.584   3.563   6.481
17677TIP3    H1 3499   2.600   3.471   6.455
17677TIP3    H2 3500   2.588   3.558   6.578
17678TIP3   OH2 3501   2.930   2.128   6.396
17678TIP3    H1 3502   2.862   2.064   6.423
17678TIP3    H2 3503   2.985   2.075   6.337
17679TIP3   OH2 3504   3.443   1.936   6.404
17679TIP3    H1 3505   3.504   1.993   6.351
17679TIP3    H2 3506   3.355   1.969   6.379
17680TIP3   OH2 3507   3.610   2.059   6.230
17680TIP3    H1 3508   3.679   2.001   6.189
17680TIP3    H2 3509   3.660   2.143   6.241
17681TIP3   OH2 3510   2.167   1.992   6.180
17681TIP3    H1 3511   2.087   1.972   6.127
17681TIP3    H2 3512   2.213   1.906   6.175
17682TIP3   OH2 3513   2.040   1.966   5.749
17682TIP3    H1 3514   2.092   2.031   5.698
17682TIP3    H2 3515   1.987   2.022   5.807
17683TIP3   OH2 3516   2.614   1.984   6.159
17683TIP3    H1 3517   2.705   2.019   6.152
17683TIP3    H2 3518   2.610   1.962   6.252
17684TIP3   OH2 3519   3.185   1.985   6.321
17684TIP3    H1 3520   3.180   1.997   6.226
17684TIP3    H2 3521   3.147   1.895   6.334
17685TIP3   OH2 3522   3.312   1.989   5.887
17685TIP3    H1 3523   3.238   2.048   5.872
17685TIP3    H2 3524   3.269   1.903   5.911
17686TIP3   OH2 3525   2.035   3.562   5.852
17686TIP3    H1 3526   1.967   3.561   5.782
17686TIP3    H2 3527   2.037   3.657   5.870
17687TIP3   OH2 3528   2.224   2.158   5.606
17687TIP3    H1 3529   2.279   2.101   5.552
17687TIP3    H2 3530   2.293   2.194   5.665
17688TIP3   OH2 3531   2.728   2.186   5.845
17688TIP3    H1 3532   2.755   2.128   5.918
17688TIP3    H2 3533   2.736   2.272   5.892
17689TIP3   OH2 3534   2.920   3.696   5.685
17689TIP3    H1 3535   3.015   3.714   5.669
17689TIP3    H2 3536   2.901   3.639   5.608
17690TIP3   OH2 3537   3.593   3.643   5.960
17690TIP3    H1 3538   3.572   3.565   5.902
17690TIP3    H2 3539   3.584   3.717   5.896
17691TIP3   OH2 3540   2.154   2.044   7.127
17691TIP3    H1 3541   2.116   1.965   7.169
17691TIP3    H2 3542   2.246   2.041   7.162
17692TIP3   OH2 3543   2.356   1.982   7.288
17692TIP3    H1 3544   2.444   1.947   7.263
17692TIP3    H2 3545   2.318   1.903   7.330
17693TIP3   OH2 3546   2.218   3.662   5.550
17693TIP3    H1 3547   2.188   3.687   5.637
17693TIP3    H2 3548   2.292   3.602   5.567
17694TIP3   OH2 3549   3.517   3.517   7.171
17694TIP3    H1 3550   3.436   3.501   7.117
17694TIP3    H2 3551   3.504   3.613   7.189
17695TIP3   OH2 3552   4.960   2.905   6.166
17695TIP3    H1 3553   4.960   3.003   6.162
17695TIP3    H2 3554   4.888   2.882   6.106
17696TIP3   OH2 3555   4.845   2.833   6.519
17696TIP3    H1 3556   4.845   2.763   6.586
17696TIP3    H2 3557   4.814   2.783   6.442
17697TIP3   OH2 3558   4.080   2.798   6.673
17697TIP3    H1 3559   4.092   2.729   6.742
17697TIP3    H2 3560   4.155   2.855   6.693
17698TIP3   OH2 3561   5.216   3.125   6.344
17698TIP3    H1 3562   5.175   3.053   6.393
17698TIP3    H2 3563   5.219   3.196   6.410
17699TIP3   OH2 3564   4.174   3.243   6.522
17699TIP3    H1 3565   4.143   3.156   6.490
17699TIP3    H2 3566   4.270   3.224   6.527
17700TIP3   OH2 3567   3.839   2.599   6.070
17700TIP3    H1 3568   3.794   2.686   6.064
17700TIP3    H2 3569   3.782   2.545   6.014
17701TIP3   OH2 3570   3.908   2.820   6.286
17701TIP3    H1 3571   3.937   2.739   6.330
17701TIP3    H2 3572   3.978   2.832   6.219
17702TIP3   OH2 3573   4.934   3.645   6.371
17702TIP3    H1 3574   4.991   3.571   6.339
17702TIP3    H2 3575   4.903   3.608   6.453
17703TIP3   OH2 3576   4.685   3.071   6.566
17703TIP3    H1 3577   4.715   3.008   6.497
17703TIP3    H2 3578   4.769   3.084   6.610
17704TIP3   OH2 3579   5.544   2.236   6.636
17704TIP3    H1 3580   5.561   2.295   6.712
17704TIP3    H2 3581   5.600   2.279   6.570
17705TIP3   OH2 3582   5.000   2.517   6.594
17705TIP3    H1 3583   5.017   2.421   6.594
17705TIP3    H2 3584   4.991   2.531   6.498
17706TIP3   OH2 3585   4.312   2.326   6.316
17706TIP3    H1 3586   4.323   2.410   6.267
17706TIP3    H2 3587   4.272   2.269   6.247
17707TIP3   OH2 3588   5.086   2.334   6.154
17707TIP3    H1 3589   5.151   2.303   6.220
17707TIP3    H2 3590   5.142   2.391   6.099
17708TIP3   OH2 3591   3.972   2.565   6.391
17708TIP3    H1 3592   4.042   2.513   6.434
17708TIP3    H2 3593   3.986   2.537   6.299
17709TIP3   OH2 3594   4.490   2.723   6.321
17709TIP3    H1 3595   4.557   2.665   6.361
17709TIP3    H2 3596   4.439   2.657   6.271
17710TIP3   OH2 3597   5.587   2.376   6.863
17710TIP3    H1 3598   5.527   2.453   6.854
17710TIP3    H2 3599   5.593   2.368   6.959
17711TIP3   OH2 3600   4.203   2.216   6.720
17711TIP3    H1 3601   4.175   2.273   6.646
17711TIP3    H2 3602   4.135   2.239   6.789
17712TIP3   OH2 3603   4.933   3.163   6.074
17712TIP3    H1 3604   4.904   3.136   5.986
17712TIP3    H2 3605   4.902   3.257   6.081
17713TIP3   OH2 3606   4.458   2.981   6.751
17713TIP3    H1 3607   4.382   3.043   6.765
17713TIP3    H2 3608   4.523   3.041   6.711
17714TIP3   OH2 3609   5.267   2.270   6.352
17714TIP3    H1 3610   5.245   2.194   6.406
17714TIP3    H2 3611   5.334   2.313   6.407
17715TIP3   OH2 3612   4.160   2.402   6.523
17715TIP3    H1 3613   4.223   2.470   6.555
17715TIP3    H2 3614   4.212   2.361   6.450
17716TIP3   OH2 3615   4.299   3.181   6.825
17716TIP3    H1 3616   4.293   3.273   6.792
17716TIP3    H2 3617   4.211   3.173   6.870
17717TIP3   OH2 3618   3.905   3.142   5.905
17717TIP3    H1 3619   3.884   3.175   5.815
17717TIP3    H2 3620   3.914   3.226   5.956
17718TIP3   OH2 3621   5.268   3.309   6.584
17718TIP3    H1 3622   5.171   3.322   6.591
17718TIP3    H2 3623   5.297   3.400   6.560
17719TIP3   OH2 3624   5.299   2.135   6.718
17719TIP3    H1 3625   5.228   2.200   6.712
17719TIP3    H2 3626   5.371   2.179   6.668
17720TIP3   OH2 3627   4.597   1.949   6.467
17720TIP3    H1 3628   4.581   1.853   6.459
17720TIP3    H2 3629   4.509   1.981   6.497
17721TIP3   OH2 3630   5.098   3.486   6.244
17721TIP3    H1 3631   5.136   3.416   6.188
17721TIP3    H2 3632   5.134   3.567   6.201
17722TIP3   OH2 3633   5.215   3.280   6.092
17722TIP3    H1 3634   5.186   3.211   6.030
17722TIP3    H2 3635   5.218   3.231   6.176
17723TIP3   OH2 3636   5.373   3.140   6.940
17723TIP3    H1 3637   5.393   3.074   6.870
17723TIP3    H2 3638   5.399   3.224   6.898
17724TIP3   OH2 3639   4.827   2.828   5.919
17724TIP3    H1 3640   4.757   2.885   5.882
17724TIP3    H2 3641   4.897   2.837   5.852
17725TIP3   OH2 3642   4.833   2.684   5.624
17725TIP3    H1 3643   4.906   2.683   5.689
17725TIP3    H2 3644   4.861   2.613   5.565
17726TIP3   OH2 3645   5.565   2.771   6.745
17726TIP3    H1 3646   5.500   2.843   6.750
17726TIP3    H2 3647   5.615   2.794   6.665
17727TIP3   OH2 3648   5.172   2.851   6.012
17727TIP3    H1 3649   5.096   2.874   6.071
17727TIP3    H2 3650   5.218   2.782   6.062
17728TIP3   OH2 3651   5.162   2.665   6.923
17728TIP3    H1 3652   5.169   2.747   6.974
17728TIP3    H2 3653   5.104   2.694   6.850
17729TIP3   OH2 3654   4.332   2.916   6.202
17729TIP3    H1 3655   4.300   2.877   6.117
17729TIP3    H2 3656   4.394   2.847   6.235
17730TIP3   OH2 3657   4.463   3.251   6.474
17730TIP3    H1 3658   4.464   3.205   6.389
17730TIP3    H2 3659   4.545   3.219   6.514
17731TIP3   OH2 3660   4.366   2.791   6.568
17731TIP3    H1 3661   4.421   2.801   6.487
17731TIP3    H2 3662   4.405   2.857   6.629
17732TIP3   OH2 3663   5.002   3.348   6.637
17732TIP3    H1 3664   4.982   3.414   6.704
17732TIP3    H2 3665   4.989   3.260   6.676
17733TIP3   OH2 3666   4.465   3.233   7.033
17733TIP3    H1 3667   4.422   3.304   7.086
17733TIP3    H2 3668   4.392   3.214   6.968
17734TIP3   OH2 3669   5.059   2.768   5.778
17734TIP3    H1 3670   5.115   2.787   5.858
17734TIP3    H2 3671   5.101   2.820   5.706
17735TIP3   OH2 3672   4.154   2.848   6.954
17735TIP3    H1 3673   4.159   2.916   7.025
17735TIP3    H2 3674   4.061   2.859   6.929
17736TIP3   OH2 3675   4.839   3.438   6.117
17736TIP3    H1 3676   4.871   3.472   6.202
17736TIP3    H2 3677   4.774   3.512   6.104
17737TIP3   OH2 3678   4.285   3.436   7.111
17737TIP3    H1 3679   4.280   3.426   7.014
17737TIP3    H2 3680   4.192   3.424   7.138
17738TIP3   OH2 3681   5.431   1.943   5.768
17738TIP3    H1 3682   5.335   1.954   5.791
17738TIP3    H2 3683   5.451   2.028   5.725
17739TIP3   OH2 3684   4.228   2.819   5.965
17739TIP3    H1 3685   4.201   2.896   5.911
17739TIP3    H2 3686   4.164   2.752   5.939
17740TIP3   OH2 3687   5.540   3.378   5.610
17740TIP3    H1 3688   5.555   3.474   5.614
17740TIP3    H2 3689   5.632   3.348   5.593
17741TIP3   OH2 3690   3.839   3.062   6.852
17741TIP3    H1 3691   3.794   3.054   6.766
17741TIP3    H2 3692   3.848   2.968   6.875
17742TIP3   OH2 3693   3.815   3.334   6.530
17742TIP3    H1 3694   3.911   3.323   6.528
17742TIP3    H2 3695   3.806   3.416   6.581
17743TIP3   OH2 3696   5.634   3.403   7.093
17743TIP3    H1 3697   5.627   3.307   7.099
17743TIP3    H2 3698   5.552   3.430   7.141
17744TIP3   OH2 3699   4.733   3.357   6.989
17744TIP3    H1 3700   4.740   3.444   7.037
17744TIP3    H2 3701   4.642   3.329   7.014
17745TIP3   OH2 3702   4.819   3.748   5.937
17745TIP3    H1 3703   4.762   3.728   5.862
17745TIP3    H2 3704   4.777   3.825   5.980
17746TIP3   OH2 3705   4.139   3.623   6.148
17746TIP3    H1 3706   4.158   3.580   6.235
17746TIP3    H2 3707   4.056   3.579   6.124
17747TIP3   OH2 3708   5.078   3.652   5.661
17747TIP3    H1 3709   5.129   3.578   5.621
17747TIP3    H2 3710   5.086   3.629   5.756
17748TIP3   OH2 3711   5.057   3.645   5.940
17748TIP3    H1 3712   4.960   3.659   5.958
17748TIP3    H2 3713   5.075   3.572   6.000
17749TIP3   OH2 3714   5.351   2.552   7.145
17749TIP3    H1 3715   5.307   2.597   7.072
17749TIP3    H2 3716   5.354   2.460   7.116
17750TIP3   OH2 3717   4.068   3.191   6.948
17750TIP3    H1 3718   4.089   3.155   7.036
17750TIP3    H2 3719   3.980   3.153   6.926
17751TIP3   OH2 3720   4.335   2.040   6.542
17751TIP3    H1 3721   4.244   2.028   6.505
17751TIP3    H2 3722   4.322   2.123   6.590
17752TIP3   OH2 3723   4.799   2.006   6.879
17752TIP3    H1 3724   4.838   1.964   6.958
17752TIP3    H2 3725   4.702   1.994   6.892
17753TIP3   OH2 3726   5.125   2.390   6.966
17753TIP3    H1 3727   5.072   2.370   7.047
17753TIP3    H2 3728   5.112   2.484   6.946
17754TIP3   OH2 3729   5.205   2.868   5.547
17754TIP3    H1 3730   5.206   2.855   5.451
17754TIP3    H2 3731   5.287   2.917   5.563
17755TIP3   OH2 3732   4.762   2.264   5.613
17755TIP3    H1 3733   4.731   2.260   5.705
17755TIP3    H2 3734   4.735   2.176   5.584
17756TIP3   OH2 3735   4.345   2.537   6.667
17756TIP3    H1 3736   4.271   2.536   6.731
17756TIP3    H2 3737   4.340   2.628   6.630
17757TIP3   OH2 3738   4.341   2.549   6.153
17757TIP3    H1 3739   4.247   2.524   6.140
17757TIP3    H2 3740   4.379   2.520   6.068
17758TIP3   OH2 3741   4.893   2.598   6.029
17758TIP3    H1 3742   4.853   2.681   5.996
17758TIP3    H2 3743   4.962   2.582   5.962
17759TIP3   OH2 3744   4.801   2.624   7.174
17759TIP3    H1 3745   4.747   2.546   7.206
17759TIP3    H2 3746   4.882   2.605   7.227
17760TIP3   OH2 3747   4.996   2.548   6.315
17760TIP3    H1 3748   4.969   2.604   6.241
17760TIP3    H2 3749   5.006   2.463   6.268
17761TIP3   OH2 3750   4.109   2.563   6.837
17761TIP3    H1 3751   4.115   2.603   6.925
17761TIP3    H2 3752   4.063   2.479   6.856
17762TIP3   OH2 3753   4.445   2.297   5.518
17762TIP3    H1 3754   4.400   2.259   5.596
17762TIP3    H2 3755   4.376   2.343   5.470
17763TIP3   OH2 3756   3.773   2.274   6.233
17763TIP3    H1 3757   3.841   2.269   6.303
17763TIP3    H2 3758   3.818   2.236   6.156
17764TIP3   OH2 3759   3.901   2.346   5.773
17764TIP3    H1 3760   3.951   2.405   5.713
17764TIP3    H2 3761   3.832   2.409   5.803
17765TIP3   OH2 3762   4.916   2.708   6.775
17765TIP3    H1 3763   4.954   2.643   6.712
17765TIP3    H2 3764   4.869   2.648   6.836
17766TIP3   OH2 3765   4.598   2.303   6.254
17766TIP3    H1 3766   4.504   2.304   6.283
17766TIP3    H2 3767   4.645   2.288   6.337
17767TIP3   OH2 3768   4.078   2.460   6.141
17767TIP3    H1 3769   3.989   2.475   6.102
17767TIP3    H2 3770   4.106   2.376   6.100
17768TIP3   OH2 3771   4.441   2.466   5.905
17768TIP3    H1 3772   4.537   2.475   5.920
17768TIP3    H2 3773   4.418   2.530   5.836
17769TIP3   OH2 3774   5.037   2.228   6.578
17769TIP3    H1 3775   4.969   2.233   6.649
17769TIP3    H2 3776   4.986   2.205   6.500
17770TIP3   OH2 3777   4.314   2.582   5.666
17770TIP3    H1 3778   4.258   2.547   5.595
17770TIP3    H2 3779   4.394   2.604   5.616
17771TIP3   OH2 3780   5.353   3.791   7.210
17771TIP3    H1 3781   5.386   3.829   7.127
17771TIP3    H2 3782   5.427   3.822   7.269
17772TIP3   OH2 3783   4.126   3.036   7.170
17772TIP3    H1 3784   4.196   3.065   7.231
17772TIP3    H2 3785   4.046   3.049   7.225
17773TIP3   OH2 3786   4.725   2.580   6.444
17773TIP3    H1 3787   4.785   2.526   6.390
17773TIP3    H2 3788   4.710   2.525   6.522
17774TIP3   OH2 3789   4.226   2.194   6.087
17774TIP3    H1 3790   4.195   2.102   6.086
17774TIP3    H2 3791   4.305   2.188   6.032
17775TIP3   OH2 3792   4.588   2.412   6.684
17775TIP3    H1 3793   4.506   2.464   6.694
17775TIP3    H2 3794   4.644   2.446   6.756
17776TIP3   OH2 3795   4.648   3.036   5.853
17776TIP3    H1 3796   4.568   2.988   5.822
17776TIP3    H2 3797   4.627   3.046   5.948
17777TIP3   OH2 3798   5.365   2.956   6.735
17777TIP3    H1 3799   5.422   3.003   6.672
17777TIP3    H2 3800   5.280   2.959   6.687
17778TIP3   OH2 3801   5.031   2.314   5.676
17778TIP3    H1 3802   4.938   2.330   5.655
17778TIP3    H2 3803   5.064   2.401   5.704
17779TIP3   OH2 3804   4.793   3.056   6.990
17779TIP3    H1 3805   4.747   3.024   7.067
17779TIP3    H2 3806   4.761   3.147   7.002
17780TIP3   OH2 3807   5.105   2.508   5.839
17780TIP3    H1 3808   5.194   2.494   5.877
17780TIP3    H2 3809   5.114   2.590   5.787
17781TIP3   OH2 3810   4.159   2.974   6.435
17781TIP3    H1 3811   4.227   2.966   6.366
17781TIP3    H2 3812   4.164   2.888   6.480
17782TIP3   OH2 3813   4.857   3.182   5.761
17782TIP3    H1 3814   4.822   3.268   5.796
17782TIP3    H2 3815   4.782   3.121   5.781
17783TIP3   OH2 3816   3.858   2.815   6.961
17783TIP3    H1 3817   3.877   2.772   7.047
17783TIP3    H2 3818   3.797   2.752   6.920
17784TIP3   OH2 3819   4.564   2.777   7.174
17784TIP3    H1 3820   4.524   2.739   7.093
17784TIP3    H2 3821   4.646   2.727   7.185
17785TIP3   OH2 3822   5.020   3.298   6.978
17785TIP3    H1 3823   4.938   3.345   6.961
17785TIP3    H2 3824   5.031   3.334   7.070
17786TIP3   OH2 3825   5.594   2.523   5.814
17786TIP3    H1 3826   5.537   2.493   5.740
17786TIP3    H2 3827   5.603   2.617   5.788
17787TIP3   OH2 3828   5.593   3.106   7.095
17787TIP3    H1 3829   5.505   3.132   7.058
17787TIP3    H2 3830   5.649   3.105   7.014
17788TIP3   OH2 3831   5.424   3.406   5.854
17788TIP3    H1 3832   5.387   3.323   5.886
17788TIP3    H2 3833   5.453   3.386   5.762
17789TIP3   OH2 3834   5.143   2.888   6.564
17789TIP3    H1 3835   5.050   2.864   6.549
17789TIP3    H2 3836   5.187   2.812   6.521
17790TIP3   OH2 3837   4.396   3.319   6.173
17790TIP3    H1 3838   4.447   3.400   6.154
17790TIP3    H2 3839   4.309   3.345   6.140
17791TIP3   OH2 3840   3.969   2.805   5.624
17791TIP3    H1 3841   4.031   2.867   5.666
17791TIP3    H2 3842   3.884   2.834   5.660
17792TIP3   OH2 3843   4.537   3.086   6.125
17792TIP3    H1 3844   4.507   3.179   6.134
17792TIP3    H2 3845   4.465   3.037   6.169
17793TIP3   OH2 3846   4.584   3.502   6.764
17793TIP3    H1 3847   4.625   3.586   6.735
17793TIP3    H2 3848   4.642   3.476   6.836
17794TIP3   OH2 3849   4.392   3.582   6.070
17794TIP3    H1 3850   4.301   3.605   6.094
17794TIP3    H2 3851   4.445   3.655   6.111
17795TIP3   OH2 3852   4.943   3.095   6.719
17795TIP3    H1 3853   4.912   3.059   6.803
17795TIP3    H2 3854   5.010   3.026   6.698
17796TIP3   OH2 3855   5.164   3.209   5.638
17796TIP3    H1 3856   5.197   3.164   5.718
17796TIP3    H2 3857   5.069   3.193   5.647
17797TIP3   OH2 3858   5.214   3.563   6.978
17797TIP3    H1 3859   5.148   3.514   6.927
17797TIP3    H2 3860   5.237   3.634   6.913
17798TIP3   OH2 3861   5.614   3.651   5.659
17798TIP3    H1 3862   5.687   3.713   5.641
17798TIP3    H2 3863   5.543   3.710   5.691
17799TIP3   OH2 3864   4.023   2.289   6.919
17799TIP3    H1 3865   3.933   2.323   6.916
17799TIP3    H2 3866   4.012   2.202   6.960
17800TIP3   OH2 3867   5.247   3.075   5.862
17800TIP3    H1 3868   5.222   2.996   5.915
17800TIP3    H2 3869   5.342   3.080   5.880
17801TIP3   OH2 3870   3.985   3.467   6.758
17801TIP3    H1 3871   4.014   3.375   6.759
17801TIP3    H2 3872   4.010   3.496   6.847
17802TIP3   OH2 3873   4.581   3.316   5.483
17802TIP3    H1 3874   4.595   3.239   5.428
17802TIP3    H2 3875   4.538   3.279   5.563
17803TIP3   OH2 3876   4.460   3.273   5.731
17803TIP3    H1 3877   4.485   3.222   5.809
17803TIP3    H2 3878   4.467   3.366   5.762
17804TIP3   OH2 3879   4.110   2.997   5.777
17804TIP3    H1 3880   4.042   3.038   5.835
17804TIP3    H2 3881   4.164   3.075   5.752
17805TIP3   OH2 3882   4.895   2.265   6.812
17805TIP3    H1 3883   4.967   2.272   6.876
17805TIP3    H2 3884   4.857   2.177   6.831
17806TIP3   OH2 3885   4.969   2.224   5.922
17806TIP3    H1 3886   4.994   2.269   5.839
17806TIP3    H2 3887   5.029   2.267   5.984
17807TIP3   OH2 3888   4.737   3.435   5.794
17807TIP3    H1 3889   4.659   3.491   5.813
17807TIP3    H2 3890   4.792   3.494   5.740
17808TIP3   OH2 3891   4.693   2.398   6.003
17808TIP3    H1 3892   4.772   2.455   6.006
17808TIP3    H2 3893   4.667   2.386   6.096
17809TIP3   OH2 3894   4.750   2.502   6.920
17809TIP3    H1 3895   4.755   2.552   7.002
17809TIP3    H2 3896   4.813   2.429   6.930
17810TIP3   OH2 3897   4.780   2.103   6.092
17810TIP3    H1 3898   4.746   2.169   6.155
17810TIP3    H2 3899   4.848   2.159   6.045
17811TIP3   OH2 3900   4.474   3.542   5.804
17811TIP3    H1 3901   4.493   3.624   5.754
17811TIP3    H2 3902   4.453   3.577   5.894
17812TIP3   OH2 3903   4.344   2.213   5.766
17812TIP3    H1 3904   4.339   2.305   5.798
17812TIP3    H2 3905   4.435   2.189   5.790
17813TIP3   OH2 3906   5.366   2.287   7.006
17813TIP3    H1 3907   5.273   2.318   6.993
17813TIP3    H2 3908   5.397   2.287   6.915
17814TIP3   OH2 3909   5.226   2.666   6.408
17814TIP3    H1 3910   5.144   2.620   6.379
17814TIP3    H2 3911   5.275   2.597   6.459
17815TIP3   OH2 3912   4.170   3.256   5.668
17815TIP3    H1 3913   4.234   3.323   5.697
17815TIP3    H2 3914   4.220   3.212   5.597
17816TIP3   OH2 3915   4.005   2.525   5.585
17816TIP3    H1 3916   4.004   2.622   5.597
17816TIP3    H2 3917   3.918   2.506   5.548
17817TIP3   OH2 3918   5.334   3.592   6.574
17817TIP3    H1 3919   5.324   3.659   6.505
17817TIP3    H2 3920   5.430   3.597   6.592
17818TIP3   OH2 3921   4.083   2.004   6.454
17818TIP3    H1 3922   4.064   2.006   6.358
17818TIP3    H2 3923   4.042   1.919   6.480
17819TIP3   OH2 3924   3.979   3.396   6.068
17819TIP3    H1 3925   3.894   3.441   6.065
17819TIP3    H2 3926   4.027   3.443   5.999
17820TIP3   OH2 3927   3.899   3.662   7.200
17820TIP3    H1 3928   3.963   3.641   7.271
17820TIP3    H2 3929   3.860   3.576   7.179
17821TIP3   OH2 3930   4.364   3.553   7.356
17821TIP3    H1 3931   4.441   3.507   7.392
17821TIP3    H2 3932   4.364   3.524   7.263
17822TIP3   OH2 3933   4.779   3.503   5.497
17822TIP3    H1 3934   4.708   3.439   5.519
17822TIP3    H2 3935   4.852   3.445   5.475
17823TIP3   OH2 3936   5.018   3.388   7.228
17823TIP3    H1 3937   4.985   3.304   7.265
17823TIP3    H2 3938   5.093   3.406   7.290
17824TIP3   OH2 3939   5.238   3.482   5.519
17824TIP3    H1 3940   5.263   3.400   5.565
17824TIP3    H2 3941   5.315   3.499   5.465
17825TIP3   OH2 3942   3.892   3.036   7.298
17825TIP3    H1 3943   3.908   2.946   7.265
17825TIP3    H2 3944   3.818   3.065   7.242
17826TIP3   OH2 3945   4.329   3.073   5.503
17826TIP3    H1 3946   4.339   2.995   5.560
17826TIP3    H2 3947   4.394   3.058   5.434
17827TIP3   OH2 3948   4.576   3.038   7.227
17827TIP3    H1 3949   4.521   3.069   7.152
17827TIP3    H2 3950   4.564   2.939   7.227
17828TIP3   OH2 3951   4.862   3.181   5.478
17828TIP3    H1 3952   4.840   3.195   5.573
17828TIP3    H2 3953   4.846   3.086   5.467
17829TIP3   OH2 3954   5.128   3.025   6.973
17829TIP3    H1 3955   5.212   3.077   6.968
17829TIP3    H2 3956   5.066   3.097   6.981
17830TIP3   OH2 3957   3.983   2.761   7.236
17830TIP3    H1 3958   4.025   2.675   7.224
17830TIP3    H2 3959   3.957   2.761   7.329
17831TIP3   OH2 3960   4.447   2.875   5.742
17831TIP3    H1 3961   4.396   2.821   5.804
17831TIP3    H2 3962   4.476   2.807   5.676
17832TIP3   OH2 3963   4.377   2.659   6.973
17832TIP3    H1 3964   4.311   2.727   6.996
17832TIP3    H2 3965   4.409   2.692   6.888
17833TIP3   OH2 3966   4.554   2.704   5.561
17833TIP3    H1 3967   4.540   2.680   5.468
17833TIP3    H2 3968   4.652   2.702   5.572
17834TIP3   OH2 3969   4.882   2.911   7.303
17834TIP3    H1 3970   4.979   2.913   7.305
17834TIP3    H2 3971   4.863   2.839   7.368
17835TIP3   OH2 3972   5.488   2.933   5.506
17835TIP3    H1 3973   5.465   2.892   5.423
17835TIP3    H2 3974   5.497   3.026   5.483
17836TIP3   OH2 3975   4.412   2.393   7.077
17836TIP3    H1 3976   4.425   2.322   7.012
17836TIP3    H2 3977   4.407   2.473   7.022
17837TIP3   OH2 3978   4.453   2.232   6.832
17837TIP3    H1 3979   4.504   2.278   6.761
17837TIP3    H2 3980   4.364   2.223   6.791
17838TIP3   OH2 3981   4.619   2.789   6.864
17838TIP3    H1 3982   4.679   2.760   6.794
17838TIP3    H2 3983   4.567   2.860   6.820
17839TIP3   OH2 3984   5.047   2.556   7.347
17839TIP3    H1 3985   5.070   2.463   7.345
17839TIP3    H2 3986   5.135   2.598   7.356
17840TIP3   OH2 3987   5.177   2.836   7.164
17840TIP3    H1 3988   5.160   2.911   7.105
17840TIP3    H2 3989   5.274   2.831   7.150
17841TIP3   OH2 3990   4.258   2.521   7.268
17841TIP3    H1 3991   4.183   2.460   7.254
17841TIP3    H2 3992   4.323   2.482   7.207
17842TIP3   OH2 3993   4.532   1.976   6.870
17842TIP3    H1 3994   4.514   2.072   6.861
17842TIP3    H2 3995   4.457   1.939   6.821
17843TIP3   OH2 3996   4.658   2.409   7.232
17843TIP3    H1 3997   4.628   2.386   7.322
17843TIP3    H2 3998   4.578   2.387   7.180
17844TIP3   OH2 3999   4.930   2.325   7.143
17844TIP3    H1 4000   4.834   2.326   7.153
17844TIP3    H2 4001   4.958   2.259   7.208
17845TIP3   OH2 4002   5.088   2.186   7.338
17845TIP3    H1 4003   5.085   2.087   7.335
17845TIP3    H2 4004   5.060   2.209   7.426
17846TIP3   OH2 4005   4.066   2.311   7.238
17846TIP3    H1 4006   4.094   2.237   7.182
17846TIP3    H2 4007   4.060   2.270   7.325
17847TIP3   OH2 4008   4.555   1.914   7.140
17847TIP3    H1 4009   4.623   1.844   7.138
17847TIP3    H2 4010   4.543   1.930   7.045
17848TIP3   OH2 4011   4.595   2.077   7.348
17848TIP3    H1 4012   4.574   2.024   7.268
17848TIP3    H2 4013   4.530   2.150   7.341
17849TIP3   OH2 4014   4.537   3.770   5.668
17849TIP3    H1 4015   4.635   3.775   5.675
17849TIP3    H2 4016   4.520   3.831   5.596
17850TIP3   OH2 4017   3.896   3.226   5.618
17850TIP3    H1 4018   3.992   3.235   5.640
17850TIP3    H2 4019   3.901   3.165   5.543
17851TIP3   OH2 4020   3.770   3.763   6.113
17851TIP3    H1 4021   3.699   3.714   6.066
17851TIP3    H2 4022   3.798   3.698   6.179
17852TIP3   OH2 4023   3.852   3.577   6.300
17852TIP3    H1 4024   3.817   3.489   6.320
17852TIP3    H2 4025   3.876   3.609   6.389
17853TIP3   OH2 4026   5.603   3.661   6.591
17853TIP3    H1 4027   5.607   3.669   6.688
17853TIP3    H2 4028   5.680   3.711   6.566
17854TIP3   OH2 4029   5.563   3.615   6.887
17854TIP3    H1 4030   5.517   3.537   6.851
17854TIP3    H2 4031   5.614   3.572   6.958
17855TIP3   OH2 4032   5.405   3.193   7.350
17855TIP3    H1 4033   5.320   3.184   7.396
17855TIP3    H2 4034   5.448   3.267   7.398
17856TIP3   OH2 4035   5.539   3.021   5.898
17856TIP3    H1 4036   5.626   3.059   5.917
17856TIP3    H2 4037   5.538   2.949   5.965
17857TIP3   OH2 4038   5.573   2.829   6.087
17857TIP3    H1 4039   5.502   2.777   6.129
17857TIP3    H2 4040   5.637   2.842   6.161
17858TIP3   OH2 4041   5.551   3.098   6.583
17858TIP3    H1 4042   5.633   3.060   6.547
17858TIP3    H2 4043   5.566   3.193   6.569
17859TIP3   OH2 4044   5.406   3.387   6.811
17859TIP3    H1 4045   5.340   3.424   6.872
17859TIP3    H2 4046   5.351   3.348   6.740
17860TIP3   OH2 4047   5.603   2.809   5.723
17860TIP3    H1 4048   5.548   2.848   5.652
17860TIP3    H2 4049   5.599   2.880   5.792
17861TIP3   OH2 4050   5.437   2.533   5.582
17861TIP3    H1 4051   5.451   2.599   5.513
17861TIP3    H2 4052   5.426   2.450   5.531
17862TIP3   OH2 4053   5.357   2.675   6.144
17862TIP3    H1 4054   5.343   2.580   6.140
17862TIP3    H2 4055   5.324   2.698   6.233
17863TIP3   OH2 4056   3.858   2.880   6.551
17863TIP3    H1 4057   3.877   2.877   6.454
17863TIP3    H2 4058   3.949   2.869   6.585
17864TIP3   OH2 4059   5.443   2.872   7.112
17864TIP3    H1 4060   5.504   2.796   7.129
17864TIP3    H2 4061   5.503   2.950   7.113
17865TIP3   OH2 4062   5.595   2.661   7.173
17865TIP3    H1 4063   5.505   2.621   7.165
17865TIP3    H2 4064   5.651   2.582   7.173
17866TIP3   OH2 4065   5.365   2.284   5.494
17866TIP3    H1 4066   5.426   2.236   5.555
17866TIP3    H2 4067   5.280   2.238   5.509
17867TIP3   OH2 4068   5.324   2.434   5.991
17867TIP3    H1 4069   5.355   2.341   6.002
17867TIP3    H2 4070   5.403   2.474   5.952
17868TIP3   OH2 4071   5.388   2.488   6.534
17868TIP3    H1 4072   5.484   2.512   6.533
17868TIP3    H2 4073   5.369   2.503   6.628
17869TIP3   OH2 4074   5.394   2.561   6.811
17869TIP3    H1 4075   5.307   2.589   6.846
17869TIP3    H2 4076   5.438   2.647   6.790
17870TIP3   OH2 4077   3.819   2.413   7.164
17870TIP3    H1 4078   3.913   2.393   7.183
17870TIP3    H2 4079   3.774   2.331   7.195
17871TIP3   OH2 4080   5.624   1.961   7.347
17871TIP3    H1 4081   5.658   1.899   7.282
17871TIP3    H2 4082   5.631   2.046   7.298
17872TIP3   OH2 4083   5.391   2.161   5.994
17872TIP3    H1 4084   5.412   2.118   6.080
17872TIP3    H2 4085   5.330   2.098   5.950
17873TIP3   OH2 4086   3.940   2.243   6.451
17873TIP3    H1 4087   3.986   2.161   6.476
17873TIP3    H2 4088   3.995   2.312   6.489
17874TIP3   OH2 4089   3.761   2.549   6.551
17874TIP3    H1 4090   3.822   2.517   6.480
17874TIP3    H2 4091   3.818   2.623   6.580
17875TIP3   OH2 4092   5.575   2.174   7.182
17875TIP3    H1 4093   5.482   2.204   7.177
17875TIP3    H2 4094   5.579   2.122   7.101
17876TIP3   OH2 4095   5.573   2.168   5.648
17876TIP3    H1 4096   5.617   2.096   5.601
17876TIP3    H2 4097   5.645   2.233   5.655
17877TIP3   OH2 4098   3.805   2.168   5.960
17877TIP3    H1 4099   3.711   2.188   5.948
17877TIP3    H2 4100   3.847   2.219   5.888
17878TIP3   OH2 4101   5.278   3.666   6.155
17878TIP3    H1 4102   5.346   3.633   6.094
17878TIP3    H2 4103   5.329   3.714   6.221
17879TIP3   OH2 4104   3.800   2.034   6.791
17879TIP3    H1 4105   3.733   2.015   6.859
17879TIP3    H2 4106   3.754   2.101   6.737
17880TIP3   OH2 4107   4.023   3.356   7.211
17880TIP3    H1 4108   3.939   3.376   7.165
17880TIP3    H2 4109   3.996   3.347   7.302
17881TIP3   OH2 4110   4.314   3.454   6.837
17881TIP3    H1 4111   4.279   3.540   6.809
17881TIP3    H2 4112   4.405   3.465   6.803
17882TIP3   OH2 4113   4.747   3.594   7.120
17882TIP3    H1 4114   4.758   3.565   7.215
17882TIP3    H2 4115   4.836   3.630   7.103
17883TIP3   OH2 4116   4.974   3.722   7.058
17883TIP3    H1 4117   5.050   3.667   7.032
17883TIP3    H2 4118   5.012   3.766   7.137
17884TIP3   OH2 4119   5.476   1.986   6.965
17884TIP3    H1 4120   5.393   2.015   6.925
17884TIP3    H2 4121   5.493   1.903   6.914
17885TIP3   OH2 4122   4.057   3.779   6.835
17885TIP3    H1 4123   3.983   3.828   6.795
17885TIP3    H2 4124   4.025   3.760   6.925
17886TIP3   OH2 4125   4.303   3.736   6.742
17886TIP3    H1 4126   4.214   3.751   6.781
17886TIP3    H2 4127   4.297   3.796   6.665
17887TIP3   OH2 4128   4.773   3.726   6.663
17887TIP3    H1 4129   4.728   3.780   6.594
17887TIP3    H2 4130   4.786   3.794   6.732
17888TIP3   OH2 4131   5.001   3.607   6.761
17888TIP3    H1 4132   4.917   3.639   6.724
17888TIP3    H2 4133   5.050   3.691   6.752
17889TIP3   OH2 4134   5.261   3.766   6.785
17889TIP3    H1 4135   5.253   3.862   6.762
17889TIP3    H2 4136   5.281   3.728   6.697
17890TIP3   OH2 4137   4.001   3.644   6.529
17890TIP3    H1 4138   3.993   3.599   6.615
17890TIP3    H2 4139   4.082   3.606   6.490
17891TIP3   OH2 4140   4.207   3.515   6.396
17891TIP3    H1 4141   4.194   3.421   6.417
17891TIP3    H2 4142   4.295   3.531   6.437
17892TIP3   OH2 4143   4.463   3.562   6.483
17892TIP3    H1 4144   4.486   3.473   6.452
17892TIP3    H2 4145   4.475   3.557   6.578
17893TIP3   OH2 4146   4.817   2.128   6.397
17893TIP3    H1 4147   4.746   2.066   6.423
17893TIP3    H2 4148   4.869   2.076   6.335
17894TIP3   OH2 4149   5.327   1.931   6.401
17894TIP3    H1 4150   5.390   1.992   6.353
17894TIP3    H2 4151   5.241   1.972   6.379
17895TIP3   OH2 4152   5.496   2.058   6.230
17895TIP3    H1 4153   5.564   2.000   6.188
17895TIP3    H2 4154   5.546   2.142   6.240
17896TIP3   OH2 4155   4.052   1.991   6.180
17896TIP3    H1 4156   3.972   1.971   6.127
17896TIP3    H2 4157   4.098   1.905   6.175
17897TIP3   OH2 4158   3.926   1.967   5.749
17897TIP3    H1 4159   3.978   2.032   5.698
17897TIP3    H2 4160   3.873   2.024   5.808
17898TIP3   OH2 4161   4.501   1.983   6.159
17898TIP3    H1 4162   4.590   2.020   6.152
17898TIP3    H2 4163   4.496   1.962   6.252
17899TIP3   OH2 4164   5.073   1.983   6.322
17899TIP3    H1 4165   5.066   1.999   6.227
17899TIP3    H2 4166   5.028   1.897   6.332
17900TIP3   OH2 4167   5.198   1.989   5.887
17900TIP3    H1 4168   5.123   2.048   5.872
17900TIP3    H2 4169   5.155   1.904   5.912
17901TIP3   OH2 4170   3.921   3.562   5.852
17901TIP3    H1 4171   3.853   3.562   5.782
17901TIP3    H2 4172   3.923   3.657   5.870
17902TIP3   OH2 4173   4.110   2.156   5.606
17902TIP3    H1 4174   4.166   2.100   5.552
17902TIP3    H2 4175   4.177   2.195   5.665
17903TIP3   OH2 4176   4.615   2.186   5.844
17903TIP3    H1 4177   4.640   2.128   5.918
17903TIP3    H2 4178   4.621   2.272   5.892
17904TIP3   OH2 4179   4.802   3.699   5.678
17904TIP3    H1 4180   4.899   3.713   5.671
17904TIP3    H2 4181   4.787   3.637   5.604
17905TIP3   OH2 4182   5.480   3.644   5.961
17905TIP3    H1 4183   5.458   3.566   5.904
17905TIP3    H2 4184   5.469   3.717   5.896
17906TIP3   OH2 4185   4.040   2.045   7.126
17906TIP3    H1 4186   4.003   1.965   7.167
17906TIP3    H2 4187   4.132   2.041   7.162
17907TIP3   OH2 4188   4.241   1.981   7.286
17907TIP3    H1 4189   4.331   1.949   7.268
17907TIP3    H2 4190   4.204   1.904   7.333
17908TIP3   OH2 4191   4.103   3.661   5.550
17908TIP3    H1 4192   4.074   3.687   5.638
17908TIP3    H2 4193   4.177   3.602   5.567
17909TIP3   OH2 4194   5.082   1.915   7.302
17909TIP3    H1 4195   5.089   1.864   7.384
17909TIP3    H2 4196   5.174   1.910   7.269
17910TIP3   OH2 4197   5.401   3.517   7.169
17910TIP3    H1 4198   5.321   3.504   7.115
17910TIP3    H2 4199   5.393   3.611   7.191
17911TIP3   OH2 4200   6.846   2.905   6.166
17911TIP3    H1 4201   6.846   3.003   6.162
17911TIP3    H2 4202   6.774   2.881   6.106
17912TIP3   OH2 4203   6.734   2.830   6.517
17912TIP3    H1 4204   6.730   2.765   6.587
17912TIP3    H2 4205   6.699   2.781   6.441
17913TIP3   OH2 4206   5.967   2.797   6.672
17913TIP3    H1 4207   5.976   2.729   6.742
17913TIP3    H2 4208   6.042   2.855   6.692
17914TIP3   OH2 4209   7.101   3.125   6.344
17914TIP3    H1 4210   7.059   3.054   6.393
17914TIP3    H2 4211   7.103   3.196   6.411
17915TIP3   OH2 4212   6.060   3.243   6.525
17915TIP3    H1 4213   6.029   3.157   6.489
17915TIP3    H2 4214   6.156   3.225   6.526
17916TIP3   OH2 4215   5.722   2.596   6.072
17916TIP3    H1 4216   5.684   2.686   6.064
17916TIP3    H2 4217   5.667   2.546   6.012
17917TIP3   OH2 4218   5.776   2.807   6.300
17917TIP3    H1 4219   5.822   2.730   6.337
17917TIP3    H2 4220   5.843   2.834   6.232
17918TIP3   OH2 4221   6.813   3.641   6.368
17918TIP3    H1 4222   6.878   3.572   6.340
17918TIP3    H2 4223   6.792   3.608   6.456
17919TIP3   OH2 4224   6.570   3.071   6.563
17919TIP3    H1 4225   6.603   3.008   6.497
17919TIP3    H2 4226   6.650   3.086   6.615
17920TIP3   OH2 4227   7.429   2.237   6.636
17920TIP3    H1 4228   7.447   2.295   6.713
17920TIP3    H2 4229   7.486   2.279   6.570
17921TIP3   OH2 4230   6.886   2.517   6.596
17921TIP3    H1 4231   6.903   2.421   6.594
17921TIP3    H2 4232   6.876   2.533   6.500
17922TIP3   OH2 4233   6.198   2.327   6.316
17922TIP3    H1 4234   6.208   2.410   6.267
17922TIP3    H2 4235   6.158   2.269   6.248
17923TIP3   OH2 4236   6.971   2.334   6.154
17923TIP3    H1 4237   7.037   2.303   6.220
17923TIP3    H2 4238   7.028   2.391   6.099
17924TIP3   OH2 4239   5.859   2.563   6.392
17924TIP3    H1 4240   5.929   2.511   6.435
17924TIP3    H2 4241   5.871   2.538   6.299
17925TIP3   OH2 4242   6.375   2.721   6.323
17925TIP3    H1 4243   6.443   2.663   6.361
17925TIP3    H2 4244   6.323   2.657   6.271
17926TIP3   OH2 4245   7.476   2.377   6.864
17926TIP3    H1 4246   7.413   2.452   6.850
17926TIP3    H2 4247   7.477   2.369   6.960
17927TIP3   OH2 4248   6.088   2.216   6.720
17927TIP3    H1 4249   6.060   2.273   6.646
17927TIP3    H2 4250   6.020   2.239   6.788
17928TIP3   OH2 4251   6.818   3.165   6.075
17928TIP3    H1 4252   6.790   3.136   5.987
17928TIP3    H2 4253   6.787   3.258   6.080
17929TIP3   OH2 4254   6.340   2.981   6.745
17929TIP3    H1 4255   6.269   3.045   6.766
17929TIP3    H2 4256   6.411   3.040   6.716
17930TIP3   OH2 4257   7.152   2.269   6.352
17930TIP3    H1 4258   7.131   2.192   6.406
17930TIP3    H2 4259   7.220   2.313   6.406
17931TIP3   OH2 4260   6.045   2.402   6.523
17931TIP3    H1 4261   6.108   2.470   6.555
17931TIP3    H2 4262   6.097   2.360   6.450
17932TIP3   OH2 4263   6.184   3.182   6.827
17932TIP3    H1 4264   6.179   3.273   6.792
17932TIP3    H2 4265   6.096   3.174   6.872
17933TIP3   OH2 4266   5.786   3.144   5.903
17933TIP3    H1 4267   5.770   3.177   5.813
17933TIP3    H2 4268   5.801   3.224   5.956
17934TIP3   OH2 4269   7.154   3.309   6.581
17934TIP3    H1 4270   7.057   3.320   6.594
17934TIP3    H2 4271   7.181   3.401   6.562
17935TIP3   OH2 4272   7.185   2.138   6.721
17935TIP3    H1 4273   7.113   2.201   6.712
17935TIP3    H2 4274   7.257   2.179   6.668
17936TIP3   OH2 4275   6.483   1.950   6.467
17936TIP3    H1 4276   6.469   1.853   6.460
17936TIP3    H2 4277   6.395   1.980   6.497
17937TIP3   OH2 4278   6.980   3.488   6.240
17937TIP3    H1 4279   7.023   3.416   6.190
17937TIP3    H2 4280   7.022   3.567   6.201
17938TIP3   OH2 4281   7.101   3.280   6.092
17938TIP3    H1 4282   7.072   3.211   6.030
17938TIP3    H2 4283   7.104   3.231   6.176
17939TIP3   OH2 4284   7.260   3.137   6.942
17939TIP3    H1 4285   7.278   3.075   6.868
17939TIP3    H2 4286   7.282   3.222   6.900
17940TIP3   OH2 4287   6.712   2.828   5.918
17940TIP3    H1 4288   6.643   2.885   5.882
17940TIP3    H2 4289   6.783   2.837   5.851
17941TIP3   OH2 4290   6.719   2.683   5.623
17941TIP3    H1 4291   6.791   2.683   5.688
17941TIP3    H2 4292   6.748   2.613   5.564
17942TIP3   OH2 4293   7.451   2.771   6.746
17942TIP3    H1 4294   7.386   2.843   6.749
17942TIP3    H2 4295   7.500   2.794   6.664
17943TIP3   OH2 4296   7.058   2.851   6.011
17943TIP3    H1 4297   6.982   2.874   6.071
17943TIP3    H2 4298   7.104   2.782   6.062
17944TIP3   OH2 4299   7.053   2.669   6.906
17944TIP3    H1 4300   7.067   2.755   6.947
17944TIP3    H2 4301   6.987   2.695   6.836
17945TIP3   OH2 4302   6.235   2.918   6.202
17945TIP3    H1 4303   6.181   2.883   6.127
17945TIP3    H2 4304   6.282   2.840   6.236
17946TIP3   OH2 4305   6.349   3.254   6.469
17946TIP3    H1 4306   6.348   3.200   6.389
17946TIP3    H2 4307   6.428   3.218   6.515
17947TIP3   OH2 4308   6.255   2.788   6.571
17947TIP3    H1 4309   6.304   2.802   6.487
17947TIP3    H2 4310   6.290   2.858   6.629
17948TIP3   OH2 4311   6.892   3.348   6.639
17948TIP3    H1 4312   6.863   3.411   6.704
17948TIP3    H2 4313   6.866   3.262   6.681
17949TIP3   OH2 4314   6.345   3.233   7.041
17949TIP3    H1 4315   6.304   3.311   7.084
17949TIP3    H2 4316   6.280   3.213   6.969
17950TIP3   OH2 4317   6.944   2.768   5.778
17950TIP3    H1 4318   7.000   2.787   5.858
17950TIP3    H2 4319   6.986   2.820   5.706
17951TIP3   OH2 4320   6.040   2.849   6.955
17951TIP3    H1 4321   6.044   2.915   7.027
17951TIP3    H2 4322   5.947   2.860   6.929
17952TIP3   OH2 4323   6.716   3.442   6.124
17952TIP3    H1 4324   6.759   3.473   6.204
17952TIP3    H2 4325   6.660   3.517   6.100
17953TIP3   OH2 4326   6.171   3.433   7.112
17953TIP3    H1 4327   6.165   3.427   7.015
17953TIP3    H2 4328   6.077   3.428   7.138
17954TIP3   OH2 4329   7.317   1.943   5.768
17954TIP3    H1 4330   7.221   1.953   5.790
17954TIP3    H2 4331   7.337   2.028   5.725
17955TIP3   OH2 4332   6.135   2.805   5.925
17955TIP3    H1 4333   6.092   2.893   5.920
17955TIP3    H2 4334   6.054   2.757   5.948
17956TIP3   OH2 4335   7.426   3.378   5.611
17956TIP3    H1 4336   7.441   3.474   5.615
17956TIP3    H2 4337   7.517   3.348   5.593
17957TIP3   OH2 4338   5.723   3.061   6.852
17957TIP3    H1 4339   5.679   3.053   6.766
17957TIP3    H2 4340   5.732   2.966   6.873
17958TIP3   OH2 4341   5.701   3.334   6.530
17958TIP3    H1 4342   5.796   3.322   6.527
17958TIP3    H2 4343   5.692   3.416   6.581
17959TIP3   OH2 4344   7.525   3.405   7.097
17959TIP3    H1 4345   7.513   3.309   7.097
17959TIP3    H2 4346   7.439   3.430   7.139
17960TIP3   OH2 4347   6.620   3.359   6.985
17960TIP3    H1 4348   6.626   3.443   7.036
17960TIP3    H2 4349   6.532   3.323   7.010
17961TIP3   OH2 4350   6.663   3.734   5.964
17961TIP3    H1 4351   6.654   3.726   5.868
17961TIP3    H2 4352   6.666   3.830   5.980
17962TIP3   OH2 4353   6.028   3.621   6.147
17962TIP3    H1 4354   6.042   3.580   6.235
17962TIP3    H2 4355   5.943   3.580   6.123
17963TIP3   OH2 4356   6.964   3.652   5.660
17963TIP3    H1 4357   7.015   3.578   5.619
17963TIP3    H2 4358   6.973   3.628   5.755
17964TIP3   OH2 4359   6.938   3.648   5.941
17964TIP3    H1 4360   6.842   3.655   5.960
17964TIP3    H2 4361   6.963   3.574   5.998
17965TIP3   OH2 4362   7.224   2.549   7.149
17965TIP3    H1 4363   7.201   2.596   7.069
17965TIP3    H2 4364   7.241   2.460   7.114
17966TIP3   OH2 4365   5.953   3.191   6.947
17966TIP3    H1 4366   5.974   3.156   7.036
17966TIP3    H2 4367   5.866   3.153   6.926
17967TIP3   OH2 4368   6.220   2.040   6.542
17967TIP3    H1 4369   6.130   2.027   6.505
17967TIP3    H2 4370   6.208   2.123   6.590
17968TIP3   OH2 4371   6.684   2.008   6.878
17968TIP3    H1 4372   6.723   1.966   6.956
17968TIP3    H2 4373   6.587   1.994   6.892
17969TIP3   OH2 4374   7.017   2.394   6.973
17969TIP3    H1 4375   6.954   2.367   7.045
17969TIP3    H2 4376   6.992   2.480   6.938
17970TIP3   OH2 4377   7.090   2.870   5.547
17970TIP3    H1 4378   7.091   2.853   5.452
17970TIP3    H2 4379   7.173   2.917   5.562
17971TIP3   OH2 4380   6.648   2.264   5.612
17971TIP3    H1 4381   6.616   2.259   5.705
17971TIP3    H2 4382   6.621   2.176   5.584
17972TIP3   OH2 4383   6.231   2.537   6.666
17972TIP3    H1 4384   6.157   2.536   6.730
17972TIP3    H2 4385   6.225   2.628   6.629
17973TIP3   OH2 4386   6.228   2.545   6.154
17973TIP3    H1 4387   6.133   2.526   6.140
17973TIP3    H2 4388   6.265   2.521   6.067
17974TIP3   OH2 4389   6.778   2.599   6.031
17974TIP3    H1 4390   6.736   2.682   5.997
17974TIP3    H2 4391   6.847   2.583   5.963
17975TIP3   OH2 4392   6.694   2.616   7.167
17975TIP3    H1 4393   6.630   2.547   7.202
17975TIP3    H2 4394   6.763   2.605   7.233
17976TIP3   OH2 4395   6.882   2.548   6.315
17976TIP3    H1 4396   6.854   2.604   6.241
17976TIP3    H2 4397   6.892   2.463   6.268
17977TIP3   OH2 4398   5.993   2.563   6.836
17977TIP3    H1 4399   6.000   2.603   6.924
17977TIP3    H2 4400   5.949   2.479   6.856
17978TIP3   OH2 4401   6.331   2.297   5.518
17978TIP3    H1 4402   6.286   2.260   5.596
17978TIP3    H2 4403   6.261   2.344   5.470
17979TIP3   OH2 4404   5.658   2.274   6.233
17979TIP3    H1 4405   5.726   2.270   6.303
17979TIP3    H2 4406   5.704   2.237   6.156
17980TIP3   OH2 4407   5.786   2.345   5.771
17980TIP3    H1 4408   5.837   2.405   5.713
17980TIP3    H2 4409   5.718   2.409   5.803
17981TIP3   OH2 4410   6.811   2.704   6.779
17981TIP3    H1 4411   6.838   2.640   6.710
17981TIP3    H2 4412   6.750   2.651   6.834
17982TIP3   OH2 4413   6.483   2.304   6.254
17982TIP3    H1 4414   6.389   2.305   6.283
17982TIP3    H2 4415   6.531   2.288   6.336
17983TIP3   OH2 4416   5.963   2.458   6.143
17983TIP3    H1 4417   5.876   2.477   6.102
17983TIP3    H2 4418   5.991   2.376   6.099
17984TIP3   OH2 4419   6.327   2.466   5.905
17984TIP3    H1 4420   6.423   2.475   5.919
17984TIP3    H2 4421   6.303   2.531   5.837
17985TIP3   OH2 4422   6.923   2.227   6.578
17985TIP3    H1 4423   6.854   2.233   6.648
17985TIP3    H2 4424   6.872   2.203   6.500
17986TIP3   OH2 4425   6.199   2.581   5.665
17986TIP3    H1 4426   6.144   2.547   5.593
17986TIP3    H2 4427   6.279   2.604   5.615
17987TIP3   OH2 4428   7.241   3.794   7.214
17987TIP3    H1 4429   7.270   3.829   7.127
17987TIP3    H2 4430   7.315   3.822   7.268
17988TIP3   OH2 4431   6.012   3.037   7.168
17988TIP3    H1 4432   6.081   3.063   7.230
17988TIP3    H2 4433   5.933   3.052   7.224
17989TIP3   OH2 4434   6.611   2.580   6.444
17989TIP3    H1 4435   6.670   2.526   6.390
17989TIP3    H2 4436   6.596   2.525   6.522
17990TIP3   OH2 4437   6.112   2.194   6.087
17990TIP3    H1 4438   6.081   2.102   6.086
17990TIP3    H2 4439   6.191   2.188   6.032
17991TIP3   OH2 4440   6.474   2.412   6.685
17991TIP3    H1 4441   6.392   2.464   6.694
17991TIP3    H2 4442   6.529   2.447   6.757
17992TIP3   OH2 4443   6.532   3.036   5.854
17992TIP3    H1 4444   6.452   2.988   5.823
17992TIP3    H2 4445   6.510   3.046   5.948
17993TIP3   OH2 4446   7.250   2.954   6.736
17993TIP3    H1 4447   7.307   3.002   6.674
17993TIP3    H2 4448   7.166   2.961   6.687
17994TIP3   OH2 4449   6.917   2.313   5.676
17994TIP3    H1 4450   6.823   2.329   5.656
17994TIP3    H2 4451   6.949   2.401   5.703
17995TIP3   OH2 4452   6.685   3.060   6.980
17995TIP3    H1 4453   6.645   3.020   7.058
17995TIP3    H2 4454   6.657   3.152   6.987
17996TIP3   OH2 4455   6.990   2.508   5.840
17996TIP3    H1 4456   7.080   2.494   5.877
17996TIP3    H2 4457   6.999   2.590   5.787
17997TIP3   OH2 4458   6.049   2.976   6.442
17997TIP3    H1 4459   6.107   2.967   6.362
17997TIP3    H2 4460   6.049   2.886   6.477
17998TIP3   OH2 4461   6.742   3.182   5.760
17998TIP3    H1 4462   6.707   3.267   5.796
17998TIP3    H2 4463   6.668   3.121   5.781
17999TIP3   OH2 4464   5.742   2.815   6.962
17999TIP3    H1 4465   5.763   2.771   7.046
17999TIP3    H2 4466   5.681   2.753   6.919
18000TIP3   OH2 4467   6.446   2.772   7.178
18000TIP3    H1 4468   6.411   2.741   7.093
18000TIP3    H2 4469   6.536   2.738   7.178
18001TIP3   OH2 4470   6.912   3.304   6.973
18001TIP3    H1 4471   6.820   3.322   6.949
18001TIP3    H2 4472   6.909   3.332   7.066
18002TIP3   OH2 4473   7.479   2.523   5.814
18002TIP3    H1 4474   7.422   2.493   5.740
18002TIP3    H2 4475   7.487   2.616   5.786
18003TIP3   OH2 4476   7.480   3.105   7.093
18003TIP3    H1 4477   7.391   3.130   7.058
18003TIP3    H2 4478   7.534   3.105   7.012
18004TIP3   OH2 4479   7.309   3.405   5.854
18004TIP3    H1 4480   7.272   3.322   5.886
18004TIP3    H2 4481   7.339   3.386   5.762
18005TIP3   OH2 4482   7.029   2.885   6.566
18005TIP3    H1 4483   6.935   2.866   6.550
18005TIP3    H2 4484   7.072   2.811   6.519
18006TIP3   OH2 4485   6.282   3.321   6.175
18006TIP3    H1 4486   6.331   3.402   6.152
18006TIP3    H2 4487   6.194   3.340   6.140
18007TIP3   OH2 4488   5.853   2.807   5.619
18007TIP3    H1 4489   5.916   2.865   5.667
18007TIP3    H2 4490   5.770   2.834   5.662
18008TIP3   OH2 4491   6.426   3.088   6.125
18008TIP3    H1 4492   6.390   3.179   6.134
18008TIP3    H2 4493   6.352   3.036   6.167
18009TIP3   OH2 4494   6.469   3.504   6.766
18009TIP3    H1 4495   6.514   3.585   6.737
18009TIP3    H2 4496   6.530   3.471   6.833
18010TIP3   OH2 4497   6.291   3.585   6.079
18010TIP3    H1 4498   6.194   3.598   6.092
18010TIP3    H2 4499   6.327   3.669   6.112
18011TIP3   OH2 4500   6.821   3.105   6.727
18011TIP3    H1 4501   6.787   3.086   6.817
18011TIP3    H2 4502   6.885   3.034   6.710
18012TIP3   OH2 4503   7.050   3.209   5.638
18012TIP3    H1 4504   7.083   3.164   5.718
18012TIP3    H2 4505   6.955   3.193   5.647
18013TIP3   OH2 4506   7.100   3.564   6.979
18013TIP3    H1 4507   7.033   3.513   6.930
18013TIP3    H2 4508   7.121   3.632   6.911
18014TIP3   OH2 4509   7.498   3.651   5.656
18014TIP3    H1 4510   7.572   3.713   5.644
18014TIP3    H2 4511   7.428   3.711   5.691
18015TIP3   OH2 4512   5.908   2.289   6.917
18015TIP3    H1 4513   5.817   2.323   6.913
18015TIP3    H2 4514   5.897   2.203   6.961
18016TIP3   OH2 4515   7.132   3.075   5.862
18016TIP3    H1 4516   7.108   2.996   5.915
18016TIP3    H2 4517   7.227   3.080   5.880
18017TIP3   OH2 4518   5.870   3.468   6.759
18017TIP3    H1 4519   5.900   3.375   6.760
18017TIP3    H2 4520   5.894   3.496   6.849
18018TIP3   OH2 4521   6.467   3.316   5.483
18018TIP3    H1 4522   6.481   3.239   5.428
18018TIP3    H2 4523   6.423   3.279   5.563
18019TIP3   OH2 4524   6.345   3.272   5.730
18019TIP3    H1 4525   6.368   3.220   5.808
18019TIP3    H2 4526   6.352   3.365   5.761
18020TIP3   OH2 4527   5.992   2.999   5.770
18020TIP3    H1 4528   5.930   3.033   5.838
18020TIP3    H2 4529   6.050   3.074   5.755
18021TIP3   OH2 4530   6.781   2.268   6.813
18021TIP3    H1 4531   6.854   2.269   6.876
18021TIP3    H2 4532   6.743   2.180   6.830
18022TIP3   OH2 4533   6.855   2.224   5.922
18022TIP3    H1 4534   6.880   2.269   5.839
18022TIP3    H2 4535   6.914   2.267   5.985
18023TIP3   OH2 4536   6.625   3.438   5.799
18023TIP3    H1 4537   6.543   3.491   5.809
18023TIP3    H2 4538   6.677   3.493   5.738
18024TIP3   OH2 4539   6.579   2.398   6.003
18024TIP3    H1 4540   6.657   2.455   6.006
18024TIP3    H2 4541   6.553   2.386   6.096
18025TIP3   OH2 4542   6.640   2.504   6.918
18025TIP3    H1 4543   6.639   2.554   7.002
18025TIP3    H2 4544   6.696   2.426   6.930
18026TIP3   OH2 4545   6.664   2.103   6.091
18026TIP3    H1 4546   6.632   2.169   6.156
18026TIP3    H2 4547   6.733   2.158   6.045
18027TIP3   OH2 4548   6.362   3.542   5.806
18027TIP3    H1 4549   6.377   3.624   5.753
18027TIP3    H2 4550   6.337   3.578   5.893
18028TIP3   OH2 4551   6.230   2.213   5.765
18028TIP3    H1 4552   6.225   2.305   5.798
18028TIP3    H2 4553   6.321   2.189   5.790
18029TIP3   OH2 4554   7.253   2.289   7.009
18029TIP3    H1 4555   7.159   2.317   6.993
18029TIP3    H2 4556   7.284   2.284   6.917
18030TIP3   OH2 4557   7.113   2.666   6.407
18030TIP3    H1 4558   7.031   2.621   6.378
18030TIP3    H2 4559   7.161   2.597   6.459
18031TIP3   OH2 4560   6.055   3.260   5.665
18031TIP3    H1 4561   6.120   3.322   5.697
18031TIP3    H2 4562   6.105   3.212   5.596
18032TIP3   OH2 4563   5.891   2.525   5.585
18032TIP3    H1 4564   5.891   2.622   5.598
18032TIP3    H2 4565   5.804   2.507   5.550
18033TIP3   OH2 4566   7.219   3.591   6.574
18033TIP3    H1 4567   7.210   3.660   6.505
18033TIP3    H2 4568   7.316   3.597   6.592
18034TIP3   OH2 4569   5.969   2.004   6.454
18034TIP3    H1 4570   5.949   2.006   6.358
18034TIP3    H2 4571   5.927   1.919   6.480
18035TIP3   OH2 4572   5.866   3.400   6.070
18035TIP3    H1 4573   5.778   3.440   6.064
18035TIP3    H2 4574   5.913   3.442   5.998
18036TIP3   OH2 4575   5.838   3.609   7.128
18036TIP3    H1 4576   5.860   3.637   7.221
18036TIP3    H2 4577   5.751   3.578   7.160
18037TIP3   OH2 4578   6.255   3.552   7.355
18037TIP3    H1 4579   6.332   3.505   7.389
18037TIP3    H2 4580   6.247   3.526   7.262
18038TIP3   OH2 4581   6.664   3.503   5.497
18038TIP3    H1 4582   6.593   3.439   5.519
18038TIP3    H2 4583   6.737   3.445   5.477
18039TIP3   OH2 4584   6.901   3.394   7.238
18039TIP3    H1 4585   6.873   3.302   7.255
18039TIP3    H2 4586   6.985   3.398   7.285
18040TIP3   OH2 4587   7.123   3.482   5.520
18040TIP3    H1 4588   7.148   3.399   5.566
18040TIP3    H2 4589   7.199   3.499   5.466
18041TIP3   OH2 4590   5.780   3.039   7.290
18041TIP3    H1 4591   5.794   2.946   7.267
18041TIP3    H2 4592   5.702   3.065   7.239
18042TIP3   OH2 4593   6.214   3.072   5.504
18042TIP3    H1 4594   6.224   2.995   5.561
18042TIP3    H2 4595   6.280   3.057   5.436
18043TIP3   OH2 4596   6.453   3.038   7.235
18043TIP3    H1 4597   6.415   3.069   7.150
18043TIP3    H2 4598   6.454   2.940   7.224
18044TIP3   OH2 4599   6.747   3.181   5.478
18044TIP3    H1 4600   6.726   3.195   5.572
18044TIP3    H2 4601   6.732   3.086   5.467
18045TIP3   OH2 4602   7.017   3.022   6.977
18045TIP3    H1 4603   7.095   3.081   6.967
18045TIP3    H2 4604   6.948   3.090   6.978
18046TIP3   OH2 4605   5.869   2.761   7.237
18046TIP3    H1 4606   5.909   2.675   7.226
18046TIP3    H2 4607   5.841   2.762   7.330
18047TIP3   OH2 4608   6.336   2.874   5.742
18047TIP3    H1 4609   6.279   2.824   5.805
18047TIP3    H2 4610   6.362   2.805   5.676
18048TIP3   OH2 4611   6.258   2.656   6.971
18048TIP3    H1 4612   6.199   2.728   6.997
18048TIP3    H2 4613   6.297   2.693   6.889
18049TIP3   OH2 4614   6.440   2.704   5.562
18049TIP3    H1 4615   6.426   2.679   5.469
18049TIP3    H2 4616   6.537   2.702   5.572
18050TIP3   OH2 4617   6.766   2.910   7.304
18050TIP3    H1 4618   6.862   2.915   7.299
18050TIP3    H2 4619   6.747   2.836   7.364
18051TIP3   OH2 4620   7.373   2.932   5.506
18051TIP3    H1 4621   7.350   2.891   5.422
18051TIP3    H2 4622   7.382   3.025   5.483
18052TIP3   OH2 4623   6.298   2.394   7.079
18052TIP3    H1 4624   6.310   2.323   7.014
18052TIP3    H2 4625   6.294   2.474   7.023
18053TIP3   OH2 4626   6.339   2.231   6.832
18053TIP3    H1 4627   6.390   2.278   6.761
18053TIP3    H2 4628   6.250   2.223   6.791
18054TIP3   OH2 4629   6.496   2.782   6.860
18054TIP3    H1 4630   6.567   2.764   6.797
18054TIP3    H2 4631   6.455   2.862   6.823
18055TIP3   OH2 4632   6.934   2.557   7.349
18055TIP3    H1 4633   6.956   2.463   7.340
18055TIP3    H2 4634   7.021   2.601   7.357
18056TIP3   OH2 4635   7.071   2.840   7.167
18056TIP3    H1 4636   7.048   2.917   7.110
18056TIP3    H2 4637   7.169   2.840   7.152
18057TIP3   OH2 4638   6.148   2.515   7.269
18057TIP3    H1 4639   6.068   2.461   7.250
18057TIP3    H2 4640   6.212   2.480   7.204
18058TIP3   OH2 4641   6.417   1.974   6.873
18058TIP3    H1 4642   6.401   2.071   6.861
18058TIP3    H2 4643   6.343   1.939   6.821
18059TIP3   OH2 4644   6.546   2.406   7.232
18059TIP3    H1 4645   6.513   2.386   7.321
18059TIP3    H2 4646   6.465   2.389   7.179
18060TIP3   OH2 4647   6.818   2.329   7.146
18060TIP3    H1 4648   6.721   2.327   7.152
18060TIP3    H2 4649   6.841   2.256   7.206
18061TIP3   OH2 4650   6.983   2.189   7.345
18061TIP3    H1 4651   6.968   2.093   7.328
18061TIP3    H2 4652   6.935   2.206   7.425
18062TIP3   OH2 4653   5.957   2.313   7.244
18062TIP3    H1 4654   5.978   2.240   7.183
18062TIP3    H2 4655   5.944   2.264   7.328
18063TIP3   OH2 4656   6.439   1.913   7.141
18063TIP3    H1 4657   6.507   1.843   7.139
18063TIP3    H2 4658   6.428   1.929   7.045
18064TIP3   OH2 4659   6.477   2.076   7.351
18064TIP3    H1 4660   6.460   2.024   7.268
18064TIP3    H2 4661   6.416   2.151   7.340
18065TIP3   OH2 4662   6.423   3.771   5.670
18065TIP3    H1 4663   6.521   3.775   5.674
18065TIP3    H2 4664   6.405   3.829   5.597
18066TIP3   OH2 4665   5.782   3.227   5.617
18066TIP3    H1 4666   5.877   3.234   5.641
18066TIP3    H2 4667   5.787   3.165   5.543
18067TIP3   OH2 4668   5.654   3.765   6.116
18067TIP3    H1 4669   5.585   3.715   6.065
18067TIP3    H2 4670   5.685   3.695   6.177
18068TIP3   OH2 4671   5.735   3.579   6.301
18068TIP3    H1 4672   5.704   3.489   6.318
18068TIP3    H2 4673   5.763   3.607   6.390
18069TIP3   OH2 4674   7.488   3.657   6.593
18069TIP3    H1 4675   7.492   3.671   6.689
18069TIP3    H2 4676   7.561   3.713   6.563
18070TIP3   OH2 4677   7.454   3.616   6.887
18070TIP3    H1 4678   7.402   3.540   6.851
18070TIP3    H2 4679   7.498   3.569   6.960
18071TIP3   OH2 4680   7.294   3.186   7.353
18071TIP3    H1 4681   7.207   3.185   7.394
18071TIP3    H2 4682   7.332   3.267   7.395
18072TIP3   OH2 4683   7.425   3.020   5.898
18072TIP3    H1 4684   7.511   3.060   5.917
18072TIP3    H2 4685   7.424   2.948   5.965
18073TIP3   OH2 4686   7.461   2.828   6.087
18073TIP3    H1 4687   7.386   2.777   6.125
18073TIP3    H2 4688   7.521   2.842   6.163
18074TIP3   OH2 4689   7.437   3.098   6.585
18074TIP3    H1 4690   7.519   3.060   6.548
18074TIP3    H2 4691   7.451   3.193   6.568
18075TIP3   OH2 4692   7.293   3.388   6.812
18075TIP3    H1 4693   7.224   3.422   6.871
18075TIP3    H2 4694   7.238   3.348   6.741
18076TIP3   OH2 4695   7.491   2.812   5.724
18076TIP3    H1 4696   7.434   2.847   5.653
18076TIP3    H2 4697   7.482   2.882   5.792
18077TIP3   OH2 4698   7.325   2.532   5.582
18077TIP3    H1 4699   7.335   2.598   5.513
18077TIP3    H2 4700   7.310   2.451   5.530
18078TIP3   OH2 4701   7.243   2.676   6.144
18078TIP3    H1 4702   7.228   2.580   6.140
18078TIP3    H2 4703   7.210   2.698   6.232
18079TIP3   OH2 4704   5.744   2.886   6.552
18079TIP3    H1 4705   5.760   2.876   6.455
18079TIP3    H2 4706   5.834   2.867   6.584
18080TIP3   OH2 4707   7.328   2.872   7.115
18080TIP3    H1 4708   7.391   2.798   7.126
18080TIP3    H2 4709   7.388   2.950   7.112
18081TIP3   OH2 4710   7.478   2.662   7.178
18081TIP3    H1 4711   7.392   2.622   7.159
18081TIP3    H2 4712   7.537   2.585   7.167
18082TIP3   OH2 4713   7.251   2.283   5.496
18082TIP3    H1 4714   7.311   2.235   5.556
18082TIP3    H2 4715   7.166   2.239   5.508
18083TIP3   OH2 4716   7.210   2.434   5.992
18083TIP3    H1 4717   7.240   2.340   6.003
18083TIP3    H2 4718   7.289   2.474   5.952
18084TIP3   OH2 4719   7.274   2.488   6.533
18084TIP3    H1 4720   7.370   2.512   6.532
18084TIP3    H2 4721   7.255   2.502   6.627
18085TIP3   OH2 4722   7.281   2.561   6.814
18085TIP3    H1 4723   7.191   2.590   6.840
18085TIP3    H2 4724   7.325   2.645   6.788
18086TIP3   OH2 4725   5.705   2.411   7.160
18086TIP3    H1 4726   5.798   2.394   7.184
18086TIP3    H2 4727   5.659   2.332   7.196
18087TIP3   OH2 4728   7.503   1.967   7.345
18087TIP3    H1 4729   7.541   1.898   7.287
18087TIP3    H2 4730   7.521   2.046   7.291
18088TIP3   OH2 4731   7.276   2.162   5.994
18088TIP3    H1 4732   7.298   2.118   6.080
18088TIP3    H2 4733   7.216   2.098   5.950
18089TIP3   OH2 4734   5.826   2.241   6.451
18089TIP3    H1 4735   5.872   2.159   6.477
18089TIP3    H2 4736   5.880   2.311   6.489
18090TIP3   OH2 4737   5.654   2.543   6.554
18090TIP3    H1 4738   5.710   2.520   6.477
18090TIP3    H2 4739   5.700   2.624   6.581
18091TIP3   OH2 4740   7.458   2.175   7.188
18091TIP3    H1 4741   7.366   2.204   7.172
18091TIP3    H2 4742   7.467   2.125   7.105
18092TIP3   OH2 4743   7.459   2.168   5.648
18092TIP3    H1 4744   7.503   2.096   5.601
18092TIP3    H2 4745   7.530   2.233   5.654
18093TIP3   OH2 4746   5.689   2.167   5.959
18093TIP3    H1 4747   5.596   2.189   5.948
18093TIP3    H2 4748   5.732   2.219   5.889
18094TIP3   OH2 4749   7.164   3.664   6.155
18094TIP3    H1 4750   7.233   3.634   6.094
18094TIP3    H2 4751   7.216   3.714   6.221
18095TIP3   OH2 4752   5.686   2.035   6.791
18095TIP3    H1 4753   5.618   2.016   6.859
18095TIP3    H2 4754   5.639   2.102   6.737
18096TIP3   OH2 4755   5.908   3.348   7.209
18096TIP3    H1 4756   5.827   3.383   7.166
18096TIP3    H2 4757   5.881   3.350   7.301
18097TIP3   OH2 4758   6.198   3.455   6.835
18097TIP3    H1 4759   6.165   3.542   6.808
18097TIP3    H2 4760   6.291   3.465   6.805
18098TIP3   OH2 4761   6.633   3.596   7.124
18098TIP3    H1 4762   6.647   3.566   7.216
18098TIP3    H2 4763   6.722   3.629   7.100
18099TIP3   OH2 4764   6.860   3.722   7.057
18099TIP3    H1 4765   6.934   3.665   7.030
18099TIP3    H2 4766   6.898   3.768   7.134
18100TIP3   OH2 4767   7.362   1.986   6.966
18100TIP3    H1 4768   7.278   2.015   6.926
18100TIP3    H2 4769   7.378   1.903   6.915
18101TIP3   OH2 4770   5.942   3.780   6.835
18101TIP3    H1 4771   5.867   3.828   6.797
18101TIP3    H2 4772   5.911   3.758   6.925
18102TIP3   OH2 4773   6.189   3.737   6.740
18102TIP3    H1 4774   6.101   3.752   6.780
18102TIP3    H2 4775   6.183   3.796   6.664
18103TIP3   OH2 4776   6.659   3.728   6.658
18103TIP3    H1 4777   6.613   3.784   6.594
18103TIP3    H2 4778   6.672   3.791   6.732
18104TIP3   OH2 4779   6.888   3.610   6.761
18104TIP3    H1 4780   6.802   3.637   6.725
18104TIP3    H2 4781   6.936   3.694   6.752
18105TIP3   OH2 4782   7.147   3.767   6.784
18105TIP3    H1 4783   7.140   3.862   6.761
18105TIP3    H2 4784   7.167   3.729   6.696
18106TIP3   OH2 4785   5.887   3.644   6.529
18106TIP3    H1 4786   5.880   3.597   6.615
18106TIP3    H2 4787   5.969   3.606   6.490
18107TIP3   OH2 4788   6.094   3.515   6.394
18107TIP3    H1 4789   6.078   3.421   6.416
18107TIP3    H2 4790   6.180   3.530   6.439
18108TIP3   OH2 4791   6.355   3.563   6.482
18108TIP3    H1 4792   6.371   3.471   6.455
18108TIP3    H2 4793   6.359   3.558   6.578
18109TIP3   OH2 4794   6.701   2.129   6.396
18109TIP3    H1 4795   6.633   2.064   6.423
18109TIP3    H2 4796   6.756   2.075   6.337
18110TIP3   OH2 4797   7.214   1.934   6.402
18110TIP3    H1 4798   7.276   1.993   6.352
18110TIP3    H2 4799   7.126   1.970   6.379
18111TIP3   OH2 4800   7.382   2.058   6.230
18111TIP3    H1 4801   7.450   2.000   6.188
18111TIP3    H2 4802   7.432   2.142   6.240
18112TIP3   OH2 4803   5.938   1.991   6.180
18112TIP3    H1 4804   5.858   1.971   6.127
18112TIP3    H2 4805   5.984   1.905   6.175
18113TIP3   OH2 4806   5.812   1.967   5.749
18113TIP3    H1 4807   5.864   2.033   5.698
18113TIP3    H2 4808   5.759   2.024   5.808
18114TIP3   OH2 4809   6.385   1.984   6.159
18114TIP3    H1 4810   6.475   2.020   6.152
18114TIP3    H2 4811   6.381   1.962   6.252
18115TIP3   OH2 4812   6.956   1.986   6.322
18115TIP3    H1 4813   6.952   1.997   6.226
18115TIP3    H2 4814   6.918   1.895   6.334
18116TIP3   OH2 4815   7.083   1.989   5.887
18116TIP3    H1 4816   7.009   2.048   5.872
18116TIP3    H2 4817   7.040   1.903   5.911
18117TIP3   OH2 4818   5.806   3.563   5.853
18117TIP3    H1 4819   5.739   3.562   5.782
18117TIP3    H2 4820   5.808   3.658   5.870
18118TIP3   OH2 4821   5.995   2.156   5.606
18118TIP3    H1 4822   6.052   2.100   5.552
18118TIP3    H2 4823   6.062   2.195   5.665
18119TIP3   OH2 4824   6.501   2.186   5.844
18119TIP3    H1 4825   6.526   2.128   5.918
18119TIP3    H2 4826   6.507   2.272   5.892
18120TIP3   OH2 4827   6.691   3.696   5.685
18120TIP3    H1 4828   6.786   3.714   5.669
18120TIP3    H2 4829   6.673   3.639   5.607
18121TIP3   OH2 4830   7.364   3.643   5.960
18121TIP3    H1 4831   7.343   3.565   5.903
18121TIP3    H2 4832   7.355   3.717   5.896
18122TIP3   OH2 4833   5.925   2.046   7.127
18122TIP3    H1 4834   5.888   1.966   7.167
18122TIP3    H2 4835   6.017   2.040   7.161
18123TIP3   OH2 4836   6.127   1.981   7.284
18123TIP3    H1 4837   6.217   1.949   7.267
18123TIP3    H2 4838   6.093   1.903   7.331
18124TIP3   OH2 4839   5.989   3.662   5.550
18124TIP3    H1 4840   5.960   3.687   5.637
18124TIP3    H2 4841   6.063   3.602   5.567
18125TIP3   OH2 4842   6.968   1.915   7.307
18125TIP3    H1 4843   6.977   1.865   7.389
18125TIP3    H2 4844   7.058   1.909   7.267
18126TIP3   OH2 4845   7.288   3.517   7.169
18126TIP3    H1 4846   7.208   3.503   7.114
18126TIP3    H2 4847   7.277   3.611   7.191
18127TIP3   OH2 4848   7.853   2.797   6.671
18127TIP3    H1 4849   7.861   2.729   6.741
18127TIP3    H2 4850   7.927   2.856   6.693
18128TIP3   OH2 4851   7.944   3.240   6.527
18128TIP3    H1 4852   7.915   3.154   6.490
18128TIP3    H2 4853   8.041   3.226   6.530
18129TIP3   OH2 4854   7.610   2.599   6.069
18129TIP3    H1 4855   7.567   2.687   6.064
18129TIP3    H2 4856   7.552   2.545   6.013
18130TIP3   OH2 4857   7.685   2.823   6.285
18130TIP3    H1 4858   7.708   2.740   6.330
18130TIP3    H2 4859   7.756   2.830   6.219
18131TIP3   OH2 4860   8.039   2.340   6.338
18131TIP3    H1 4861   8.085   2.411   6.287
18131TIP3    H2 4862   8.040   2.274   6.269
18132TIP3   OH2 4863   7.748   2.567   6.389
18132TIP3    H1 4864   7.817   2.515   6.435
18132TIP3    H2 4865   7.757   2.534   6.298
18133TIP3   OH2 4866   7.971   2.214   6.722
18133TIP3    H1 4867   7.945   2.273   6.647
18133TIP3    H2 4868   7.905   2.241   6.789
18134TIP3   OH2 4869   7.922   2.411   6.546
18134TIP3    H1 4870   7.994   2.476   6.557
18134TIP3    H2 4871   7.966   2.369   6.466
18135TIP3   OH2 4872   8.050   3.189   6.814
18135TIP3    H1 4873   8.058   3.284   6.796
18135TIP3    H2 4874   7.972   3.183   6.873
18136TIP3   OH2 4875   7.678   3.144   5.906
18136TIP3    H1 4876   7.654   3.175   5.816
18136TIP3    H2 4877   7.684   3.228   5.957
18137TIP3   OH2 4878   8.084   2.918   6.202
18137TIP3    H1 4879   8.070   2.881   6.113
18137TIP3    H2 4880   8.157   2.863   6.236
18138TIP3   OH2 4881   7.923   2.851   6.955
18138TIP3    H1 4882   7.929   2.917   7.025
18138TIP3    H2 4883   7.830   2.861   6.928
18139TIP3   OH2 4884   8.051   3.447   7.112
18139TIP3    H1 4885   8.052   3.418   7.018
18139TIP3    H2 4886   7.961   3.417   7.138
18140TIP3   OH2 4887   8.003   2.816   5.961
18140TIP3    H1 4888   7.974   2.896   5.912
18140TIP3    H2 4889   7.931   2.756   5.943
18141TIP3   OH2 4890   7.608   3.062   6.852
18141TIP3    H1 4891   7.565   3.053   6.765
18141TIP3    H2 4892   7.617   2.967   6.874
18142TIP3   OH2 4893   7.590   3.335   6.531
18142TIP3    H1 4894   7.685   3.324   6.529
18142TIP3    H2 4895   7.580   3.417   6.582
18143TIP3   OH2 4896   7.910   3.621   6.146
18143TIP3    H1 4897   7.928   3.579   6.232
18143TIP3    H2 4898   7.827   3.576   6.123
18144TIP3   OH2 4899   7.831   3.202   6.953
18144TIP3    H1 4900   7.861   3.155   7.033
18144TIP3    H2 4901   7.752   3.151   6.925
18145TIP3   OH2 4902   8.102   2.040   6.541
18145TIP3    H1 4903   8.012   2.030   6.501
18145TIP3    H2 4904   8.094   2.128   6.581
18146TIP3   OH2 4905   8.111   2.549   6.736
18146TIP3    H1 4906   8.017   2.528   6.746
18146TIP3    H2 4907   8.101   2.603   6.655
18147TIP3   OH2 4908   8.083   2.534   6.180
18147TIP3    H1 4909   7.994   2.517   6.143
18147TIP3    H2 4910   8.144   2.513   6.109
18148TIP3   OH2 4911   7.872   2.567   6.839
18148TIP3    H1 4912   7.883   2.607   6.926
18148TIP3    H2 4913   7.836   2.479   6.857
18149TIP3   OH2 4914   7.545   2.274   6.233
18149TIP3    H1 4915   7.613   2.270   6.303
18149TIP3    H2 4916   7.591   2.237   6.156
18150TIP3   OH2 4917   7.675   2.349   5.777
18150TIP3    H1 4918   7.721   2.405   5.712
18150TIP3    H2 4919   7.603   2.410   5.803
18151TIP3   OH2 4920   7.842   2.456   6.142
18151TIP3    H1 4921   7.755   2.472   6.100
18151TIP3    H2 4922   7.876   2.372   6.106
18152TIP3   OH2 4923   8.087   2.576   5.666
18152TIP3    H1 4924   8.026   2.548   5.595
18152TIP3    H2 4925   8.163   2.604   5.615
18153TIP3   OH2 4926   7.900   3.037   7.170
18153TIP3    H1 4927   7.968   3.066   7.231
18153TIP3    H2 4928   7.819   3.054   7.224
18154TIP3   OH2 4929   7.974   2.193   6.080
18154TIP3    H1 4930   7.955   2.097   6.092
18154TIP3    H2 4931   8.070   2.191   6.062
18155TIP3   OH2 4932   7.930   2.973   6.434
18155TIP3    H1 4933   8.001   2.966   6.367
18155TIP3    H2 4934   7.937   2.888   6.480
18156TIP3   OH2 4935   7.629   2.816   6.962
18156TIP3    H1 4936   7.648   2.770   7.045
18156TIP3    H2 4937   7.567   2.755   6.918
18157TIP3   OH2 4938   7.740   2.806   5.623
18157TIP3    H1 4939   7.802   2.867   5.666
18157TIP3    H2 4940   7.655   2.834   5.661
18158TIP3   OH2 4941   7.795   2.288   6.919
18158TIP3    H1 4942   7.704   2.323   6.912
18158TIP3    H2 4943   7.781   2.202   6.961
18159TIP3   OH2 4944   7.759   3.469   6.758
18159TIP3    H1 4945   7.782   3.375   6.758
18159TIP3    H2 4946   7.781   3.492   6.848
18160TIP3   OH2 4947   7.881   2.998   5.776
18160TIP3    H1 4948   7.814   3.038   5.835
18160TIP3    H2 4949   7.932   3.076   5.751
18161TIP3   OH2 4950  -0.049   2.211   5.741
18161TIP3    H1 4951  -0.045   2.298   5.783
18161TIP3    H2 4952   0.043   2.185   5.762
18162TIP3   OH2 4953   7.943   3.254   5.670
18162TIP3    H1 4954   8.006   3.322   5.696
18162TIP3    H2 4955   7.993   3.213   5.597
18163TIP3   OH2 4956   7.779   2.526   5.589
18163TIP3    H1 4957   7.773   2.623   5.595
18163TIP3    H2 4958   7.694   2.504   5.549
18164TIP3   OH2 4959   7.855   2.004   6.452
18164TIP3    H1 4960   7.834   2.007   6.357
18164TIP3    H2 4961   7.813   1.919   6.481
18165TIP3   OH2 4962   7.749   3.397   6.067
18165TIP3    H1 4963   7.664   3.443   6.063
18165TIP3    H2 4964   7.800   3.444   6.000
18166TIP3   OH2 4965   7.678   3.660   7.191
18166TIP3    H1 4966   7.727   3.638   7.271
18166TIP3    H2 4967   7.626   3.577   7.178
18167TIP3   OH2 4968   7.662   3.034   7.298
18167TIP3    H1 4969   7.680   2.947   7.258
18167TIP3    H2 4970   7.589   3.067   7.241
18168TIP3   OH2 4971   8.098   3.071   5.503
18168TIP3    H1 4972   8.109   2.994   5.560
18168TIP3    H2 4973   8.164   3.062   5.434
18169TIP3   OH2 4974   7.759   2.765   7.238
18169TIP3    H1 4975   7.789   2.675   7.216
18169TIP3    H2 4976   7.718   2.756   7.323
18170TIP3   OH2 4977   8.021   2.522   7.280
18170TIP3    H1 4978   7.951   2.461   7.250
18170TIP3    H2 4979   8.091   2.492   7.217
18171TIP3   OH2 4980   7.845   2.314   7.246
18171TIP3    H1 4981   7.863   2.240   7.183
18171TIP3    H2 4982   7.834   2.264   7.329
18172TIP3   OH2 4983   7.669   3.227   5.618
18172TIP3    H1 4984   7.764   3.235   5.639
18172TIP3    H2 4985   7.673   3.165   5.543
18173TIP3   OH2 4986   7.542   3.763   6.114
18173TIP3    H1 4987   7.470   3.715   6.067
18173TIP3    H2 4988   7.571   3.697   6.179
18174TIP3   OH2 4989   7.626   3.576   6.300
18174TIP3    H1 4990   7.590   3.489   6.320
18174TIP3    H2 4991   7.648   3.609   6.388
18175TIP3   OH2 4992   7.628   2.882   6.549
18175TIP3    H1 4993   7.649   2.876   6.453
18175TIP3    H2 4994   7.717   2.866   6.585
18176TIP3   OH2 4995   7.594   2.416   7.168
18176TIP3    H1 4996   7.687   2.391   7.183
18176TIP3    H2 4997   7.547   2.333   7.191
18177TIP3   OH2 4998   7.711   2.242   6.451
18177TIP3    H1 4999   7.762   2.161   6.472
18177TIP3    H2 5000   7.766   2.312   6.489
18178TIP3   OH2 5001   7.539   2.544   6.553
18178TIP3    H1 5002   7.598   2.519   6.478
18178TIP3    H2 5003   7.587   2.623   6.581
18179TIP3   OH2 5004   7.577   2.168   5.960
18179TIP3    H1 5005   7.482   2.188   5.948
18179TIP3    H2 5006   7.619   2.219   5.889
18180TIP3   OH2 5007   7.573   2.035   6.791
18180TIP3    H1 5008   7.505   2.015   6.858
18180TIP3    H2 5009   7.526   2.102   6.737
18181TIP3   OH2 5010   7.792   3.363   7.210
18181TIP3    H1 5011   7.707   3.373   7.164
18181TIP3    H2 5012   7.761   3.345   7.300
18182TIP3   OH2 5013   8.088   3.460   6.841
18182TIP3    H1 5014   8.050   3.539   6.800
18182TIP3    H2 5015   8.179   3.463   6.804
18183TIP3   OH2 5016   7.827   3.781   6.839
18183TIP3    H1 5017   7.756   3.828   6.789
18183TIP3    H2 5018   7.775   3.759   6.917
18184TIP3   OH2 5019   8.057   3.714   6.727
18184TIP3    H1 5020   7.978   3.747   6.772
18184TIP3    H2 5021   8.073   3.790   6.665
18185TIP3   OH2 5022   7.769   3.646   6.532
18185TIP3    H1 5023   7.764   3.597   6.616
18185TIP3    H2 5024   7.850   3.609   6.490
18186TIP3   OH2 5025   7.980   3.516   6.397
18186TIP3    H1 5026   7.962   3.422   6.417
18186TIP3    H2 5027   8.065   3.528   6.442
18187TIP3   OH2 5028   7.821   1.991   6.181
18187TIP3    H1 5029   7.742   1.969   6.128
18187TIP3    H2 5030   7.869   1.906   6.178
18188TIP3   OH2 5031   7.694   1.967   5.747
18188TIP3    H1 5032   7.749   2.031   5.699
18188TIP3    H2 5033   7.643   2.024   5.808
18189TIP3   OH2 5034   7.691   3.562   5.851
18189TIP3    H1 5035   7.623   3.562   5.781
18189TIP3    H2 5036   7.692   3.656   5.872
18190TIP3   OH2 5037   7.880   2.156   5.608
18190TIP3    H1 5038   7.935   2.103   5.549
18190TIP3    H2 5039   7.951   2.195   5.664
18191TIP3   OH2 5040   7.811   2.046   7.128
18191TIP3    H1 5041   7.776   1.964   7.167
18191TIP3    H2 5042   7.903   2.042   7.162
18192TIP3   OH2 5043   8.017   1.981   7.284
18192TIP3    H1 5044   8.103   1.946   7.258
18192TIP3    H2 5045   7.973   1.906   7.329
18193TIP3   OH2 5046   7.875   3.662   5.548
18193TIP3    H1 5047   7.847   3.690   5.637
18193TIP3    H2 5048   7.950   3.603   5.564
18194TIP3   OH2 5049   1.189   4.790   6.166
18194TIP3    H1 5050   1.189   4.888   6.162
18194TIP3    H2 5051   1.117   4.767   6.106
18195TIP3   OH2 5052   1.075   4.716   6.516
18195TIP3    H1 5053   1.074   4.651   6.588
18195TIP3    H2 5054   1.041   4.666   6.440
18196TIP3   OH2 5055   0.311   4.679   6.667
18196TIP3    H1 5056   0.317   4.614   6.740
18196TIP3    H2 5057   0.381   4.740   6.691
18197TIP3   OH2 5058   1.444   5.011   6.344
18197TIP3    H1 5059   1.402   4.939   6.393
18197TIP3    H2 5060   1.446   5.082   6.411
18198TIP3   OH2 5061   0.403   5.127   6.525
18198TIP3    H1 5062   0.371   5.041   6.490
18198TIP3    H2 5063   0.498   5.109   6.523
18199TIP3   OH2 5064   0.098   4.515   6.013
18199TIP3    H1 5065   0.041   4.578   6.062
18199TIP3    H2 5066   0.032   4.450   5.992
18200TIP3   OH2 5067   0.154   4.702   6.291
18200TIP3    H1 5068   0.171   4.616   6.334
18200TIP3    H2 5069   0.218   4.710   6.219
18201TIP3   OH2 5070   1.156   5.527   6.368
18201TIP3    H1 5071   1.221   5.457   6.340
18201TIP3    H2 5072   1.135   5.494   6.456
18202TIP3   OH2 5073   0.912   4.957   6.563
18202TIP3    H1 5074   0.946   4.894   6.498
18202TIP3    H2 5075   0.993   4.972   6.615
18203TIP3   OH2 5076   1.773   4.122   6.636
18203TIP3    H1 5077   1.790   4.181   6.712
18203TIP3    H2 5078   1.829   4.165   6.570
18204TIP3   OH2 5079   1.229   4.403   6.594
18204TIP3    H1 5080   1.246   4.307   6.595
18204TIP3    H2 5081   1.219   4.417   6.498
18205TIP3   OH2 5082   0.541   4.212   6.316
18205TIP3    H1 5083   0.552   4.296   6.267
18205TIP3    H2 5084   0.501   4.155   6.246
18206TIP3   OH2 5085   1.315   4.220   6.153
18206TIP3    H1 5086   1.380   4.189   6.220
18206TIP3    H2 5087   1.371   4.277   6.099
18207TIP3   OH2 5088   0.223   4.454   6.384
18207TIP3    H1 5089   0.278   4.392   6.433
18207TIP3    H2 5090   0.218   4.416   6.295
18208TIP3   OH2 5091   0.719   4.608   6.321
18208TIP3    H1 5092   0.786   4.550   6.361
18208TIP3    H2 5093   0.667   4.542   6.271
18209TIP3   OH2 5094   1.816   4.263   6.864
18209TIP3    H1 5095   1.756   4.340   6.853
18209TIP3    H2 5096   1.821   4.255   6.960
18210TIP3   OH2 5097   0.432   4.102   6.719
18210TIP3    H1 5098   0.402   4.158   6.644
18210TIP3    H2 5099   0.363   4.124   6.787
18211TIP3   OH2 5100   1.161   5.050   6.075
18211TIP3    H1 5101   1.133   5.021   5.987
18211TIP3    H2 5102   1.130   5.143   6.080
18212TIP3   OH2 5103   0.685   4.869   6.752
18212TIP3    H1 5104   0.612   4.932   6.761
18212TIP3    H2 5105   0.754   4.925   6.714
18213TIP3   OH2 5106   1.495   4.154   6.352
18213TIP3    H1 5107   1.474   4.078   6.406
18213TIP3    H2 5108   1.563   4.198   6.406
18214TIP3   OH2 5109   0.387   4.286   6.524
18214TIP3    H1 5110   0.449   4.356   6.556
18214TIP3    H2 5111   0.440   4.246   6.451
18215TIP3   OH2 5112   0.528   5.070   6.840
18215TIP3    H1 5113   0.526   5.154   6.787
18215TIP3    H2 5114   0.432   5.058   6.860
18216TIP3   OH2 5115   0.133   5.029   5.906
18216TIP3    H1 5116   0.111   5.056   5.816
18216TIP3    H2 5117   0.142   5.113   5.956
18217TIP3   OH2 5118   1.497   5.195   6.581
18217TIP3    H1 5119   1.400   5.206   6.593
18217TIP3    H2 5120   1.524   5.286   6.561
18218TIP3   OH2 5121   1.529   4.023   6.721
18218TIP3    H1 5122   1.456   4.086   6.712
18218TIP3    H2 5123   1.600   4.065   6.668
18219TIP3   OH2 5124   0.826   3.835   6.467
18219TIP3    H1 5125   0.813   3.739   6.460
18219TIP3    H2 5126   0.738   3.866   6.497
18220TIP3   OH2 5127   1.323   5.373   6.240
18220TIP3    H1 5128   1.366   5.301   6.190
18220TIP3    H2 5129   1.365   5.452   6.201
18221TIP3   OH2 5130   1.444   5.166   6.092
18221TIP3    H1 5131   1.415   5.096   6.030
18221TIP3    H2 5132   1.447   5.117   6.176
18222TIP3   OH2 5133   1.607   5.025   6.940
18222TIP3    H1 5134   1.620   4.960   6.869
18222TIP3    H2 5135   1.626   5.110   6.897
18223TIP3   OH2 5136   1.055   4.713   5.918
18223TIP3    H1 5137   0.986   4.771   5.882
18223TIP3    H2 5138   1.126   4.723   5.851
18224TIP3   OH2 5139   1.062   4.569   5.623
18224TIP3    H1 5140   1.134   4.569   5.688
18224TIP3    H2 5141   1.092   4.499   5.565
18225TIP3   OH2 5142   1.795   4.657   6.745
18225TIP3    H1 5143   1.729   4.729   6.750
18225TIP3    H2 5144   1.843   4.681   6.664
18226TIP3   OH2 5145   1.401   4.737   6.011
18226TIP3    H1 5146   1.325   4.760   6.071
18226TIP3    H2 5147   1.448   4.668   6.062
18227TIP3   OH2 5148   1.392   4.551   6.921
18227TIP3    H1 5149   1.396   4.633   6.973
18227TIP3    H2 5150   1.329   4.582   6.853
18228TIP3   OH2 5151   0.562   4.802   6.202
18228TIP3    H1 5152   0.527   4.762   6.119
18228TIP3    H2 5153   0.622   4.732   6.235
18229TIP3   OH2 5154   0.692   5.140   6.471
18229TIP3    H1 5155   0.692   5.088   6.389
18229TIP3    H2 5156   0.772   5.105   6.515
18230TIP3   OH2 5157   0.594   4.676   6.568
18230TIP3    H1 5158   0.649   4.686   6.487
18230TIP3    H2 5159   0.632   4.743   6.628
18231TIP3   OH2 5160   1.235   5.233   6.638
18231TIP3    H1 5161   1.207   5.297   6.704
18231TIP3    H2 5162   1.210   5.148   6.680
18232TIP3   OH2 5163   0.702   5.136   7.033
18232TIP3    H1 5164   0.660   5.208   7.083
18232TIP3    H2 5165   0.645   5.122   6.953
18233TIP3   OH2 5166   1.288   4.654   5.778
18233TIP3    H1 5167   1.343   4.672   5.858
18233TIP3    H2 5168   1.329   4.706   5.706
18234TIP3   OH2 5169   0.386   4.742   6.955
18234TIP3    H1 5170   0.380   4.802   7.031
18234TIP3    H2 5171   0.292   4.744   6.927
18235TIP3   OH2 5172   1.059   5.328   6.124
18235TIP3    H1 5173   1.102   5.358   6.204
18235TIP3    H2 5174   1.003   5.403   6.100
18236TIP3   OH2 5175   0.511   5.318   7.111
18236TIP3    H1 5176   0.509   5.312   7.013
18236TIP3    H2 5177   0.421   5.302   7.144
18237TIP3   OH2 5178   1.659   3.829   5.767
18237TIP3    H1 5179   1.564   3.840   5.790
18237TIP3    H2 5180   1.680   3.913   5.725
18238TIP3   OH2 5181   0.459   4.704   5.965
18238TIP3    H1 5182   0.430   4.782   5.912
18238TIP3    H2 5183   0.392   4.638   5.941
18239TIP3   OH2 5184   1.769   5.264   5.610
18239TIP3    H1 5185   1.784   5.360   5.614
18239TIP3    H2 5186   1.860   5.234   5.593
18240TIP3   OH2 5187   0.111   4.925   6.835
18240TIP3    H1 5188   0.035   4.945   6.777
18240TIP3    H2 5189   0.073   4.846   6.876
18241TIP3   OH2 5190   0.047   5.226   6.523
18241TIP3    H1 5191   0.141   5.202   6.531
18241TIP3    H2 5192   0.035   5.300   6.583
18242TIP3   OH2 5193   1.867   5.291   7.097
18242TIP3    H1 5194   1.855   5.195   7.098
18242TIP3    H2 5195   1.781   5.316   7.139
18243TIP3   OH2 5196   0.963   5.243   6.985
18243TIP3    H1 5197   0.971   5.327   7.036
18243TIP3    H2 5198   0.876   5.210   7.011
18244TIP3   OH2 5199   1.005   5.619   5.965
18244TIP3    H1 5200   0.997   5.612   5.868
18244TIP3    H2 5201   1.009   5.715   5.980
18245TIP3   OH2 5202   0.370   5.506   6.146
18245TIP3    H1 5203   0.384   5.465   6.234
18245TIP3    H2 5204   0.285   5.466   6.122
18246TIP3   OH2 5205   1.308   5.538   5.660
18246TIP3    H1 5206   1.358   5.464   5.619
18246TIP3    H2 5207   1.316   5.514   5.755
18247TIP3   OH2 5208   1.281   5.534   5.941
18247TIP3    H1 5209   1.185   5.540   5.960
18247TIP3    H2 5210   1.306   5.459   5.998
18248TIP3   OH2 5211   1.573   4.433   7.150
18248TIP3    H1 5212   1.536   4.483   7.075
18248TIP3    H2 5213   1.583   4.345   7.112
18249TIP3   OH2 5214   0.291   5.086   6.953
18249TIP3    H1 5215   0.305   5.038   7.037
18249TIP3    H2 5216   0.209   5.039   6.920
18250TIP3   OH2 5217   0.565   3.925   6.542
18250TIP3    H1 5218   0.474   3.914   6.505
18250TIP3    H2 5219   0.551   4.009   6.590
18251TIP3   OH2 5220   1.028   3.892   6.878
18251TIP3    H1 5221   1.067   3.850   6.957
18251TIP3    H2 5222   0.931   3.880   6.892
18252TIP3   OH2 5223   1.355   4.276   6.966
18252TIP3    H1 5224   1.300   4.255   7.045
18252TIP3    H2 5225   1.340   4.370   6.945
18253TIP3   OH2 5226   1.433   4.756   5.547
18253TIP3    H1 5227   1.435   4.739   5.452
18253TIP3    H2 5228   1.517   4.802   5.563
18254TIP3   OH2 5229   0.991   4.149   5.612
18254TIP3    H1 5230   0.960   4.145   5.704
18254TIP3    H2 5231   0.964   4.062   5.584
18255TIP3   OH2 5232   0.572   4.423   6.666
18255TIP3    H1 5233   0.499   4.422   6.731
18255TIP3    H2 5234   0.569   4.514   6.630
18256TIP3   OH2 5235   0.571   4.436   6.155
18256TIP3    H1 5236   0.476   4.410   6.141
18256TIP3    H2 5237   0.608   4.406   6.070
18257TIP3   OH2 5238   1.122   4.484   6.031
18257TIP3    H1 5239   1.081   4.567   5.996
18257TIP3    H2 5240   1.190   4.468   5.963
18258TIP3   OH2 5241   1.029   4.510   7.180
18258TIP3    H1 5242   0.975   4.430   7.205
18258TIP3    H2 5243   1.114   4.488   7.220
18259TIP3   OH2 5244   1.225   4.434   6.315
18259TIP3    H1 5245   1.197   4.490   6.241
18259TIP3    H2 5246   1.235   4.349   6.268
18260TIP3   OH2 5247   0.337   4.450   6.838
18260TIP3    H1 5248   0.338   4.489   6.926
18260TIP3    H2 5249   0.291   4.366   6.856
18261TIP3   OH2 5250   0.675   4.183   5.515
18261TIP3    H1 5251   0.632   4.145   5.594
18261TIP3    H2 5252   0.603   4.228   5.471
18262TIP3   OH2 5253   0.081   4.170   6.183
18262TIP3    H1 5254   0.072   4.150   6.280
18262TIP3    H2 5255   0.072   4.082   6.141
18263TIP3   OH2 5256   0.146   4.251   5.786
18263TIP3    H1 5257   0.186   4.299   5.710
18263TIP3    H2 5258   0.067   4.304   5.798
18264TIP3   OH2 5259   1.145   4.592   6.772
18264TIP3    H1 5260   1.183   4.524   6.712
18264TIP3    H2 5261   1.099   4.539   6.839
18265TIP3   OH2 5262   0.826   4.190   6.254
18265TIP3    H1 5263   0.732   4.190   6.283
18265TIP3    H2 5264   0.874   4.174   6.336
18266TIP3   OH2 5265   0.310   4.346   6.138
18266TIP3    H1 5266   0.221   4.359   6.101
18266TIP3    H2 5267   0.333   4.259   6.101
18267TIP3   OH2 5268   0.670   4.351   5.905
18267TIP3    H1 5269   0.766   4.361   5.919
18267TIP3    H2 5270   0.646   4.416   5.837
18268TIP3   OH2 5271   1.266   4.113   6.578
18268TIP3    H1 5272   1.197   4.119   6.649
18268TIP3    H2 5273   1.215   4.088   6.500
18269TIP3   OH2 5274   0.543   4.468   5.666
18269TIP3    H1 5275   0.486   4.433   5.596
18269TIP3    H2 5276   0.623   4.490   5.616
18270TIP3   OH2 5277   1.586   5.680   7.214
18270TIP3    H1 5278   1.613   5.715   7.127
18270TIP3    H2 5279   1.661   5.707   7.268
18271TIP3   OH2 5280   0.368   4.931   7.164
18271TIP3    H1 5281   0.423   4.946   7.243
18271TIP3    H2 5282   0.282   4.931   7.214
18272TIP3   OH2 5283   0.953   4.465   6.443
18272TIP3    H1 5284   1.013   4.412   6.390
18272TIP3    H2 5285   0.939   4.411   6.522
18273TIP3   OH2 5286   0.451   4.081   6.085
18273TIP3    H1 5287   0.422   3.988   6.086
18273TIP3    H2 5288   0.533   4.074   6.034
18274TIP3   OH2 5289   0.818   4.298   6.685
18274TIP3    H1 5290   0.735   4.350   6.694
18274TIP3    H2 5291   0.873   4.333   6.757
18275TIP3   OH2 5292   0.876   4.922   5.853
18275TIP3    H1 5293   0.797   4.874   5.822
18275TIP3    H2 5294   0.855   4.932   5.948
18276TIP3   OH2 5295   1.595   4.840   6.735
18276TIP3    H1 5296   1.651   4.889   6.672
18276TIP3    H2 5297   1.509   4.846   6.688
18277TIP3   OH2 5298   1.260   4.199   5.676
18277TIP3    H1 5299   1.166   4.215   5.656
18277TIP3    H2 5300   1.293   4.287   5.703
18278TIP3   OH2 5301   1.021   4.948   6.976
18278TIP3    H1 5302   0.994   4.905   7.058
18278TIP3    H2 5303   1.003   5.041   6.989
18279TIP3   OH2 5304   1.334   4.394   5.839
18279TIP3    H1 5305   1.423   4.380   5.877
18279TIP3    H2 5306   1.343   4.475   5.787
18280TIP3   OH2 5307   0.387   4.861   6.436
18280TIP3    H1 5308   0.454   4.852   6.366
18280TIP3    H2 5309   0.393   4.775   6.480
18281TIP3   OH2 5310   1.085   5.068   5.760
18281TIP3    H1 5311   1.051   5.153   5.796
18281TIP3    H2 5312   1.011   5.006   5.781
18282TIP3   OH2 5313   0.088   4.696   6.961
18282TIP3    H1 5314   0.106   4.654   7.046
18282TIP3    H2 5315   0.022   4.638   6.919
18283TIP3   OH2 5316   0.790   4.663   7.178
18283TIP3    H1 5317   0.756   4.624   7.095
18283TIP3    H2 5318   0.878   4.620   7.179
18284TIP3   OH2 5319   1.255   5.188   6.975
18284TIP3    H1 5320   1.163   5.208   6.950
18284TIP3    H2 5321   1.253   5.219   7.068
18285TIP3   OH2 5322   1.823   4.408   5.814
18285TIP3    H1 5323   1.766   4.378   5.740
18285TIP3    H2 5324   1.830   4.502   5.786
18286TIP3   OH2 5325   1.822   4.993   7.095
18286TIP3    H1 5326   1.734   5.016   7.055
18286TIP3    H2 5327   1.877   4.989   7.014
18287TIP3   OH2 5328   1.653   5.291   5.854
18287TIP3    H1 5329   1.615   5.208   5.886
18287TIP3    H2 5330   1.682   5.272   5.762
18288TIP3   OH2 5331   1.373   4.772   6.563
18288TIP3    H1 5332   1.279   4.751   6.552
18288TIP3    H2 5333   1.416   4.696   6.520
18289TIP3   OH2 5334   0.625   5.205   6.173
18289TIP3    H1 5335   0.675   5.286   6.152
18289TIP3    H2 5336   0.537   5.229   6.141
18290TIP3   OH2 5337   0.193   4.684   5.633
18290TIP3    H1 5338   0.259   4.750   5.664
18290TIP3    H2 5339   0.112   4.724   5.662
18291TIP3   OH2 5340   0.766   4.972   6.124
18291TIP3    H1 5341   0.735   5.064   6.134
18291TIP3    H2 5342   0.693   4.923   6.168
18292TIP3   OH2 5343   0.810   5.389   6.767
18292TIP3    H1 5344   0.855   5.469   6.737
18292TIP3    H2 5345   0.874   5.357   6.833
18293TIP3   OH2 5346   0.634   5.471   6.079
18293TIP3    H1 5347   0.537   5.485   6.091
18293TIP3    H2 5348   0.670   5.555   6.112
18294TIP3   OH2 5349   1.163   4.991   6.726
18294TIP3    H1 5350   1.130   4.972   6.817
18294TIP3    H2 5351   1.228   4.919   6.712
18295TIP3   OH2 5352   1.393   5.095   5.638
18295TIP3    H1 5353   1.426   5.050   5.718
18295TIP3    H2 5354   1.298   5.079   5.647
18296TIP3   OH2 5355   1.445   5.449   6.977
18296TIP3    H1 5356   1.376   5.399   6.928
18296TIP3    H2 5357   1.464   5.518   6.911
18297TIP3   OH2 5358   1.843   5.536   5.659
18297TIP3    H1 5359   1.915   5.599   5.641
18297TIP3    H2 5360   1.772   5.596   5.691
18298TIP3   OH2 5361   0.251   4.174   6.914
18298TIP3    H1 5362   0.161   4.210   6.915
18298TIP3    H2 5363   0.241   4.089   6.959
18299TIP3   OH2 5364   1.475   4.960   5.862
18299TIP3    H1 5365   1.451   4.881   5.915
18299TIP3    H2 5366   1.570   4.965   5.880
18300TIP3   OH2 5367   0.211   5.348   6.760
18300TIP3    H1 5368   0.243   5.257   6.755
18300TIP3    H2 5369   0.244   5.382   6.842
18301TIP3   OH2 5370   0.810   5.201   5.483
18301TIP3    H1 5371   0.824   5.125   5.428
18301TIP3    H2 5372   0.766   5.165   5.563
18302TIP3   OH2 5373   0.689   5.157   5.730
18302TIP3    H1 5374   0.713   5.106   5.808
18302TIP3    H2 5375   0.693   5.251   5.761
18303TIP3   OH2 5376   0.338   4.883   5.776
18303TIP3    H1 5377   0.269   4.922   5.835
18303TIP3    H2 5378   0.392   4.960   5.753
18304TIP3   OH2 5379   1.124   4.151   6.811
18304TIP3    H1 5380   1.196   4.157   6.876
18304TIP3    H2 5381   1.086   4.063   6.831
18305TIP3   OH2 5382   1.198   4.109   5.922
18305TIP3    H1 5383   1.223   4.155   5.839
18305TIP3    H2 5384   1.257   4.152   5.985
18306TIP3   OH2 5385   0.968   5.324   5.799
18306TIP3    H1 5386   0.886   5.376   5.809
18306TIP3    H2 5387   1.020   5.378   5.738
18307TIP3   OH2 5388   0.922   4.283   6.003
18307TIP3    H1 5389   1.001   4.341   6.006
18307TIP3    H2 5390   0.896   4.272   6.096
18308TIP3   OH2 5391   0.977   4.386   6.921
18308TIP3    H1 5392   0.984   4.442   7.000
18308TIP3    H2 5393   1.043   4.316   6.932
18309TIP3   OH2 5394   1.007   3.989   6.091
18309TIP3    H1 5395   0.975   4.055   6.155
18309TIP3    H2 5396   1.076   4.044   6.045
18310TIP3   OH2 5397   0.706   5.427   5.806
18310TIP3    H1 5398   0.722   5.509   5.754
18310TIP3    H2 5399   0.680   5.463   5.894
18311TIP3   OH2 5400   0.573   4.099   5.765
18311TIP3    H1 5401   0.569   4.191   5.798
18311TIP3    H2 5402   0.664   4.074   5.790
18312TIP3   OH2 5403   1.595   4.174   7.009
18312TIP3    H1 5404   1.502   4.204   6.992
18312TIP3    H2 5405   1.626   4.172   6.917
18313TIP3   OH2 5406   1.454   4.551   6.408
18313TIP3    H1 5407   1.373   4.506   6.379
18313TIP3    H2 5408   1.504   4.482   6.459
18314TIP3   OH2 5409   0.399   5.143   5.667
18314TIP3    H1 5410   0.463   5.209   5.697
18314TIP3    H2 5411   0.449   5.097   5.597
18315TIP3   OH2 5412   0.230   4.410   5.583
18315TIP3    H1 5413   0.233   4.507   5.596
18315TIP3    H2 5414   0.145   4.389   5.544
18316TIP3   OH2 5415   1.563   5.477   6.574
18316TIP3    H1 5416   1.554   5.545   6.505
18316TIP3    H2 5417   1.659   5.483   6.592
18317TIP3   OH2 5418   0.316   3.888   6.452
18317TIP3    H1 5419   0.290   3.891   6.357
18317TIP3    H2 5420   0.267   3.808   6.480
18318TIP3   OH2 5421   0.209   5.281   6.069
18318TIP3    H1 5422   0.123   5.324   6.067
18318TIP3    H2 5423   0.255   5.330   5.999
18319TIP3   OH2 5424   0.139   5.540   7.195
18319TIP3    H1 5425   0.185   5.523   7.279
18319TIP3    H2 5426   0.074   5.467   7.187
18320TIP3   OH2 5427   0.590   5.433   7.356
18320TIP3    H1 5428   0.670   5.395   7.396
18320TIP3    H2 5429   0.598   5.410   7.263
18321TIP3   OH2 5430   1.007   5.389   5.497
18321TIP3    H1 5431   0.937   5.325   5.519
18321TIP3    H2 5432   1.081   5.331   5.475
18322TIP3   OH2 5433   1.248   5.277   7.233
18322TIP3    H1 5434   1.215   5.189   7.258
18322TIP3    H2 5435   1.327   5.289   7.288
18323TIP3   OH2 5436   1.467   5.368   5.519
18323TIP3    H1 5437   1.492   5.285   5.565
18323TIP3    H2 5438   1.544   5.385   5.465
18324TIP3   OH2 5439   0.142   4.925   7.270
18324TIP3    H1 5440   0.143   4.827   7.264
18324TIP3    H2 5441   0.058   4.948   7.229
18325TIP3   OH2 5442   0.555   4.957   5.502
18325TIP3    H1 5443   0.569   4.881   5.560
18325TIP3    H2 5444   0.623   4.944   5.436
18326TIP3   OH2 5445   0.786   4.923   7.238
18326TIP3    H1 5446   0.770   4.953   7.147
18326TIP3    H2 5447   0.799   4.825   7.223
18327TIP3   OH2 5448   1.091   5.066   5.478
18327TIP3    H1 5449   1.069   5.080   5.572
18327TIP3    H2 5450   1.076   4.972   5.467
18328TIP3   OH2 5451   1.360   4.909   6.979
18328TIP3    H1 5452   1.439   4.967   6.968
18328TIP3    H2 5453   1.291   4.976   6.976
18329TIP3   OH2 5454   0.209   4.648   7.233
18329TIP3    H1 5455   0.252   4.561   7.225
18329TIP3    H2 5456   0.185   4.643   7.326
18330TIP3   OH2 5457   0.677   4.760   5.742
18330TIP3    H1 5458   0.625   4.707   5.805
18330TIP3    H2 5459   0.705   4.692   5.676
18331TIP3   OH2 5460   0.604   4.546   6.974
18331TIP3    H1 5461   0.538   4.614   6.996
18331TIP3    H2 5462   0.640   4.577   6.889
18332TIP3   OH2 5463   0.782   4.590   5.559
18332TIP3    H1 5464   0.770   4.566   5.467
18332TIP3    H2 5465   0.879   4.588   5.573
18333TIP3   OH2 5466   1.108   4.807   7.294
18333TIP3    H1 5467   1.203   4.799   7.270
18333TIP3    H2 5468   1.077   4.717   7.313
18334TIP3   OH2 5469   1.716   4.817   5.506
18334TIP3    H1 5470   1.693   4.777   5.422
18334TIP3    H2 5471   1.726   4.911   5.483
18335TIP3   OH2 5472   0.643   4.279   7.077
18335TIP3    H1 5473   0.653   4.208   7.011
18335TIP3    H2 5474   0.635   4.360   7.023
18336TIP3   OH2 5475   0.682   4.117   6.832
18336TIP3    H1 5476   0.733   4.164   6.761
18336TIP3    H2 5477   0.593   4.109   6.791
18337TIP3   OH2 5478   0.836   4.667   6.857
18337TIP3    H1 5479   0.911   4.648   6.800
18337TIP3    H2 5480   0.801   4.749   6.820
18338TIP3   OH2 5481   1.279   4.443   7.364
18338TIP3    H1 5482   1.292   4.350   7.339
18338TIP3    H2 5483   1.364   4.487   7.345
18339TIP3   OH2 5484   1.407   4.721   7.171
18339TIP3    H1 5485   1.386   4.793   7.106
18339TIP3    H2 5486   1.504   4.718   7.152
18340TIP3   OH2 5487   0.486   4.404   7.270
18340TIP3    H1 5488   0.408   4.347   7.252
18340TIP3    H2 5489   0.551   4.367   7.207
18341TIP3   OH2 5490   0.761   3.861   6.871
18341TIP3    H1 5491   0.743   3.958   6.861
18341TIP3    H2 5492   0.686   3.825   6.821
18342TIP3   OH2 5493   0.890   4.295   7.231
18342TIP3    H1 5494   0.859   4.270   7.321
18342TIP3    H2 5495   0.810   4.276   7.179
18343TIP3   OH2 5496   1.160   4.206   7.139
18343TIP3    H1 5497   1.063   4.213   7.152
18343TIP3    H2 5498   1.185   4.142   7.208
18344TIP3   OH2 5499   1.322   4.074   7.339
18344TIP3    H1 5500   1.312   3.976   7.332
18344TIP3    H2 5501   1.285   4.094   7.425
18345TIP3   OH2 5502   0.302   4.198   7.245
18345TIP3    H1 5503   0.322   4.124   7.184
18345TIP3    H2 5504   0.290   4.153   7.330
18346TIP3   OH2 5505   0.781   3.798   7.141
18346TIP3    H1 5506   0.851   3.730   7.139
18346TIP3    H2 5507   0.772   3.815   7.046
18347TIP3   OH2 5508   0.817   3.959   7.351
18347TIP3    H1 5509   0.804   3.910   7.266
18347TIP3    H2 5510   0.761   4.037   7.339
18348TIP3   OH2 5511   0.765   5.657   5.669
18348TIP3    H1 5512   0.863   5.659   5.675
18348TIP3    H2 5513   0.751   5.716   5.596
18349TIP3   OH2 5514   0.134   5.114   5.621
18349TIP3    H1 5515   0.229   5.120   5.639
18349TIP3    H2 5516   0.129   5.054   5.545
18350TIP3   OH2 5517   8.144   5.653   6.108
18350TIP3    H1 5518   8.067   5.606   6.072
18350TIP3    H2 5519   8.169   5.592   6.180
18351TIP3   OH2 5520   0.084   5.464   6.297
18351TIP3    H1 5521   0.048   5.375   6.315
18351TIP3    H2 5522   0.108   5.498   6.386
18352TIP3   OH2 5523   1.835   5.542   6.594
18352TIP3    H1 5524   1.838   5.558   6.690
18352TIP3    H2 5525   1.905   5.600   6.563
18353TIP3   OH2 5526   1.793   5.501   6.888
18353TIP3    H1 5527   1.745   5.424   6.850
18353TIP3    H2 5528   1.842   5.457   6.959
18354TIP3   OH2 5529   1.768   4.906   5.898
18354TIP3    H1 5530   1.854   4.946   5.917
18354TIP3    H2 5531   1.767   4.834   5.965
18355TIP3   OH2 5532   1.802   4.716   6.087
18355TIP3    H1 5533   1.731   4.663   6.127
18355TIP3    H2 5534   1.865   4.726   6.162
18356TIP3   OH2 5535   1.781   4.984   6.585
18356TIP3    H1 5536   1.862   4.946   6.547
18356TIP3    H2 5537   1.795   5.079   6.568
18357TIP3   OH2 5538   1.636   5.274   6.813
18357TIP3    H1 5539   1.566   5.308   6.872
18357TIP3    H2 5540   1.581   5.234   6.742
18358TIP3   OH2 5541   1.835   4.698   5.724
18358TIP3    H1 5542   1.777   4.732   5.653
18358TIP3    H2 5543   1.825   4.767   5.792
18359TIP3   OH2 5544   1.668   4.418   5.582
18359TIP3    H1 5545   1.678   4.484   5.513
18359TIP3    H2 5546   1.653   4.336   5.530
18360TIP3   OH2 5547   1.586   4.561   6.144
18360TIP3    H1 5548   1.572   4.466   6.140
18360TIP3    H2 5549   1.553   4.583   6.232
18361TIP3   OH2 5550   0.083   4.766   6.547
18361TIP3    H1 5551   0.105   4.762   6.452
18361TIP3    H2 5552   0.171   4.755   6.587
18362TIP3   OH2 5553   1.672   4.758   7.115
18362TIP3    H1 5554   1.734   4.683   7.126
18362TIP3    H2 5555   1.732   4.835   7.112
18363TIP3   OH2 5556   1.821   4.548   7.172
18363TIP3    H1 5557   1.733   4.507   7.162
18363TIP3    H2 5558   1.879   4.471   7.172
18364TIP3   OH2 5559   1.594   4.169   5.496
18364TIP3    H1 5560   1.655   4.120   5.556
18364TIP3    H2 5561   1.509   4.125   5.508
18365TIP3   OH2 5562   1.553   4.319   5.992
18365TIP3    H1 5563   1.583   4.226   6.003
18365TIP3    H2 5564   1.632   4.359   5.953
18366TIP3   OH2 5565   1.617   4.374   6.534
18366TIP3    H1 5566   1.713   4.397   6.532
18366TIP3    H2 5567   1.598   4.388   6.628
18367TIP3   OH2 5568   1.623   4.446   6.812
18367TIP3    H1 5569   1.536   4.475   6.847
18367TIP3    H2 5570   1.667   4.532   6.790
18368TIP3   OH2 5571   0.060   4.280   7.144
18368TIP3    H1 5572   0.148   4.276   7.185
18368TIP3    H2 5573   0.008   4.219   7.196
18369TIP3   OH2 5574   1.850   3.850   7.343
18369TIP3    H1 5575   1.885   3.783   7.283
18369TIP3    H2 5576   1.861   3.933   7.294
18370TIP3   OH2 5577   1.620   4.047   5.994
18370TIP3    H1 5578   1.641   4.004   6.080
18370TIP3    H2 5579   1.559   3.984   5.950
18371TIP3   OH2 5580   0.166   4.127   6.449
18371TIP3    H1 5581   0.214   4.047   6.477
18371TIP3    H2 5582   0.219   4.197   6.489
18372TIP3   OH2 5583  -0.006   4.454   6.492
18372TIP3    H1 5584   0.067   4.399   6.460
18372TIP3    H2 5585   0.048   4.502   6.557
18373TIP3   OH2 5586   1.802   4.064   7.183
18373TIP3    H1 5587   1.709   4.087   7.172
18373TIP3    H2 5588   1.810   4.007   7.104
18374TIP3   OH2 5589   1.802   4.053   5.648
18374TIP3    H1 5590   1.846   3.981   5.601
18374TIP3    H2 5591   1.874   4.119   5.655
18375TIP3   OH2 5592   0.050   4.043   5.961
18375TIP3    H1 5593  -0.044   4.062   5.937
18375TIP3    H2 5594   0.093   4.106   5.901
18376TIP3   OH2 5595   1.507   5.550   6.156
18376TIP3    H1 5596   1.576   5.519   6.094
18376TIP3    H2 5597   1.559   5.600   6.221
18377TIP3   OH2 5598   8.179   3.940   6.808
18377TIP3    H1 5599   8.107   3.904   6.858
18377TIP3    H2 5600   8.129   3.991   6.742
18378TIP3   OH2 5601   0.245   5.255   7.205
18378TIP3    H1 5602   0.156   5.248   7.167
18378TIP3    H2 5603   0.225   5.227   7.297
18379TIP3   OH2 5604   0.542   5.342   6.839
18379TIP3    H1 5605   0.508   5.426   6.804
18379TIP3    H2 5606   0.634   5.350   6.804
18380TIP3   OH2 5607   0.975   5.481   7.125
18380TIP3    H1 5608   0.988   5.451   7.218
18380TIP3    H2 5609   1.064   5.514   7.102
18381TIP3   OH2 5610   1.204   5.610   7.055
18381TIP3    H1 5611   1.277   5.550   7.032
18381TIP3    H2 5612   1.241   5.653   7.135
18382TIP3   OH2 5613   1.705   3.872   6.967
18382TIP3    H1 5614   1.622   3.901   6.925
18382TIP3    H2 5615   1.722   3.790   6.915
18383TIP3   OH2 5616   0.281   5.658   6.837
18383TIP3    H1 5617   0.213   5.714   6.793
18383TIP3    H2 5618   0.245   5.655   6.925
18384TIP3   OH2 5619   0.530   5.623   6.742
18384TIP3    H1 5620   0.440   5.640   6.779
18384TIP3    H2 5621   0.526   5.682   6.664
18385TIP3   OH2 5622   1.002   5.614   6.659
18385TIP3    H1 5623   0.956   5.669   6.594
18385TIP3    H2 5624   1.016   5.677   6.732
18386TIP3   OH2 5625   1.231   5.495   6.761
18386TIP3    H1 5626   1.145   5.522   6.725
18386TIP3    H2 5627   1.279   5.579   6.752
18387TIP3   OH2 5628   1.489   5.652   6.784
18387TIP3    H1 5629   1.483   5.748   6.761
18387TIP3    H2 5630   1.511   5.615   6.696
18388TIP3   OH2 5631   0.229   5.527   6.528
18388TIP3    H1 5632   0.227   5.483   6.615
18388TIP3    H2 5633   0.311   5.494   6.487
18389TIP3   OH2 5634   0.436   5.401   6.395
18389TIP3    H1 5635   0.421   5.307   6.416
18389TIP3    H2 5636   0.522   5.416   6.440
18390TIP3   OH2 5637   0.697   5.448   6.482
18390TIP3    H1 5638   0.714   5.357   6.455
18390TIP3    H2 5639   0.703   5.442   6.579
18391TIP3   OH2 5640   1.044   4.014   6.396
18391TIP3    H1 5641   0.976   3.950   6.423
18391TIP3    H2 5642   1.099   3.961   6.337
18392TIP3   OH2 5643   1.557   3.820   6.402
18392TIP3    H1 5644   1.619   3.879   6.351
18392TIP3    H2 5645   1.469   3.855   6.379
18393TIP3   OH2 5646   1.724   3.943   6.230
18393TIP3    H1 5647   1.793   3.886   6.188
18393TIP3    H2 5648   1.775   4.027   6.240
18394TIP3   OH2 5649   0.280   3.875   6.179
18394TIP3    H1 5650   0.199   3.854   6.129
18394TIP3    H2 5651   0.329   3.791   6.174
18395TIP3   OH2 5652   0.161   3.851   5.755
18395TIP3    H1 5653   0.206   3.915   5.698
18395TIP3    H2 5654   0.099   3.904   5.807
18396TIP3   OH2 5655   0.728   3.869   6.159
18396TIP3    H1 5656   0.818   3.905   6.152
18396TIP3    H2 5657   0.724   3.847   6.252
18397TIP3   OH2 5658   1.299   3.871   6.322
18397TIP3    H1 5659   1.295   3.882   6.226
18397TIP3    H2 5660   1.261   3.780   6.334
18398TIP3   OH2 5661   1.427   3.874   5.887
18398TIP3    H1 5662   1.352   3.934   5.872
18398TIP3    H2 5663   1.383   3.789   5.911
18399TIP3   OH2 5664   0.149   5.449   5.854
18399TIP3    H1 5665   0.084   5.446   5.784
18399TIP3    H2 5666   0.153   5.544   5.870
18400TIP3   OH2 5667   0.338   4.044   5.606
18400TIP3    H1 5668   0.392   3.986   5.551
18400TIP3    H2 5669   0.408   4.079   5.664
18401TIP3   OH2 5670   0.844   4.072   5.844
18401TIP3    H1 5671   0.869   4.013   5.918
18401TIP3    H2 5672   0.850   4.158   5.892
18402TIP3   OH2 5673   1.034   5.582   5.685
18402TIP3    H1 5674   1.129   5.599   5.669
18402TIP3    H2 5675   1.016   5.524   5.607
18403TIP3   OH2 5676   1.707   5.529   5.960
18403TIP3    H1 5677   1.687   5.451   5.902
18403TIP3    H2 5678   1.698   5.602   5.896
18404TIP3   OH2 5679   0.262   3.933   7.133
18404TIP3    H1 5680   0.233   3.848   7.169
18404TIP3    H2 5681   0.357   3.929   7.159
18405TIP3   OH2 5682   0.471   3.870   7.295
18405TIP3    H1 5683   0.557   3.837   7.262
18405TIP3    H2 5684   0.431   3.787   7.327
18406TIP3   OH2 5685   0.344   5.562   5.550
18406TIP3    H1 5686   0.302   5.569   5.637
18406TIP3    H2 5687   0.403   5.487   5.566
18407TIP3   OH2 5688   1.311   3.800   7.306
18407TIP3    H1 5689   1.322   3.749   7.387
18407TIP3    H2 5690   1.402   3.794   7.269
18408TIP3   OH2 5691   1.630   5.403   7.170
18408TIP3    H1 5692   1.550   5.389   7.115
18408TIP3    H2 5693   1.620   5.498   7.188
18409TIP3   OH2 5694   3.077   4.791   6.165
18409TIP3    H1 5695   3.075   4.889   6.162
18409TIP3    H2 5696   3.003   4.767   6.107
18410TIP3   OH2 5697   2.963   4.716   6.517
18410TIP3    H1 5698   2.959   4.651   6.589
18410TIP3    H2 5699   2.928   4.667   6.441
18411TIP3   OH2 5700   2.193   4.685   6.675
18411TIP3    H1 5701   2.206   4.615   6.741
18411TIP3    H2 5702   2.272   4.740   6.690
18412TIP3   OH2 5703   3.330   5.011   6.345
18412TIP3    H1 5704   3.288   4.939   6.393
18412TIP3    H2 5705   3.332   5.082   6.411
18413TIP3   OH2 5706   2.289   5.134   6.521
18413TIP3    H1 5707   2.259   5.044   6.493
18413TIP3    H2 5708   2.384   5.111   6.527
18414TIP3   OH2 5709   1.952   4.483   6.069
18414TIP3    H1 5710   1.910   4.571   6.064
18414TIP3    H2 5711   1.896   4.430   6.013
18415TIP3   OH2 5712   1.998   4.703   6.278
18415TIP3    H1 5713   2.045   4.633   6.329
18415TIP3    H2 5714   2.081   4.720   6.227
18416TIP3   OH2 5715   3.042   5.527   6.368
18416TIP3    H1 5716   3.106   5.457   6.340
18416TIP3    H2 5717   3.020   5.494   6.456
18417TIP3   OH2 5718   2.798   4.956   6.563
18417TIP3    H1 5719   2.832   4.893   6.497
18417TIP3    H2 5720   2.879   4.972   6.615
18418TIP3   OH2 5721   3.659   4.122   6.636
18418TIP3    H1 5722   3.676   4.181   6.713
18418TIP3    H2 5723   3.715   4.165   6.570
18419TIP3   OH2 5724   3.115   4.403   6.594
18419TIP3    H1 5725   3.132   4.307   6.595
18419TIP3    H2 5726   3.105   4.417   6.498
18420TIP3   OH2 5727   2.428   4.211   6.316
18420TIP3    H1 5728   2.436   4.297   6.269
18420TIP3    H2 5729   2.385   4.156   6.247
18421TIP3   OH2 5730   3.200   4.220   6.153
18421TIP3    H1 5731   3.266   4.189   6.220
18421TIP3    H2 5732   3.256   4.277   6.099
18422TIP3   OH2 5733   2.077   4.438   6.393
18422TIP3    H1 5734   2.158   4.402   6.433
18422TIP3    H2 5735   2.102   4.429   6.300
18423TIP3   OH2 5736   2.607   4.609   6.321
18423TIP3    H1 5737   2.671   4.548   6.362
18423TIP3    H2 5738   2.549   4.546   6.273
18424TIP3   OH2 5739   3.703   4.263   6.863
18424TIP3    H1 5740   3.641   4.338   6.852
18424TIP3    H2 5741   3.706   4.254   6.959
18425TIP3   OH2 5742   2.317   4.101   6.721
18425TIP3    H1 5743   2.289   4.159   6.646
18425TIP3    H2 5744   2.249   4.125   6.789
18426TIP3   OH2 5745   3.046   5.050   6.075
18426TIP3    H1 5746   3.018   5.021   5.987
18426TIP3    H2 5747   3.015   5.143   6.080
18427TIP3   OH2 5748   2.571   4.867   6.749
18427TIP3    H1 5749   2.497   4.930   6.764
18427TIP3    H2 5750   2.640   4.927   6.716
18428TIP3   OH2 5751   3.381   4.154   6.353
18428TIP3    H1 5752   3.359   4.078   6.406
18428TIP3    H2 5753   3.448   4.198   6.408
18429TIP3   OH2 5754   2.276   4.283   6.527
18429TIP3    H1 5755   2.336   4.356   6.554
18429TIP3    H2 5756   2.325   4.248   6.448
18430TIP3   OH2 5757   2.413   5.066   6.825
18430TIP3    H1 5758   2.409   5.158   6.793
18430TIP3    H2 5759   2.325   5.059   6.871
18431TIP3   OH2 5760   2.018   5.030   5.904
18431TIP3    H1 5761   1.998   5.061   5.814
18431TIP3    H2 5762   2.027   5.113   5.954
18432TIP3   OH2 5763   3.382   5.195   6.581
18432TIP3    H1 5764   3.286   5.206   6.593
18432TIP3    H2 5765   3.409   5.286   6.562
18433TIP3   OH2 5766   3.415   4.023   6.720
18433TIP3    H1 5767   3.342   4.086   6.712
18433TIP3    H2 5768   3.486   4.065   6.668
18434TIP3   OH2 5769   2.712   3.835   6.467
18434TIP3    H1 5770   2.698   3.739   6.460
18434TIP3    H2 5771   2.624   3.866   6.497
18435TIP3   OH2 5772   3.208   5.373   6.241
18435TIP3    H1 5773   3.251   5.301   6.190
18435TIP3    H2 5774   3.251   5.452   6.201
18436TIP3   OH2 5775   3.329   5.166   6.092
18436TIP3    H1 5776   3.301   5.096   6.030
18436TIP3    H2 5777   3.333   5.117   6.176
18437TIP3   OH2 5778   3.492   5.025   6.941
18437TIP3    H1 5779   3.506   4.960   6.869
18437TIP3    H2 5780   3.511   5.110   6.897
18438TIP3   OH2 5781   2.942   4.713   5.918
18438TIP3    H1 5782   2.872   4.771   5.881
18438TIP3    H2 5783   3.013   4.723   5.851
18439TIP3   OH2 5784   2.947   4.568   5.624
18439TIP3    H1 5785   3.021   4.570   5.688
18439TIP3    H2 5786   2.978   4.500   5.564
18440TIP3   OH2 5787   3.680   4.656   6.746
18440TIP3    H1 5788   3.614   4.728   6.750
18440TIP3    H2 5789   3.729   4.680   6.665
18441TIP3   OH2 5790   3.286   4.737   6.011
18441TIP3    H1 5791   3.211   4.759   6.070
18441TIP3    H2 5792   3.334   4.668   6.061
18442TIP3   OH2 5793   3.279   4.553   6.922
18442TIP3    H1 5794   3.278   4.634   6.975
18442TIP3    H2 5795   3.215   4.581   6.853
18443TIP3   OH2 5796   2.478   4.814   6.181
18443TIP3    H1 5797   2.413   4.766   6.125
18443TIP3    H2 5798   2.504   4.737   6.236
18444TIP3   OH2 5799   2.579   5.141   6.470
18444TIP3    H1 5800   2.576   5.086   6.390
18444TIP3    H2 5801   2.657   5.105   6.515
18445TIP3   OH2 5802   2.485   4.672   6.573
18445TIP3    H1 5803   2.530   4.686   6.487
18445TIP3    H2 5804   2.518   4.745   6.628
18446TIP3   OH2 5805   3.121   5.233   6.638
18446TIP3    H1 5806   3.092   5.297   6.704
18446TIP3    H2 5807   3.095   5.147   6.681
18447TIP3   OH2 5808   2.575   5.118   7.038
18447TIP3    H1 5809   2.535   5.194   7.085
18447TIP3    H2 5810   2.508   5.098   6.967
18448TIP3   OH2 5811   3.172   4.657   5.778
18448TIP3    H1 5812   3.232   4.671   5.855
18448TIP3    H2 5813   3.219   4.704   5.706
18449TIP3   OH2 5814   2.269   4.735   6.954
18449TIP3    H1 5815   2.273   4.802   7.026
18449TIP3    H2 5816   2.176   4.745   6.929
18450TIP3   OH2 5817   2.945   5.328   6.124
18450TIP3    H1 5818   2.988   5.358   6.204
18450TIP3    H2 5819   2.889   5.403   6.100
18451TIP3   OH2 5820   2.397   5.323   7.112
18451TIP3    H1 5821   2.395   5.312   7.016
18451TIP3    H2 5822   2.304   5.308   7.136
18452TIP3   OH2 5823   3.545   3.827   5.767
18452TIP3    H1 5824   3.450   3.840   5.790
18452TIP3    H2 5825   3.566   3.912   5.725
18453TIP3   OH2 5826   2.349   4.702   5.953
18453TIP3    H1 5827   2.313   4.783   5.912
18453TIP3    H2 5828   2.278   4.638   5.945
18454TIP3   OH2 5829   3.654   5.264   5.610
18454TIP3    H1 5830   3.670   5.360   5.614
18454TIP3    H2 5831   3.746   5.234   5.593
18455TIP3   OH2 5832   1.952   4.946   6.853
18455TIP3    H1 5833   1.907   4.938   6.766
18455TIP3    H2 5834   1.960   4.852   6.874
18456TIP3   OH2 5835   1.929   5.220   6.531
18456TIP3    H1 5836   2.025   5.208   6.529
18456TIP3    H2 5837   1.921   5.302   6.581
18457TIP3   OH2 5838   3.748   5.287   7.094
18457TIP3    H1 5839   3.741   5.190   7.096
18457TIP3    H2 5840   3.665   5.315   7.139
18458TIP3   OH2 5841   2.849   5.244   6.987
18458TIP3    H1 5842   2.854   5.329   7.036
18458TIP3    H2 5843   2.761   5.209   7.010
18459TIP3   OH2 5844   2.891   5.619   5.964
18459TIP3    H1 5845   2.883   5.612   5.868
18459TIP3    H2 5846   2.895   5.715   5.980
18460TIP3   OH2 5847   2.256   5.506   6.147
18460TIP3    H1 5848   2.271   5.465   6.235
18460TIP3    H2 5849   2.171   5.466   6.123
18461TIP3   OH2 5850   3.193   5.539   5.660
18461TIP3    H1 5851   3.243   5.465   5.619
18461TIP3    H2 5852   3.201   5.515   5.754
18462TIP3   OH2 5853   3.168   5.533   5.942
18462TIP3    H1 5854   3.071   5.542   5.958
18462TIP3    H2 5855   3.191   5.458   5.999
18463TIP3   OH2 5856   3.468   4.438   7.144
18463TIP3    H1 5857   3.420   4.483   7.073
18463TIP3    H2 5858   3.466   4.345   7.116
18464TIP3   OH2 5859   2.180   5.077   6.944
18464TIP3    H1 5860   2.203   5.040   7.032
18464TIP3    H2 5861   2.093   5.038   6.924
18465TIP3   OH2 5862   2.449   3.925   6.542
18465TIP3    H1 5863   2.359   3.913   6.505
18465TIP3    H2 5864   2.436   4.009   6.590
18466TIP3   OH2 5865   2.914   3.892   6.879
18466TIP3    H1 5866   2.952   3.850   6.958
18466TIP3    H2 5867   2.816   3.880   6.893
18467TIP3   OH2 5868   3.243   4.277   6.968
18467TIP3    H1 5869   3.186   4.256   7.046
18467TIP3    H2 5870   3.224   4.369   6.945
18468TIP3   OH2 5871   3.305   4.772   5.538
18468TIP3    H1 5872   3.322   4.735   5.451
18468TIP3    H2 5873   3.396   4.792   5.569
18469TIP3   OH2 5874   2.877   4.149   5.612
18469TIP3    H1 5875   2.845   4.145   5.705
18469TIP3    H2 5876   2.849   4.062   5.584
18470TIP3   OH2 5877   2.461   4.423   6.668
18470TIP3    H1 5878   2.385   4.422   6.729
18470TIP3    H2 5879   2.454   4.513   6.628
18471TIP3   OH2 5880   2.460   4.426   6.153
18471TIP3    H1 5881   2.363   4.415   6.142
18471TIP3    H2 5882   2.493   4.404   6.064
18472TIP3   OH2 5883   3.008   4.484   6.029
18472TIP3    H1 5884   2.966   4.567   5.996
18472TIP3    H2 5885   3.077   4.470   5.962
18473TIP3   OH2 5886   2.913   4.506   7.173
18473TIP3    H1 5887   2.860   4.430   7.206
18473TIP3    H2 5888   2.996   4.494   7.222
18474TIP3   OH2 5889   3.111   4.434   6.315
18474TIP3    H1 5890   3.083   4.490   6.241
18474TIP3    H2 5891   3.121   4.349   6.268
18475TIP3   OH2 5892   2.222   4.448   6.837
18475TIP3    H1 5893   2.229   4.489   6.925
18475TIP3    H2 5894   2.177   4.364   6.856
18476TIP3   OH2 5895   2.559   4.183   5.518
18476TIP3    H1 5896   2.515   4.145   5.596
18476TIP3    H2 5897   2.490   4.229   5.470
18477TIP3   OH2 5898   1.887   4.159   6.233
18477TIP3    H1 5899   1.956   4.157   6.303
18477TIP3    H2 5900   1.933   4.122   6.156
18478TIP3   OH2 5901   2.016   4.232   5.773
18478TIP3    H1 5902   2.066   4.291   5.713
18478TIP3    H2 5903   1.946   4.295   5.803
18479TIP3   OH2 5904   3.032   4.592   6.772
18479TIP3    H1 5905   3.068   4.524   6.712
18479TIP3    H2 5906   2.985   4.539   6.838
18480TIP3   OH2 5907   2.711   4.190   6.254
18480TIP3    H1 5908   2.618   4.192   6.283
18480TIP3    H2 5909   2.759   4.173   6.337
18481TIP3   OH2 5910   2.192   4.343   6.142
18481TIP3    H1 5911   2.104   4.362   6.103
18481TIP3    H2 5912   2.220   4.261   6.100
18482TIP3   OH2 5913   2.557   4.348   5.901
18482TIP3    H1 5914   2.652   4.361   5.920
18482TIP3    H2 5915   2.532   4.417   5.838
18483TIP3   OH2 5916   3.152   4.113   6.578
18483TIP3    H1 5917   3.083   4.118   6.649
18483TIP3    H2 5918   3.101   4.088   6.500
18484TIP3   OH2 5919   2.428   4.468   5.666
18484TIP3    H1 5920   2.372   4.432   5.595
18484TIP3    H2 5921   2.508   4.490   5.616
18485TIP3   OH2 5922   3.466   5.675   7.206
18485TIP3    H1 5923   3.500   5.716   7.126
18485TIP3    H2 5924   3.536   5.708   7.268
18486TIP3   OH2 5925   2.242   4.925   7.169
18486TIP3    H1 5926   2.311   4.950   7.232
18486TIP3    H2 5927   2.163   4.935   7.227
18487TIP3   OH2 5928   2.839   4.465   6.444
18487TIP3    H1 5929   2.899   4.412   6.390
18487TIP3    H2 5930   2.825   4.410   6.522
18488TIP3   OH2 5931   2.340   4.080   6.087
18488TIP3    H1 5932   2.310   3.987   6.086
18488TIP3    H2 5933   2.419   4.074   6.032
18489TIP3   OH2 5934   2.704   4.298   6.685
18489TIP3    H1 5935   2.621   4.350   6.694
18489TIP3    H2 5936   2.759   4.333   6.758
18490TIP3   OH2 5937   2.762   4.922   5.853
18490TIP3    H1 5938   2.682   4.873   5.822
18490TIP3    H2 5939   2.741   4.932   5.948
18491TIP3   OH2 5940   3.480   4.840   6.735
18491TIP3    H1 5941   3.537   4.889   6.672
18491TIP3    H2 5942   3.394   4.846   6.688
18492TIP3   OH2 5943   3.145   4.200   5.676
18492TIP3    H1 5944   3.051   4.215   5.656
18492TIP3    H2 5945   3.179   4.287   5.703
18493TIP3   OH2 5946   2.912   4.947   6.979
18493TIP3    H1 5947   2.877   4.904   7.059
18493TIP3    H2 5948   2.885   5.039   6.988
18494TIP3   OH2 5949   3.218   4.394   5.840
18494TIP3    H1 5950   3.309   4.381   5.876
18494TIP3    H2 5951   3.228   4.474   5.787
18495TIP3   OH2 5952   2.289   4.877   6.466
18495TIP3    H1 5953   2.331   4.861   6.379
18495TIP3    H2 5954   2.272   4.782   6.481
18496TIP3   OH2 5955   2.971   5.067   5.760
18496TIP3    H1 5956   2.937   5.152   5.795
18496TIP3    H2 5957   2.897   5.006   5.781
18497TIP3   OH2 5958   1.971   4.701   6.962
18497TIP3    H1 5959   1.991   4.656   7.046
18497TIP3    H2 5960   1.910   4.638   6.919
18498TIP3   OH2 5961   2.673   4.657   7.178
18498TIP3    H1 5962   2.643   4.626   7.091
18498TIP3    H2 5963   2.766   4.627   7.179
18499TIP3   OH2 5964   3.141   5.189   6.974
18499TIP3    H1 5965   3.049   5.208   6.950
18499TIP3    H2 5966   3.139   5.220   7.066
18500TIP3   OH2 5967   3.710   4.407   5.812
18500TIP3    H1 5968   3.650   4.380   5.739
18500TIP3    H2 5969   3.711   4.502   5.787
18501TIP3   OH2 5970   3.707   4.994   7.095
18501TIP3    H1 5971   3.619   5.017   7.057
18501TIP3    H2 5972   3.762   4.990   7.014
18502TIP3   OH2 5973   3.538   5.290   5.854
18502TIP3    H1 5974   3.501   5.207   5.885
18502TIP3    H2 5975   3.568   5.272   5.762
18503TIP3   OH2 5976   3.258   4.772   6.563
18503TIP3    H1 5977   3.164   4.751   6.552
18503TIP3    H2 5978   3.301   4.696   6.520
18504TIP3   OH2 5979   2.510   5.206   6.173
18504TIP3    H1 5980   2.560   5.286   6.152
18504TIP3    H2 5981   2.422   5.229   6.140
18505TIP3   OH2 5982   2.083   4.691   5.622
18505TIP3    H1 5983   2.145   4.752   5.665
18505TIP3    H2 5984   1.998   4.720   5.660
18506TIP3   OH2 5985   2.661   4.980   6.123
18506TIP3    H1 5986   2.620   5.068   6.133
18506TIP3    H2 5987   2.589   4.924   6.163
18507TIP3   OH2 5988   2.698   5.390   6.764
18507TIP3    H1 5989   2.742   5.472   6.738
18507TIP3    H2 5990   2.758   5.356   6.833
18508TIP3   OH2 5991   2.519   5.471   6.079
18508TIP3    H1 5992   2.423   5.486   6.091
18508TIP3    H2 5993   2.555   5.555   6.113
18509TIP3   OH2 5994   3.049   4.990   6.727
18509TIP3    H1 5995   3.016   4.971   6.817
18509TIP3    H2 5996   3.114   4.919   6.711
18510TIP3   OH2 5997   3.278   5.099   5.640
18510TIP3    H1 5998   3.313   5.048   5.717
18510TIP3    H2 5999   3.185   5.076   5.647
18511TIP3   OH2 6000   3.330   5.447   6.976
18511TIP3    H1 6001   3.261   5.399   6.927
18511TIP3    H2 6002   3.350   5.519   6.912
18512TIP3   OH2 6003   3.729   5.536   5.659
18512TIP3    H1 6004   3.801   5.599   5.641
18512TIP3    H2 6005   3.658   5.596   5.691
18513TIP3   OH2 6006   2.137   4.175   6.917
18513TIP3    H1 6007   2.046   4.209   6.913
18513TIP3    H2 6008   2.126   4.089   6.961
18514TIP3   OH2 6009   3.360   4.965   5.866
18514TIP3    H1 6010   3.338   4.880   5.911
18514TIP3    H2 6011   3.457   4.962   5.877
18515TIP3   OH2 6012   2.099   5.354   6.759
18515TIP3    H1 6013   2.128   5.261   6.760
18515TIP3    H2 6014   2.126   5.382   6.848
18516TIP3   OH2 6015   2.695   5.201   5.483
18516TIP3    H1 6016   2.710   5.125   5.428
18516TIP3    H2 6017   2.652   5.165   5.563
18517TIP3   OH2 6018   2.576   5.159   5.729
18517TIP3    H1 6019   2.598   5.106   5.806
18517TIP3    H2 6020   2.581   5.252   5.761
18518TIP3   OH2 6021   2.223   4.884   5.773
18518TIP3    H1 6022   2.158   4.922   5.836
18518TIP3    H2 6023   2.278   4.961   5.752
18519TIP3   OH2 6024   3.011   4.151   6.811
18519TIP3    H1 6025   3.081   4.157   6.876
18519TIP3    H2 6026   2.972   4.064   6.831
18520TIP3   OH2 6027   3.083   4.109   5.922
18520TIP3    H1 6028   3.108   4.155   5.839
18520TIP3    H2 6029   3.143   4.153   5.985
18521TIP3   OH2 6030   2.854   5.325   5.799
18521TIP3    H1 6031   2.772   5.377   5.809
18521TIP3    H2 6032   2.906   5.380   5.738
18522TIP3   OH2 6033   2.808   4.283   6.003
18522TIP3    H1 6034   2.886   4.341   6.006
18522TIP3    H2 6035   2.781   4.271   6.096
18523TIP3   OH2 6036   2.862   4.385   6.920
18523TIP3    H1 6037   2.871   4.443   6.999
18523TIP3    H2 6038   2.929   4.317   6.930
18524TIP3   OH2 6039   2.893   3.989   6.091
18524TIP3    H1 6040   2.861   4.055   6.155
18524TIP3    H2 6041   2.962   4.044   6.045
18525TIP3   OH2 6042   2.591   5.429   5.805
18525TIP3    H1 6043   2.607   5.511   5.753
18525TIP3    H2 6044   2.566   5.464   5.893
18526TIP3   OH2 6045   2.458   4.099   5.766
18526TIP3    H1 6046   2.454   4.191   5.798
18526TIP3    H2 6047   2.550   4.074   5.790
18527TIP3   OH2 6048   3.481   4.172   7.006
18527TIP3    H1 6049   3.388   4.204   6.993
18527TIP3    H2 6050   3.511   4.172   6.913
18528TIP3   OH2 6051   3.342   4.552   6.407
18528TIP3    H1 6052   3.260   4.507   6.379
18528TIP3    H2 6053   3.390   4.483   6.459
18529TIP3   OH2 6054   2.284   5.142   5.668
18529TIP3    H1 6055   2.348   5.208   5.697
18529TIP3    H2 6056   2.334   5.098   5.597
18530TIP3   OH2 6057   2.119   4.410   5.585
18530TIP3    H1 6058   2.118   4.507   5.597
18530TIP3    H2 6059   2.033   4.391   5.548
18531TIP3   OH2 6060   3.448   5.477   6.574
18531TIP3    H1 6061   3.439   5.545   6.505
18531TIP3    H2 6062   3.544   5.482   6.591
18532TIP3   OH2 6063   2.198   3.889   6.454
18532TIP3    H1 6064   2.178   3.892   6.358
18532TIP3    H2 6065   2.156   3.805   6.480
18533TIP3   OH2 6066   2.094   5.281   6.068
18533TIP3    H1 6067   2.008   5.326   6.065
18533TIP3    H2 6068   2.141   5.329   5.999
18534TIP3   OH2 6069   2.018   5.546   7.196
18534TIP3    H1 6070   2.072   5.521   7.271
18534TIP3    H2 6071   1.970   5.464   7.178
18535TIP3   OH2 6072   2.893   5.388   5.497
18535TIP3    H1 6073   2.822   5.324   5.519
18535TIP3    H2 6074   2.967   5.330   5.475
18536TIP3   OH2 6075   3.131   5.277   7.234
18536TIP3    H1 6076   3.104   5.187   7.256
18536TIP3    H2 6077   3.211   5.289   7.289
18537TIP3   OH2 6078   3.353   5.368   5.519
18537TIP3    H1 6079   3.377   5.286   5.566
18537TIP3    H2 6080   3.430   5.383   5.464
18538TIP3   OH2 6081   2.009   4.927   7.292
18538TIP3    H1 6082   2.022   4.834   7.266
18538TIP3    H2 6083   1.930   4.950   7.241
18539TIP3   OH2 6084   2.443   4.958   5.504
18539TIP3    H1 6085   2.453   4.881   5.560
18539TIP3    H2 6086   2.509   4.943   5.436
18540TIP3   OH2 6087   2.680   4.925   7.233
18540TIP3    H1 6088   2.643   4.954   7.148
18540TIP3    H2 6089   2.683   4.826   7.227
18541TIP3   OH2 6090   2.976   5.066   5.478
18541TIP3    H1 6091   2.955   5.080   5.572
18541TIP3    H2 6092   2.961   4.971   5.467
18542TIP3   OH2 6093   3.247   4.909   6.975
18542TIP3    H1 6094   3.325   4.968   6.967
18542TIP3    H2 6095   3.176   4.975   6.978
18543TIP3   OH2 6096   2.097   4.646   7.236
18543TIP3    H1 6097   2.136   4.559   7.224
18543TIP3    H2 6098   2.069   4.644   7.328
18544TIP3   OH2 6099   2.561   4.760   5.742
18544TIP3    H1 6100   2.509   4.707   5.806
18544TIP3    H2 6101   2.590   4.692   5.677
18545TIP3   OH2 6102   2.487   4.542   6.971
18545TIP3    H1 6103   2.428   4.614   6.997
18545TIP3    H2 6104   2.526   4.578   6.890
18546TIP3   OH2 6105   2.668   4.590   5.561
18546TIP3    H1 6106   2.654   4.565   5.469
18546TIP3    H2 6107   2.766   4.588   5.572
18547TIP3   OH2 6108   2.995   4.799   7.303
18547TIP3    H1 6109   3.091   4.796   7.296
18547TIP3    H2 6110   2.975   4.725   7.363
18548TIP3   OH2 6111   3.626   4.828   5.490
18548TIP3    H1 6112   3.575   4.780   5.425
18548TIP3    H2 6113   3.606   4.921   5.478
18549TIP3   OH2 6114   2.527   4.280   7.079
18549TIP3    H1 6115   2.538   4.208   7.014
18549TIP3    H2 6116   2.523   4.360   7.023
18550TIP3   OH2 6117   2.568   4.117   6.832
18550TIP3    H1 6118   2.619   4.164   6.761
18550TIP3    H2 6119   2.478   4.109   6.791
18551TIP3   OH2 6120   2.722   4.665   6.856
18551TIP3    H1 6121   2.797   4.649   6.798
18551TIP3    H2 6122   2.685   4.749   6.823
18552TIP3   OH2 6123   3.158   4.439   7.352
18552TIP3    H1 6124   3.187   4.347   7.347
18552TIP3    H2 6125   3.243   4.487   7.355
18553TIP3   OH2 6126   3.295   4.720   7.166
18553TIP3    H1 6127   3.271   4.794   7.106
18553TIP3    H2 6128   3.391   4.717   7.148
18554TIP3   OH2 6129   2.373   4.403   7.267
18554TIP3    H1 6130   2.296   4.345   7.250
18554TIP3    H2 6131   2.439   4.366   7.205
18555TIP3   OH2 6132   2.646   3.860   6.872
18555TIP3    H1 6133   2.629   3.957   6.861
18555TIP3    H2 6134   2.572   3.824   6.821
18556TIP3   OH2 6135   2.774   4.291   7.230
18556TIP3    H1 6136   2.741   4.273   7.320
18556TIP3    H2 6137   2.693   4.275   7.178
18557TIP3   OH2 6138   3.046   4.208   7.142
18557TIP3    H1 6139   2.949   4.212   7.154
18557TIP3    H2 6140   3.072   4.142   7.209
18558TIP3   OH2 6141   3.204   4.070   7.334
18558TIP3    H1 6142   3.199   3.972   7.337
18558TIP3    H2 6143   3.180   4.097   7.424
18559TIP3   OH2 6144   2.186   4.197   7.243
18559TIP3    H1 6145   2.208   4.123   7.183
18559TIP3    H2 6146   2.176   4.151   7.329
18560TIP3   OH2 6147   2.666   3.798   7.141
18560TIP3    H1 6148   2.735   3.728   7.140
18560TIP3    H2 6149   2.656   3.814   7.045
18561TIP3   OH2 6150   2.704   3.962   7.348
18561TIP3    H1 6151   2.687   3.910   7.266
18561TIP3    H2 6152   2.643   4.038   7.343
18562TIP3   OH2 6153   2.653   5.656   5.669
18562TIP3    H1 6154   2.750   5.664   5.675
18562TIP3    H2 6155   2.635   5.718   5.597
18563TIP3   OH2 6156   2.011   5.112   5.618
18563TIP3    H1 6157   2.106   5.121   5.640
18563TIP3    H2 6158   2.015   5.051   5.543
18564TIP3   OH2 6159   1.884   5.648   6.114
18564TIP3    H1 6160   1.813   5.600   6.066
18564TIP3    H2 6161   1.913   5.583   6.180
18565TIP3   OH2 6162   1.967   5.462   6.300
18565TIP3    H1 6163   1.932   5.374   6.320
18565TIP3    H2 6164   1.989   5.495   6.389
18566TIP3   OH2 6165   3.720   5.541   6.594
18566TIP3    H1 6166   3.723   5.558   6.689
18566TIP3    H2 6167   3.789   5.600   6.562
18567TIP3   OH2 6168   3.677   5.501   6.887
18567TIP3    H1 6169   3.631   5.423   6.850
18567TIP3    H2 6170   3.729   5.458   6.958
18568TIP3   OH2 6171   3.526   5.074   7.363
18568TIP3    H1 6172   3.433   5.067   7.392
18568TIP3    H2 6173   3.557   5.158   7.395
18569TIP3   OH2 6174   3.650   4.912   5.906
18569TIP3    H1 6175   3.741   4.944   5.915
18569TIP3    H2 6176   3.651   4.833   5.963
18570TIP3   OH2 6177   3.691   4.714   6.086
18570TIP3    H1 6178   3.615   4.664   6.124
18570TIP3    H2 6179   3.750   4.727   6.162
18571TIP3   OH2 6180   3.665   4.983   6.584
18571TIP3    H1 6181   3.748   4.946   6.548
18571TIP3    H2 6182   3.680   5.079   6.568
18572TIP3   OH2 6183   3.521   5.273   6.812
18572TIP3    H1 6184   3.453   5.308   6.872
18572TIP3    H2 6185   3.465   5.234   6.741
18573TIP3   OH2 6186   3.771   4.747   5.735
18573TIP3    H1 6187   3.699   4.735   5.670
18573TIP3    H2 6188   3.710   4.772   5.806
18574TIP3   OH2 6189   3.573   4.392   5.574
18574TIP3    H1 6190   3.560   4.476   5.526
18574TIP3    H2 6191   3.535   4.325   5.515
18575TIP3   OH2 6192   3.473   4.561   6.145
18575TIP3    H1 6193   3.457   4.466   6.138
18575TIP3    H2 6194   3.437   4.582   6.233
18576TIP3   OH2 6195   1.973   4.772   6.549
18576TIP3    H1 6196   1.991   4.760   6.453
18576TIP3    H2 6197   2.063   4.752   6.584
18577TIP3   OH2 6198   3.558   4.758   7.112
18577TIP3    H1 6199   3.619   4.682   7.128
18577TIP3    H2 6200   3.618   4.835   7.113
18578TIP3   OH2 6201   3.709   4.547   7.176
18578TIP3    H1 6202   3.620   4.507   7.162
18578TIP3    H2 6203   3.765   4.468   7.170
18579TIP3   OH2 6204   3.480   4.160   5.489
18579TIP3    H1 6205   3.540   4.123   5.557
18579TIP3    H2 6206   3.392   4.125   5.510
18580TIP3   OH2 6207   3.439   4.319   5.994
18580TIP3    H1 6208   3.470   4.226   6.002
18580TIP3    H2 6209   3.515   4.360   5.951
18581TIP3   OH2 6210   3.502   4.374   6.534
18581TIP3    H1 6211   3.599   4.397   6.533
18581TIP3    H2 6212   3.484   4.388   6.628
18582TIP3   OH2 6213   3.509   4.446   6.812
18582TIP3    H1 6214   3.421   4.475   6.844
18582TIP3    H2 6215   3.552   4.532   6.790
18583TIP3   OH2 6216   1.933   4.300   7.163
18583TIP3    H1 6217   2.027   4.280   7.185
18583TIP3    H2 6218   1.890   4.218   7.195
18584TIP3   OH2 6219   3.738   3.850   7.348
18584TIP3    H1 6220   3.772   3.786   7.284
18584TIP3    H2 6221   3.746   3.933   7.297
18585TIP3   OH2 6222   3.506   4.047   5.994
18585TIP3    H1 6223   3.527   4.004   6.080
18585TIP3    H2 6224   3.445   3.984   5.950
18586TIP3   OH2 6225   2.054   4.128   6.451
18586TIP3    H1 6226   2.101   4.047   6.477
18586TIP3    H2 6227   2.109   4.199   6.487
18587TIP3   OH2 6228   1.882   4.430   6.556
18587TIP3    H1 6229   1.939   4.405   6.479
18587TIP3    H2 6230   1.930   4.510   6.580
18588TIP3   OH2 6231   3.690   4.061   7.182
18588TIP3    H1 6232   3.597   4.089   7.177
18588TIP3    H2 6233   3.692   4.007   7.101
18589TIP3   OH2 6234   3.688   4.053   5.648
18589TIP3    H1 6235   3.732   3.981   5.600
18589TIP3    H2 6236   3.758   4.119   5.654
18590TIP3   OH2 6237   1.919   4.054   5.959
18590TIP3    H1 6238   1.825   4.074   5.948
18590TIP3    H2 6239   1.961   4.105   5.888
18591TIP3   OH2 6240   3.393   5.549   6.156
18591TIP3    H1 6241   3.462   5.519   6.094
18591TIP3    H2 6242   3.444   5.600   6.221
18592TIP3   OH2 6243   1.914   3.921   6.791
18592TIP3    H1 6244   1.847   3.901   6.859
18592TIP3    H2 6245   1.868   3.988   6.737
18593TIP3   OH2 6246   2.137   5.245   7.211
18593TIP3    H1 6247   2.054   5.261   7.164
18593TIP3    H2 6248   2.106   5.230   7.301
18594TIP3   OH2 6249   2.428   5.341   6.835
18594TIP3    H1 6250   2.394   5.427   6.807
18594TIP3    H2 6251   2.520   5.350   6.804
18595TIP3   OH2 6252   2.861   5.483   7.123
18595TIP3    H1 6253   2.874   5.451   7.215
18595TIP3    H2 6254   2.951   5.514   7.100
18596TIP3   OH2 6255   3.089   5.610   7.056
18596TIP3    H1 6256   3.162   5.551   7.032
18596TIP3    H2 6257   3.128   5.653   7.136
18597TIP3   OH2 6258   3.591   3.871   6.967
18597TIP3    H1 6259   3.507   3.901   6.926
18597TIP3    H2 6260   3.607   3.789   6.915
18598TIP3   OH2 6261   2.170   5.665   6.833
18598TIP3    H1 6262   2.097   5.715   6.794
18598TIP3    H2 6263   2.138   5.646   6.922
18599TIP3   OH2 6264   2.417   5.623   6.741
18599TIP3    H1 6265   2.328   5.637   6.782
18599TIP3    H2 6266   2.411   5.682   6.664
18600TIP3   OH2 6267   2.888   5.614   6.659
18600TIP3    H1 6268   2.841   5.669   6.594
18600TIP3    H2 6269   2.901   5.677   6.733
18601TIP3   OH2 6270   3.116   5.494   6.759
18601TIP3    H1 6271   3.030   5.522   6.724
18601TIP3    H2 6272   3.164   5.579   6.752
18602TIP3   OH2 6273   3.376   5.653   6.784
18602TIP3    H1 6274   3.368   5.749   6.762
18602TIP3    H2 6275   3.396   5.616   6.696
18603TIP3   OH2 6276   2.116   5.529   6.529
18603TIP3    H1 6277   2.108   5.484   6.615
18603TIP3    H2 6278   2.197   5.492   6.490
18604TIP3   OH2 6279   2.324   5.401   6.394
18604TIP3    H1 6280   2.307   5.307   6.417
18604TIP3    H2 6281   2.409   5.416   6.439
18605TIP3   OH2 6282   2.584   5.449   6.482
18605TIP3    H1 6283   2.599   5.356   6.455
18605TIP3    H2 6284   2.588   5.443   6.578
18606TIP3   OH2 6285   2.929   4.014   6.395
18606TIP3    H1 6286   2.862   3.950   6.423
18606TIP3    H2 6287   2.985   3.961   6.337
18607TIP3   OH2 6288   3.443   3.820   6.402
18607TIP3    H1 6289   3.504   3.878   6.351
18607TIP3    H2 6290   3.355   3.855   6.379
18608TIP3   OH2 6291   3.610   3.943   6.230
18608TIP3    H1 6292   3.678   3.886   6.188
18608TIP3    H2 6293   3.660   4.027   6.240
18609TIP3   OH2 6294   2.166   3.877   6.180
18609TIP3    H1 6295   2.087   3.857   6.127
18609TIP3    H2 6296   2.213   3.791   6.175
18610TIP3   OH2 6297   2.041   3.853   5.749
18610TIP3    H1 6298   2.092   3.918   5.698
18610TIP3    H2 6299   1.987   3.909   5.808
18611TIP3   OH2 6300   2.614   3.868   6.159
18611TIP3    H1 6301   2.704   3.905   6.152
18611TIP3    H2 6302   2.610   3.848   6.252
18612TIP3   OH2 6303   3.184   3.871   6.322
18612TIP3    H1 6304   3.180   3.882   6.226
18612TIP3    H2 6305   3.147   3.780   6.334
18613TIP3   OH2 6306   3.312   3.874   5.887
18613TIP3    H1 6307   3.238   3.934   5.872
18613TIP3    H2 6308   3.269   3.789   5.911
18614TIP3   OH2 6309   2.035   5.448   5.853
18614TIP3    H1 6310   1.967   5.447   5.782
18614TIP3    H2 6311   2.037   5.543   5.870
18615TIP3   OH2 6312   2.224   4.041   5.606
18615TIP3    H1 6313   2.280   3.986   5.552
18615TIP3    H2 6314   2.291   4.081   5.665
18616TIP3   OH2 6315   2.730   4.072   5.844
18616TIP3    H1 6316   2.754   4.014   5.918
18616TIP3    H2 6317   2.735   4.158   5.892
18617TIP3   OH2 6318   2.920   5.579   5.686
18617TIP3    H1 6319   3.014   5.601   5.669
18617TIP3    H2 6320   2.901   5.525   5.607
18618TIP3   OH2 6321   3.593   5.529   5.960
18618TIP3    H1 6322   3.572   5.451   5.902
18618TIP3    H2 6323   3.584   5.602   5.896
18619TIP3   OH2 6324   2.155   3.931   7.125
18619TIP3    H1 6325   2.116   3.853   7.167
18619TIP3    H2 6326   2.246   3.926   7.164
18620TIP3   OH2 6327   2.355   3.866   7.287
18620TIP3    H1 6328   2.445   3.834   7.264
18620TIP3    H2 6329   2.322   3.787   7.334
18621TIP3   OH2 6330   2.218   5.547   5.549
18621TIP3    H1 6331   2.188   5.572   5.637
18621TIP3    H2 6332   2.292   5.488   5.567
18622TIP3   OH2 6333   3.199   3.799   7.300
18622TIP3    H1 6334   3.203   3.753   7.387
18622TIP3    H2 6335   3.291   3.794   7.270
18623TIP3   OH2 6336   3.512   5.401   7.176
18623TIP3    H1 6337   3.436   5.389   7.115
18623TIP3    H2 6338   3.506   5.498   7.189
18624TIP3   OH2 6339   4.960   4.790   6.166
18624TIP3    H1 6340   4.960   4.888   6.162
18624TIP3    H2 6341   4.888   4.767   6.106
18625TIP3   OH2 6342   4.846   4.717   6.516
18625TIP3    H1 6343   4.845   4.651   6.588
18625TIP3    H2 6344   4.813   4.666   6.440
18626TIP3   OH2 6345   4.082   4.684   6.673
18626TIP3    H1 6346   4.090   4.615   6.741
18626TIP3    H2 6347   4.157   4.741   6.692
18627TIP3   OH2 6348   5.215   5.011   6.344
18627TIP3    H1 6349   5.174   4.939   6.393
18627TIP3    H2 6350   5.217   5.082   6.411
18628TIP3   OH2 6351   4.174   5.128   6.522
18628TIP3    H1 6352   4.143   5.042   6.490
18628TIP3    H2 6353   4.270   5.110   6.527
18629TIP3   OH2 6354   3.838   4.484   6.072
18629TIP3    H1 6355   3.795   4.571   6.064
18629TIP3    H2 6356   3.782   4.432   6.013
18630TIP3   OH2 6357   3.909   4.707   6.285
18630TIP3    H1 6358   3.936   4.625   6.330
18630TIP3    H2 6359   3.979   4.717   6.220
18631TIP3   OH2 6360   4.928   5.527   6.368
18631TIP3    H1 6361   4.992   5.457   6.340
18631TIP3    H2 6362   4.906   5.494   6.456
18632TIP3   OH2 6363   4.684   4.956   6.563
18632TIP3    H1 6364   4.718   4.893   6.497
18632TIP3    H2 6365   4.765   4.972   6.615
18633TIP3   OH2 6366   5.548   4.121   6.631
18633TIP3    H1 6367   5.559   4.177   6.713
18633TIP3    H2 6368   5.602   4.176   6.575
18634TIP3   OH2 6369   5.001   4.403   6.594
18634TIP3    H1 6370   5.017   4.307   6.594
18634TIP3    H2 6371   4.990   4.417   6.498
18635TIP3   OH2 6372   4.312   4.212   6.317
18635TIP3    H1 6373   4.323   4.296   6.267
18635TIP3    H2 6374   4.273   4.155   6.248
18636TIP3   OH2 6375   5.086   4.223   6.155
18636TIP3    H1 6376   5.151   4.189   6.220
18636TIP3    H2 6377   5.143   4.278   6.099
18637TIP3   OH2 6378   3.975   4.453   6.390
18637TIP3    H1 6379   4.042   4.398   6.435
18637TIP3    H2 6380   3.985   4.422   6.299
18638TIP3   OH2 6381   4.490   4.609   6.321
18638TIP3    H1 6382   4.557   4.550   6.362
18638TIP3    H2 6383   4.439   4.542   6.271
18639TIP3   OH2 6384   5.588   4.263   6.861
18639TIP3    H1 6385   5.527   4.340   6.853
18639TIP3    H2 6386   5.592   4.253   6.957
18640TIP3   OH2 6387   4.202   4.101   6.720
18640TIP3    H1 6388   4.175   4.159   6.646
18640TIP3    H2 6389   4.135   4.125   6.788
18641TIP3   OH2 6390   4.932   5.050   6.075
18641TIP3    H1 6391   4.904   5.021   5.986
18641TIP3    H2 6392   4.901   5.143   6.080
18642TIP3   OH2 6393   4.455   4.866   6.748
18642TIP3    H1 6394   4.384   4.931   6.764
18642TIP3    H2 6395   4.524   4.925   6.715
18643TIP3   OH2 6396   5.273   4.151   6.351
18643TIP3    H1 6397   5.241   4.079   6.407
18643TIP3    H2 6398   5.329   4.202   6.412
18644TIP3   OH2 6399   4.159   4.288   6.524
18644TIP3    H1 6400   4.222   4.356   6.556
18644TIP3    H2 6401   4.212   4.247   6.451
18645TIP3   OH2 6402   4.299   5.067   6.827
18645TIP3    H1 6403   4.294   5.158   6.792
18645TIP3    H2 6404   4.210   5.060   6.871
18646TIP3   OH2 6405   3.908   5.030   5.907
18646TIP3    H1 6406   3.883   5.058   5.816
18646TIP3    H2 6407   3.914   5.114   5.956
18647TIP3   OH2 6408   5.268   5.195   6.581
18647TIP3    H1 6409   5.171   5.206   6.593
18647TIP3    H2 6410   5.295   5.286   6.561
18648TIP3   OH2 6411   5.300   4.022   6.719
18648TIP3    H1 6412   5.227   4.086   6.713
18648TIP3    H2 6413   5.370   4.067   6.669
18649TIP3   OH2 6414   4.598   3.836   6.473
18649TIP3    H1 6415   4.587   3.741   6.453
18649TIP3    H2 6416   4.508   3.864   6.495
18650TIP3   OH2 6417   5.094   5.373   6.240
18650TIP3    H1 6418   5.137   5.301   6.190
18650TIP3    H2 6419   5.136   5.452   6.201
18651TIP3   OH2 6420   5.215   5.166   6.092
18651TIP3    H1 6421   5.186   5.096   6.030
18651TIP3    H2 6422   5.218   5.117   6.176
18652TIP3   OH2 6423   5.377   5.025   6.941
18652TIP3    H1 6424   5.392   4.960   6.869
18652TIP3    H2 6425   5.397   5.110   6.898
18653TIP3   OH2 6426   4.826   4.713   5.918
18653TIP3    H1 6427   4.757   4.771   5.881
18653TIP3    H2 6428   4.897   4.723   5.851
18654TIP3   OH2 6429   4.834   4.569   5.623
18654TIP3    H1 6430   4.905   4.569   5.689
18654TIP3    H2 6431   4.863   4.499   5.564
18655TIP3   OH2 6432   5.565   4.656   6.746
18655TIP3    H1 6433   5.499   4.728   6.750
18655TIP3    H2 6434   5.614   4.680   6.665
18656TIP3   OH2 6435   5.172   4.737   6.011
18656TIP3    H1 6436   5.096   4.760   6.071
18656TIP3    H2 6437   5.218   4.668   6.062
18657TIP3   OH2 6438   5.164   4.552   6.922
18657TIP3    H1 6439   5.165   4.634   6.975
18657TIP3    H2 6440   5.101   4.581   6.853
18658TIP3   OH2 6441   4.332   4.801   6.202
18658TIP3    H1 6442   4.300   4.762   6.117
18658TIP3    H2 6443   4.394   4.732   6.235
18659TIP3   OH2 6444   4.465   5.140   6.469
18659TIP3    H1 6445   4.464   5.087   6.389
18659TIP3    H2 6446   4.543   5.104   6.515
18660TIP3   OH2 6447   4.366   4.675   6.570
18660TIP3    H1 6448   4.420   4.686   6.488
18660TIP3    H2 6449   4.404   4.744   6.628
18661TIP3   OH2 6450   5.006   5.233   6.638
18661TIP3    H1 6451   4.978   5.297   6.704
18661TIP3    H2 6452   4.981   5.148   6.681
18662TIP3   OH2 6453   4.458   5.115   7.041
18662TIP3    H1 6454   4.419   5.193   7.086
18662TIP3    H2 6455   4.394   5.100   6.967
18663TIP3   OH2 6456   5.059   4.654   5.778
18663TIP3    H1 6457   5.115   4.673   5.858
18663TIP3    H2 6458   5.100   4.706   5.706
18664TIP3   OH2 6459   4.156   4.732   6.959
18664TIP3    H1 6460   4.157   4.805   7.024
18664TIP3    H2 6461   4.064   4.743   6.929
18665TIP3   OH2 6462   4.830   5.328   6.124
18665TIP3    H1 6463   4.874   5.358   6.204
18665TIP3    H2 6464   4.774   5.403   6.100
18666TIP3   OH2 6465   4.285   5.321   7.111
18666TIP3    H1 6466   4.278   5.309   7.015
18666TIP3    H2 6467   4.191   5.312   7.139
18667TIP3   OH2 6468   5.430   3.829   5.767
18667TIP3    H1 6469   5.334   3.838   5.790
18667TIP3    H2 6470   5.452   3.914   5.727
18668TIP3   OH2 6471   4.229   4.704   5.964
18668TIP3    H1 6472   4.201   4.782   5.911
18668TIP3    H2 6473   4.164   4.637   5.939
18669TIP3   OH2 6474   5.540   5.264   5.610
18669TIP3    H1 6475   5.555   5.360   5.614
18669TIP3    H2 6476   5.632   5.234   5.593
18670TIP3   OH2 6477   3.838   4.946   6.852
18670TIP3    H1 6478   3.793   4.938   6.766
18670TIP3    H2 6479   3.846   4.851   6.874
18671TIP3   OH2 6480   3.815   5.220   6.531
18671TIP3    H1 6481   3.911   5.208   6.528
18671TIP3    H2 6482   3.806   5.302   6.581
18672TIP3   OH2 6483   5.638   5.291   7.096
18672TIP3    H1 6484   5.627   5.195   7.097
18672TIP3    H2 6485   5.552   5.316   7.139
18673TIP3   OH2 6486   4.734   5.244   6.984
18673TIP3    H1 6487   4.740   5.328   7.036
18673TIP3    H2 6488   4.647   5.209   7.011
18674TIP3   OH2 6489   4.777   5.619   5.965
18674TIP3    H1 6490   4.768   5.612   5.868
18674TIP3    H2 6491   4.780   5.715   5.980
18675TIP3   OH2 6492   4.142   5.507   6.147
18675TIP3    H1 6493   4.157   5.465   6.235
18675TIP3    H2 6494   4.057   5.466   6.123
18676TIP3   OH2 6495   5.079   5.538   5.660
18676TIP3    H1 6496   5.129   5.464   5.619
18676TIP3    H2 6497   5.088   5.514   5.755
18677TIP3   OH2 6498   5.052   5.534   5.941
18677TIP3    H1 6499   4.957   5.540   5.960
18677TIP3    H2 6500   5.077   5.459   5.998
18678TIP3   OH2 6501   5.353   4.436   7.144
18678TIP3    H1 6502   5.305   4.482   7.074
18678TIP3    H2 6503   5.353   4.344   7.115
18679TIP3   OH2 6504   4.066   5.081   6.946
18679TIP3    H1 6505   4.087   5.046   7.034
18679TIP3    H2 6506   3.980   5.039   6.925
18680TIP3   OH2 6507   4.334   3.925   6.545
18680TIP3    H1 6508   4.245   3.913   6.504
18680TIP3    H2 6509   4.321   4.010   6.590
18681TIP3   OH2 6510   4.799   3.893   6.879
18681TIP3    H1 6511   4.838   3.850   6.958
18681TIP3    H2 6512   4.702   3.881   6.893
18682TIP3   OH2 6513   5.128   4.276   6.968
18682TIP3    H1 6514   5.072   4.257   7.047
18682TIP3    H2 6515   5.111   4.369   6.946
18683TIP3   OH2 6516   5.205   4.755   5.548
18683TIP3    H1 6517   5.206   4.738   5.452
18683TIP3    H2 6518   5.288   4.802   5.562
18684TIP3   OH2 6519   4.762   4.149   5.612
18684TIP3    H1 6520   4.731   4.145   5.705
18684TIP3    H2 6521   4.735   4.062   5.584
18685TIP3   OH2 6522   4.346   4.422   6.667
18685TIP3    H1 6523   4.271   4.421   6.730
18685TIP3    H2 6524   4.340   4.513   6.629
18686TIP3   OH2 6525   4.341   4.435   6.153
18686TIP3    H1 6526   4.247   4.409   6.140
18686TIP3    H2 6527   4.379   4.405   6.068
18687TIP3   OH2 6528   4.893   4.484   6.031
18687TIP3    H1 6529   4.852   4.567   5.996
18687TIP3    H2 6530   4.961   4.468   5.963
18688TIP3   OH2 6531   4.797   4.506   7.176
18688TIP3    H1 6532   4.748   4.427   7.208
18688TIP3    H2 6533   4.883   4.496   7.221
18689TIP3   OH2 6534   4.996   4.434   6.315
18689TIP3    H1 6535   4.968   4.490   6.241
18689TIP3    H2 6536   5.006   4.349   6.268
18690TIP3   OH2 6537   4.107   4.447   6.836
18690TIP3    H1 6538   4.111   4.488   6.923
18690TIP3    H2 6539   4.061   4.364   6.855
18691TIP3   OH2 6540   4.445   4.183   5.519
18691TIP3    H1 6541   4.400   4.145   5.596
18691TIP3    H2 6542   4.376   4.229   5.470
18692TIP3   OH2 6543   3.773   4.159   6.233
18692TIP3    H1 6544   3.841   4.155   6.303
18692TIP3    H2 6545   3.818   4.121   6.156
18693TIP3   OH2 6546   3.903   4.232   5.774
18693TIP3    H1 6547   3.950   4.291   5.712
18693TIP3    H2 6548   3.832   4.295   5.802
18694TIP3   OH2 6549   4.917   4.592   6.771
18694TIP3    H1 6550   4.954   4.524   6.712
18694TIP3    H2 6551   4.872   4.539   6.838
18695TIP3   OH2 6552   4.597   4.196   6.256
18695TIP3    H1 6553   4.504   4.187   6.283
18695TIP3    H2 6554   4.644   4.172   6.337
18696TIP3   OH2 6555   4.078   4.345   6.141
18696TIP3    H1 6556   3.989   4.360   6.102
18696TIP3    H2 6557   4.106   4.262   6.100
18697TIP3   OH2 6558   4.441   4.351   5.905
18697TIP3    H1 6559   4.537   4.360   5.920
18697TIP3    H2 6560   4.418   4.416   5.836
18698TIP3   OH2 6561   5.037   4.113   6.578
18698TIP3    H1 6562   4.969   4.118   6.648
18698TIP3    H2 6563   4.986   4.088   6.499
18699TIP3   OH2 6564   4.313   4.468   5.666
18699TIP3    H1 6565   4.256   4.434   5.595
18699TIP3    H2 6566   4.393   4.489   5.616
18700TIP3   OH2 6567   5.356   5.679   7.214
18700TIP3    H1 6568   5.384   5.714   7.127
18700TIP3    H2 6569   5.432   5.708   7.267
18701TIP3   OH2 6570   4.129   4.917   7.171
18701TIP3    H1 6571   4.195   4.953   7.231
18701TIP3    H2 6572   4.047   4.936   7.223
18702TIP3   OH2 6573   4.725   4.466   6.444
18702TIP3    H1 6574   4.784   4.412   6.390
18702TIP3    H2 6575   4.710   4.411   6.522
18703TIP3   OH2 6576   4.225   4.080   6.086
18703TIP3    H1 6577   4.197   3.987   6.087
18703TIP3    H2 6578   4.305   4.074   6.034
18704TIP3   OH2 6579   4.588   4.297   6.685
18704TIP3    H1 6580   4.506   4.350   6.692
18704TIP3    H2 6581   4.645   4.333   6.756
18705TIP3   OH2 6582   4.648   4.921   5.853
18705TIP3    H1 6583   4.568   4.873   5.822
18705TIP3    H2 6584   4.626   4.932   5.948
18706TIP3   OH2 6585   5.366   4.840   6.735
18706TIP3    H1 6586   5.422   4.889   6.672
18706TIP3    H2 6587   5.280   4.846   6.688
18707TIP3   OH2 6588   5.032   4.201   5.674
18707TIP3    H1 6589   4.938   4.215   5.656
18707TIP3    H2 6590   5.064   4.288   5.704
18708TIP3   OH2 6591   4.795   4.946   6.979
18708TIP3    H1 6592   4.765   4.906   7.060
18708TIP3    H2 6593   4.772   5.039   6.989
18709TIP3   OH2 6594   5.105   4.394   5.840
18709TIP3    H1 6595   5.194   4.380   5.877
18709TIP3    H2 6596   5.113   4.475   5.787
18710TIP3   OH2 6597   4.159   4.860   6.435
18710TIP3    H1 6598   4.227   4.852   6.366
18710TIP3    H2 6599   4.165   4.774   6.480
18711TIP3   OH2 6600   4.857   5.068   5.760
18711TIP3    H1 6601   4.822   5.153   5.796
18711TIP3    H2 6602   4.783   5.006   5.781
18712TIP3   OH2 6603   3.859   4.700   6.961
18712TIP3    H1 6604   3.873   4.655   7.046
18712TIP3    H2 6605   3.796   4.639   6.917
18713TIP3   OH2 6606   4.560   4.652   7.176
18713TIP3    H1 6607   4.548   4.640   7.081
18713TIP3    H2 6608   4.657   4.630   7.184
18714TIP3   OH2 6609   5.027   5.189   6.975
18714TIP3    H1 6610   4.935   5.207   6.949
18714TIP3    H2 6611   5.022   5.219   7.067
18715TIP3   OH2 6612   5.595   4.408   5.812
18715TIP3    H1 6613   5.535   4.379   5.740
18715TIP3    H2 6614   5.600   4.503   5.787
18716TIP3   OH2 6615   5.594   4.992   7.093
18716TIP3    H1 6616   5.505   5.015   7.055
18716TIP3    H2 6617   5.649   4.989   7.012
18717TIP3   OH2 6618   5.424   5.291   5.854
18717TIP3    H1 6619   5.386   5.208   5.886
18717TIP3    H2 6620   5.453   5.272   5.762
18718TIP3   OH2 6621   5.144   4.772   6.563
18718TIP3    H1 6622   5.050   4.751   6.552
18718TIP3    H2 6623   5.187   4.696   6.520
18719TIP3   OH2 6624   4.396   5.205   6.173
18719TIP3    H1 6625   4.446   5.286   6.152
18719TIP3    H2 6626   4.308   5.229   6.140
18720TIP3   OH2 6627   3.985   4.689   5.613
18720TIP3    H1 6628   4.035   4.753   5.665
18720TIP3    H2 6629   3.897   4.713   5.652
18721TIP3   OH2 6630   4.537   4.973   6.125
18721TIP3    H1 6631   4.506   5.065   6.134
18721TIP3    H2 6632   4.465   4.923   6.169
18722TIP3   OH2 6633   4.581   5.392   6.767
18722TIP3    H1 6634   4.630   5.470   6.736
18722TIP3    H2 6635   4.645   5.355   6.832
18723TIP3   OH2 6636   4.405   5.471   6.079
18723TIP3    H1 6637   4.308   5.485   6.091
18723TIP3    H2 6638   4.441   5.555   6.112
18724TIP3   OH2 6639   4.935   4.991   6.727
18724TIP3    H1 6640   4.902   4.971   6.817
18724TIP3    H2 6641   4.999   4.919   6.711
18725TIP3   OH2 6642   5.164   5.095   5.638
18725TIP3    H1 6643   5.197   5.050   5.718
18725TIP3    H2 6644   5.069   5.079   5.647
18726TIP3   OH2 6645   5.215   5.450   6.979
18726TIP3    H1 6646   5.148   5.399   6.929
18726TIP3    H2 6647   5.235   5.518   6.911
18727TIP3   OH2 6648   5.614   5.536   5.659
18727TIP3    H1 6649   5.687   5.599   5.641
18727TIP3    H2 6650   5.543   5.596   5.691
18728TIP3   OH2 6651   4.024   4.176   6.918
18728TIP3    H1 6652   3.932   4.209   6.913
18728TIP3    H2 6653   4.012   4.090   6.961
18729TIP3   OH2 6654   5.246   4.960   5.862
18729TIP3    H1 6655   5.222   4.881   5.915
18729TIP3    H2 6656   5.342   4.965   5.880
18730TIP3   OH2 6657   3.987   5.355   6.759
18730TIP3    H1 6658   4.012   5.261   6.759
18730TIP3    H2 6659   4.007   5.380   6.851
18731TIP3   OH2 6660   4.581   5.201   5.483
18731TIP3    H1 6661   4.595   5.125   5.428
18731TIP3    H2 6662   4.538   5.164   5.563
18732TIP3   OH2 6663   4.460   5.158   5.730
18732TIP3    H1 6664   4.484   5.106   5.808
18732TIP3    H2 6665   4.467   5.251   5.761
18733TIP3   OH2 6666   4.111   4.883   5.777
18733TIP3    H1 6667   4.041   4.923   5.834
18733TIP3    H2 6668   4.163   4.961   5.752
18734TIP3   OH2 6669   4.896   4.151   6.811
18734TIP3    H1 6670   4.967   4.157   6.876
18734TIP3    H2 6671   4.857   4.063   6.831
18735TIP3   OH2 6672   4.969   4.110   5.922
18735TIP3    H1 6673   4.994   4.155   5.839
18735TIP3    H2 6674   5.029   4.153   5.984
18736TIP3   OH2 6675   4.739   5.324   5.799
18736TIP3    H1 6676   4.657   5.376   5.809
18736TIP3    H2 6677   4.791   5.378   5.738
18737TIP3   OH2 6678   4.693   4.283   6.003
18737TIP3    H1 6679   4.772   4.340   6.006
18737TIP3    H2 6680   4.667   4.272   6.096
18738TIP3   OH2 6681   4.748   4.386   6.922
18738TIP3    H1 6682   4.761   4.443   6.999
18738TIP3    H2 6683   4.815   4.316   6.929
18739TIP3   OH2 6684   4.779   3.992   6.090
18739TIP3    H1 6685   4.745   4.055   6.155
18739TIP3    H2 6686   4.848   4.044   6.045
18740TIP3   OH2 6687   4.477   5.428   5.806
18740TIP3    H1 6688   4.491   5.510   5.753
18740TIP3    H2 6689   4.451   5.464   5.893
18741TIP3   OH2 6690   4.344   4.098   5.766
18741TIP3    H1 6691   4.339   4.190   5.798
18741TIP3    H2 6692   4.436   4.074   5.790
18742TIP3   OH2 6693   5.366   4.172   7.006
18742TIP3    H1 6694   5.273   4.203   6.994
18742TIP3    H2 6695   5.396   4.172   6.915
18743TIP3   OH2 6696   5.227   4.552   6.407
18743TIP3    H1 6697   5.145   4.508   6.379
18743TIP3    H2 6698   5.274   4.484   6.460
18744TIP3   OH2 6699   4.171   5.144   5.668
18744TIP3    H1 6700   4.235   5.209   5.697
18744TIP3    H2 6701   4.219   5.097   5.597
18745TIP3   OH2 6702   4.006   4.410   5.584
18745TIP3    H1 6703   4.003   4.507   5.597
18745TIP3    H2 6704   3.917   4.392   5.550
18746TIP3   OH2 6705   5.334   5.477   6.574
18746TIP3    H1 6706   5.325   5.545   6.505
18746TIP3    H2 6707   5.430   5.483   6.592
18747TIP3   OH2 6708   4.084   3.889   6.454
18747TIP3    H1 6709   4.064   3.892   6.358
18747TIP3    H2 6710   4.042   3.805   6.480
18748TIP3   OH2 6711   3.979   5.282   6.068
18748TIP3    H1 6712   3.894   5.327   6.065
18748TIP3    H2 6713   4.027   5.329   5.998
18749TIP3   OH2 6714   3.939   5.479   7.175
18749TIP3    H1 6715   3.955   5.529   7.259
18749TIP3    H2 6716   3.846   5.456   7.182
18750TIP3   OH2 6717   4.368   5.433   7.360
18750TIP3    H1 6718   4.447   5.388   7.389
18750TIP3    H2 6719   4.362   5.410   7.265
18751TIP3   OH2 6720   4.779   5.389   5.497
18751TIP3    H1 6721   4.708   5.325   5.519
18751TIP3    H2 6722   4.852   5.331   5.475
18752TIP3   OH2 6723   5.016   5.279   7.237
18752TIP3    H1 6724   4.984   5.188   7.256
18752TIP3    H2 6725   5.099   5.283   7.286
18753TIP3   OH2 6726   5.238   5.368   5.519
18753TIP3    H1 6727   5.263   5.285   5.565
18753TIP3    H2 6728   5.315   5.385   5.465
18754TIP3   OH2 6729   3.889   4.921   7.299
18754TIP3    H1 6730   3.907   4.832   7.264
18754TIP3    H2 6731   3.819   4.952   7.239
18755TIP3   OH2 6732   4.329   4.958   5.503
18755TIP3    H1 6733   4.339   4.881   5.560
18755TIP3    H2 6734   4.395   4.944   5.434
18756TIP3   OH2 6735   4.562   4.922   7.235
18756TIP3    H1 6736   4.530   4.956   7.150
18756TIP3    H2 6737   4.573   4.825   7.223
18757TIP3   OH2 6738   4.862   5.066   5.478
18757TIP3    H1 6739   4.840   5.080   5.572
18757TIP3    H2 6740   4.847   4.971   5.467
18758TIP3   OH2 6741   5.132   4.909   6.976
18758TIP3    H1 6742   5.210   4.967   6.967
18758TIP3    H2 6743   5.061   4.975   6.978
18759TIP3   OH2 6744   3.986   4.649   7.237
18759TIP3    H1 6745   4.019   4.559   7.224
18759TIP3    H2 6746   3.955   4.647   7.328
18760TIP3   OH2 6747   4.447   4.761   5.742
18760TIP3    H1 6748   4.396   4.707   5.804
18760TIP3    H2 6749   4.476   4.692   5.676
18761TIP3   OH2 6750   4.357   4.541   6.934
18761TIP3    H1 6751   4.306   4.618   6.965
18761TIP3    H2 6752   4.419   4.585   6.870
18762TIP3   OH2 6753   4.554   4.590   5.562
18762TIP3    H1 6754   4.538   4.565   5.470
18762TIP3    H2 6755   4.652   4.588   5.571
18763TIP3   OH2 6756   4.878   4.798   7.308
18763TIP3    H1 6757   4.974   4.796   7.294
18763TIP3    H2 6758   4.865   4.721   7.366
18764TIP3   OH2 6759   5.487   4.818   5.506
18764TIP3    H1 6760   5.464   4.777   5.422
18764TIP3    H2 6761   5.496   4.912   5.483
18765TIP3   OH2 6762   4.413   4.287   7.075
18765TIP3    H1 6763   4.424   4.208   7.017
18765TIP3    H2 6764   4.408   4.355   7.007
18766TIP3   OH2 6765   4.452   4.121   6.834
18766TIP3    H1 6766   4.504   4.162   6.760
18766TIP3    H2 6767   4.365   4.108   6.791
18767TIP3   OH2 6768   4.606   4.666   6.857
18767TIP3    H1 6769   4.682   4.649   6.799
18767TIP3    H2 6770   4.572   4.750   6.821
18768TIP3   OH2 6771   5.046   4.441   7.350
18768TIP3    H1 6772   5.070   4.348   7.347
18768TIP3    H2 6773   5.132   4.485   7.358
18769TIP3   OH2 6774   5.181   4.721   7.166
18769TIP3    H1 6775   5.156   4.793   7.105
18769TIP3    H2 6776   5.277   4.717   7.149
18770TIP3   OH2 6777   4.255   4.406   7.263
18770TIP3    H1 6778   4.179   4.345   7.255
18770TIP3    H2 6779   4.321   4.354   7.214
18771TIP3   OH2 6780   4.532   3.861   6.870
18771TIP3    H1 6781   4.515   3.957   6.860
18771TIP3    H2 6782   4.457   3.824   6.821
18772TIP3   OH2 6783   4.656   4.295   7.232
18772TIP3    H1 6784   4.634   4.271   7.323
18772TIP3    H2 6785   4.579   4.269   7.180
18773TIP3   OH2 6786   4.932   4.207   7.141
18773TIP3    H1 6787   4.836   4.211   7.154
18773TIP3    H2 6788   4.960   4.144   7.209
18774TIP3   OH2 6789   5.090   4.071   7.336
18774TIP3    H1 6790   5.083   3.973   7.334
18774TIP3    H2 6791   5.060   4.097   7.423
18775TIP3   OH2 6792   4.072   4.198   7.243
18775TIP3    H1 6793   4.092   4.123   7.183
18775TIP3    H2 6794   4.058   4.152   7.327
18776TIP3   OH2 6795   4.556   3.801   7.141
18776TIP3    H1 6796   4.622   3.729   7.138
18776TIP3    H2 6797   4.542   3.815   7.046
18777TIP3   OH2 6798   4.592   3.969   7.349
18777TIP3    H1 6799   4.575   3.910   7.271
18777TIP3    H2 6800   4.524   4.035   7.338
18778TIP3   OH2 6801   4.538   5.657   5.670
18778TIP3    H1 6802   4.635   5.661   5.674
18778TIP3    H2 6803   4.519   5.715   5.597
18779TIP3   OH2 6804   3.896   5.113   5.617
18779TIP3    H1 6805   3.992   5.120   5.639
18779TIP3    H2 6806   3.899   5.049   5.545
18780TIP3   OH2 6807   3.770   5.649   6.114
18780TIP3    H1 6808   3.699   5.600   6.066
18780TIP3    H2 6809   3.798   5.583   6.180
18781TIP3   OH2 6810   3.853   5.462   6.301
18781TIP3    H1 6811   3.817   5.374   6.320
18781TIP3    H2 6812   3.875   5.495   6.389
18782TIP3   OH2 6813   5.606   5.542   6.594
18782TIP3    H1 6814   5.609   5.558   6.690
18782TIP3    H2 6815   5.677   5.600   6.563
18783TIP3   OH2 6816   5.564   5.502   6.887
18783TIP3    H1 6817   5.516   5.424   6.851
18783TIP3    H2 6818   5.614   5.457   6.958
18784TIP3   OH2 6819   5.407   5.075   7.350
18784TIP3    H1 6820   5.322   5.066   7.392
18784TIP3    H2 6821   5.448   5.152   7.396
18785TIP3   OH2 6822   5.541   4.905   5.897
18785TIP3    H1 6823   5.625   4.947   5.918
18785TIP3    H2 6824   5.538   4.835   5.966
18786TIP3   OH2 6825   5.576   4.713   6.087
18786TIP3    H1 6826   5.501   4.663   6.125
18786TIP3    H2 6827   5.635   4.727   6.164
18787TIP3   OH2 6828   5.551   4.983   6.585
18787TIP3    H1 6829   5.633   4.946   6.548
18787TIP3    H2 6830   5.566   5.079   6.568
18788TIP3   OH2 6831   5.407   5.274   6.812
18788TIP3    H1 6832   5.338   5.308   6.871
18788TIP3    H2 6833   5.352   5.233   6.741
18789TIP3   OH2 6834   5.608   4.697   5.723
18789TIP3    H1 6835   5.549   4.732   5.653
18789TIP3    H2 6836   5.597   4.766   5.791
18790TIP3   OH2 6837   5.439   4.418   5.582
18790TIP3    H1 6838   5.450   4.484   5.513
18790TIP3    H2 6839   5.424   4.336   5.530
18791TIP3   OH2 6840   5.357   4.562   6.144
18791TIP3    H1 6841   5.341   4.467   6.139
18791TIP3    H2 6842   5.324   4.584   6.232
18792TIP3   OH2 6843   3.858   4.769   6.550
18792TIP3    H1 6844   3.876   4.762   6.454
18792TIP3    H2 6845   3.948   4.752   6.586
18793TIP3   OH2 6846   5.443   4.759   7.114
18793TIP3    H1 6847   5.504   4.683   7.126
18793TIP3    H2 6848   5.504   4.835   7.111
18794TIP3   OH2 6849   5.594   4.547   7.175
18794TIP3    H1 6850   5.505   4.507   7.162
18794TIP3    H2 6851   5.651   4.469   7.170
18795TIP3   OH2 6852   5.366   4.168   5.495
18795TIP3    H1 6853   5.425   4.120   5.556
18795TIP3    H2 6854   5.280   4.125   5.508
18796TIP3   OH2 6855   5.326   4.320   5.994
18796TIP3    H1 6856   5.354   4.226   6.001
18796TIP3    H2 6857   5.403   4.360   5.950
18797TIP3   OH2 6858   5.390   4.370   6.534
18797TIP3    H1 6859   5.484   4.401   6.533
18797TIP3    H2 6860   5.368   4.389   6.627
18798TIP3   OH2 6861   5.395   4.446   6.812
18798TIP3    H1 6862   5.307   4.475   6.844
18798TIP3    H2 6863   5.438   4.532   6.790
18799TIP3   OH2 6864   3.819   4.299   7.164
18799TIP3    H1 6865   3.912   4.279   7.183
18799TIP3    H2 6866   3.773   4.217   7.194
18800TIP3   OH2 6867   5.560   3.895   7.329
18800TIP3    H1 6868   5.610   3.812   7.307
18800TIP3    H2 6869   5.630   3.953   7.296
18801TIP3   OH2 6870   5.391   4.046   5.995
18801TIP3    H1 6871   5.409   4.001   6.079
18801TIP3    H2 6872   5.329   3.985   5.949
18802TIP3   OH2 6873   3.940   4.129   6.450
18802TIP3    H1 6874   3.986   4.046   6.476
18802TIP3    H2 6875   3.994   4.198   6.489
18803TIP3   OH2 6876   3.768   4.429   6.554
18803TIP3    H1 6877   3.824   4.404   6.478
18803TIP3    H2 6878   3.814   4.510   6.581
18804TIP3   OH2 6879   5.579   4.082   7.163
18804TIP3    H1 6880   5.482   4.090   7.174
18804TIP3    H2 6881   5.578   4.007   7.102
18805TIP3   OH2 6882   5.574   4.054   5.648
18805TIP3    H1 6883   5.615   3.980   5.601
18805TIP3    H2 6884   5.645   4.119   5.654
18806TIP3   OH2 6885   3.805   4.054   5.960
18806TIP3    H1 6886   3.711   4.074   5.948
18806TIP3    H2 6887   3.847   4.105   5.889
18807TIP3   OH2 6888   5.278   5.550   6.156
18807TIP3    H1 6889   5.347   5.519   6.094
18807TIP3    H2 6890   5.330   5.600   6.221
18808TIP3   OH2 6891   3.800   3.921   6.791
18808TIP3    H1 6892   3.733   3.901   6.859
18808TIP3    H2 6893   3.754   3.988   6.737
18809TIP3   OH2 6894   4.021   5.225   7.211
18809TIP3    H1 6895   3.945   5.269   7.166
18809TIP3    H2 6896   3.997   5.239   7.302
18810TIP3   OH2 6897   4.314   5.341   6.836
18810TIP3    H1 6898   4.279   5.425   6.806
18810TIP3    H2 6899   4.407   5.348   6.804
18811TIP3   OH2 6900   4.747   5.483   7.127
18811TIP3    H1 6901   4.762   5.448   7.217
18811TIP3    H2 6902   4.836   5.513   7.099
18812TIP3   OH2 6903   4.974   5.608   7.059
18812TIP3    H1 6904   5.048   5.552   7.030
18812TIP3    H2 6905   5.013   5.654   7.135
18813TIP3   OH2 6906   5.475   3.872   6.966
18813TIP3    H1 6907   5.392   3.900   6.926
18813TIP3    H2 6908   5.493   3.788   6.917
18814TIP3   OH2 6909   4.060   5.672   6.838
18814TIP3    H1 6910   3.980   5.709   6.796
18814TIP3    H2 6911   4.023   5.641   6.924
18815TIP3   OH2 6912   4.304   5.628   6.744
18815TIP3    H1 6913   4.209   5.622   6.770
18815TIP3    H2 6914   4.298   5.675   6.657
18816TIP3   OH2 6915   4.770   5.612   6.661
18816TIP3    H1 6916   4.729   5.668   6.593
18816TIP3    H2 6917   4.789   5.677   6.732
18817TIP3   OH2 6918   5.003   5.495   6.761
18817TIP3    H1 6919   4.917   5.522   6.725
18817TIP3    H2 6920   5.051   5.579   6.752
18818TIP3   OH2 6921   5.260   5.652   6.784
18818TIP3    H1 6922   5.254   5.748   6.762
18818TIP3    H2 6923   5.282   5.615   6.696
18819TIP3   OH2 6924   4.004   5.533   6.532
18819TIP3    H1 6925   3.993   5.482   6.615
18819TIP3    H2 6926   4.082   5.491   6.489
18820TIP3   OH2 6927   4.209   5.400   6.394
18820TIP3    H1 6928   4.192   5.307   6.417
18820TIP3    H2 6929   4.295   5.415   6.438
18821TIP3   OH2 6930   4.468   5.449   6.483
18821TIP3    H1 6931   4.485   5.358   6.455
18821TIP3    H2 6932   4.475   5.442   6.579
18822TIP3   OH2 6933   4.817   4.014   6.398
18822TIP3    H1 6934   4.747   3.950   6.421
18822TIP3    H2 6935   4.868   3.961   6.335
18823TIP3   OH2 6936   5.330   3.822   6.405
18823TIP3    H1 6937   5.387   3.877   6.347
18823TIP3    H2 6938   5.240   3.852   6.380
18824TIP3   OH2 6939   5.498   3.942   6.233
18824TIP3    H1 6940   5.559   3.881   6.181
18824TIP3    H2 6941   5.536   4.030   6.217
18825TIP3   OH2 6942   4.052   3.877   6.180
18825TIP3    H1 6943   3.973   3.856   6.127
18825TIP3    H2 6944   4.100   3.791   6.175
18826TIP3   OH2 6945   3.926   3.852   5.749
18826TIP3    H1 6946   3.978   3.917   5.698
18826TIP3    H2 6947   3.873   3.909   5.808
18827TIP3   OH2 6948   4.489   3.906   6.168
18827TIP3    H1 6949   4.584   3.900   6.148
18827TIP3    H2 6950   4.494   3.844   6.242
18828TIP3   OH2 6951   5.075   3.871   6.321
18828TIP3    H1 6952   5.063   3.882   6.226
18828TIP3    H2 6953   5.031   3.782   6.334
18829TIP3   OH2 6954   5.197   3.874   5.888
18829TIP3    H1 6955   5.123   3.934   5.872
18829TIP3    H2 6956   5.152   3.789   5.912
18830TIP3   OH2 6957   3.921   5.447   5.852
18830TIP3    H1 6958   3.853   5.447   5.782
18830TIP3    H2 6959   3.923   5.543   5.870
18831TIP3   OH2 6960   4.110   4.041   5.606
18831TIP3    H1 6961   4.166   3.986   5.552
18831TIP3    H2 6962   4.176   4.081   5.665
18832TIP3   OH2 6963   4.615   4.072   5.844
18832TIP3    H1 6964   4.640   4.013   5.917
18832TIP3    H2 6965   4.621   4.157   5.893
18833TIP3   OH2 6966   4.806   5.582   5.685
18833TIP3    H1 6967   4.900   5.599   5.669
18833TIP3    H2 6968   4.787   5.524   5.608
18834TIP3   OH2 6969   5.478   5.529   5.960
18834TIP3    H1 6970   5.458   5.451   5.902
18834TIP3    H2 6971   5.469   5.602   5.896
18835TIP3   OH2 6972   4.038   3.931   7.126
18835TIP3    H1 6973   4.002   3.850   7.168
18835TIP3    H2 6974   4.131   3.925   7.161
18836TIP3   OH2 6975   4.241   3.867   7.281
18836TIP3    H1 6976   4.331   3.834   7.268
18836TIP3    H2 6977   4.204   3.790   7.329
18837TIP3   OH2 6978   4.103   5.547   5.549
18837TIP3    H1 6979   4.074   5.572   5.637
18837TIP3    H2 6980   4.177   5.488   5.567
18838TIP3   OH2 6981   5.084   3.798   7.305
18838TIP3    H1 6982   5.091   3.747   7.386
18838TIP3    H2 6983   5.175   3.792   7.270
18839TIP3   OH2 6984   5.398   5.401   7.173
18839TIP3    H1 6985   5.323   5.389   7.112
18839TIP3    H2 6986   5.392   5.497   7.188
18840TIP3   OH2 6987   6.846   4.790   6.166
18840TIP3    H1 6988   6.846   4.889   6.162
18840TIP3    H2 6989   6.774   4.767   6.106
18841TIP3   OH2 6990   6.731   4.716   6.517
18841TIP3    H1 6991   6.731   4.651   6.588
18841TIP3    H2 6992   6.698   4.666   6.441
18842TIP3   OH2 6993   5.967   4.683   6.672
18842TIP3    H1 6994   5.976   4.615   6.741
18842TIP3    H2 6995   6.042   4.741   6.694
18843TIP3   OH2 6996   7.101   5.010   6.346
18843TIP3    H1 6997   7.059   4.939   6.394
18843TIP3    H2 6998   7.103   5.082   6.412
18844TIP3   OH2 6999   6.060   5.128   6.522
18844TIP3    H1 7000   6.029   5.042   6.490
18844TIP3    H2 7001   6.156   5.110   6.527
18845TIP3   OH2 7002   5.725   4.483   6.070
18845TIP3    H1 7003   5.682   4.570   6.064
18845TIP3    H2 7004   5.666   4.431   6.013
18846TIP3   OH2 7005   5.795   4.707   6.285
18846TIP3    H1 7006   5.822   4.625   6.330
18846TIP3    H2 7007   5.865   4.717   6.219
18847TIP3   OH2 7008   6.812   5.527   6.368
18847TIP3    H1 7009   6.877   5.457   6.340
18847TIP3    H2 7010   6.792   5.494   6.456
18848TIP3   OH2 7011   6.570   4.956   6.563
18848TIP3    H1 7012   6.604   4.893   6.497
18848TIP3    H2 7013   6.650   4.972   6.615
18849TIP3   OH2 7014   7.430   4.122   6.636
18849TIP3    H1 7015   7.446   4.181   6.713
18849TIP3    H2 7016   7.486   4.165   6.570
18850TIP3   OH2 7017   6.886   4.403   6.594
18850TIP3    H1 7018   6.903   4.307   6.595
18850TIP3    H2 7019   6.876   4.417   6.498
18851TIP3   OH2 7020   6.199   4.212   6.316
18851TIP3    H1 7021   6.208   4.296   6.267
18851TIP3    H2 7022   6.160   4.155   6.247
18852TIP3   OH2 7023   6.971   4.220   6.154
18852TIP3    H1 7024   7.037   4.189   6.220
18852TIP3    H2 7025   7.028   4.277   6.099
18853TIP3   OH2 7026   5.857   4.448   6.390
18853TIP3    H1 7027   5.929   4.400   6.435
18853TIP3    H2 7028   5.873   4.424   6.297
18854TIP3   OH2 7029   6.376   4.608   6.321
18854TIP3    H1 7030   6.443   4.550   6.362
18854TIP3    H2 7031   6.324   4.542   6.271
18855TIP3   OH2 7032   7.475   4.263   6.864
18855TIP3    H1 7033   7.414   4.339   6.852
18855TIP3    H2 7034   7.477   4.253   6.960
18856TIP3   OH2 7035   6.086   4.100   6.719
18856TIP3    H1 7036   6.061   4.160   6.646
18856TIP3    H2 7037   6.021   4.125   6.789
18857TIP3   OH2 7038   6.818   5.050   6.075
18857TIP3    H1 7039   6.791   5.022   5.986
18857TIP3    H2 7040   6.787   5.143   6.080
18858TIP3   OH2 7041   6.340   4.866   6.745
18858TIP3    H1 7042   6.269   4.930   6.766
18858TIP3    H2 7043   6.411   4.926   6.716
18859TIP3   OH2 7044   7.152   4.154   6.353
18859TIP3    H1 7045   7.131   4.078   6.406
18859TIP3    H2 7046   7.219   4.198   6.408
18860TIP3   OH2 7047   6.043   4.286   6.521
18860TIP3    H1 7048   6.106   4.355   6.555
18860TIP3    H2 7049   6.098   4.246   6.450
18861TIP3   OH2 7050   6.185   5.067   6.826
18861TIP3    H1 7051   6.180   5.158   6.792
18861TIP3    H2 7052   6.096   5.059   6.871
18862TIP3   OH2 7053   5.791   5.028   5.905
18862TIP3    H1 7054   5.769   5.061   5.816
18862TIP3    H2 7055   5.799   5.112   5.956
18863TIP3   OH2 7056   7.154   5.195   6.581
18863TIP3    H1 7057   7.057   5.206   6.593
18863TIP3    H2 7058   7.181   5.286   6.561
18864TIP3   OH2 7059   7.185   4.023   6.720
18864TIP3    H1 7060   7.113   4.087   6.711
18864TIP3    H2 7061   7.256   4.065   6.668
18865TIP3   OH2 7062   6.483   3.835   6.467
18865TIP3    H1 7063   6.469   3.739   6.460
18865TIP3    H2 7064   6.395   3.866   6.497
18866TIP3   OH2 7065   6.980   5.373   6.240
18866TIP3    H1 7066   7.023   5.301   6.190
18866TIP3    H2 7067   7.022   5.452   6.201
18867TIP3   OH2 7068   7.100   5.166   6.092
18867TIP3    H1 7069   7.072   5.096   6.030
18867TIP3    H2 7070   7.104   5.116   6.176
18868TIP3   OH2 7071   7.261   5.026   6.942
18868TIP3    H1 7072   7.277   4.960   6.871
18868TIP3    H2 7073   7.284   5.110   6.897
18869TIP3   OH2 7074   6.712   4.713   5.918
18869TIP3    H1 7075   6.643   4.771   5.882
18869TIP3    H2 7076   6.783   4.723   5.852
18870TIP3   OH2 7077   6.719   4.569   5.623
18870TIP3    H1 7078   6.790   4.568   5.689
18870TIP3    H2 7079   6.749   4.499   5.564
18871TIP3   OH2 7080   7.451   4.656   6.746
18871TIP3    H1 7081   7.385   4.729   6.750
18871TIP3    H2 7082   7.499   4.680   6.665
18872TIP3   OH2 7083   7.057   4.737   6.012
18872TIP3    H1 7084   6.981   4.760   6.071
18872TIP3    H2 7085   7.104   4.667   6.062
18873TIP3   OH2 7086   7.049   4.552   6.923
18873TIP3    H1 7087   7.051   4.634   6.975
18873TIP3    H2 7088   6.987   4.581   6.853
18874TIP3   OH2 7089   6.217   4.801   6.201
18874TIP3    H1 7090   6.186   4.762   6.116
18874TIP3    H2 7091   6.279   4.732   6.235
18875TIP3   OH2 7092   6.350   5.140   6.469
18875TIP3    H1 7093   6.349   5.087   6.389
18875TIP3    H2 7094   6.428   5.104   6.515
18876TIP3   OH2 7095   6.251   4.676   6.567
18876TIP3    H1 7096   6.307   4.687   6.488
18876TIP3    H2 7097   6.290   4.742   6.629
18877TIP3   OH2 7098   6.892   5.233   6.639
18877TIP3    H1 7099   6.863   5.297   6.704
18877TIP3    H2 7100   6.867   5.147   6.681
18878TIP3   OH2 7101   6.345   5.119   7.040
18878TIP3    H1 7102   6.305   5.196   7.085
18878TIP3    H2 7103   6.279   5.099   6.969
18879TIP3   OH2 7104   6.944   4.654   5.778
18879TIP3    H1 7105   7.000   4.672   5.858
18879TIP3    H2 7106   6.986   4.706   5.706
18880TIP3   OH2 7107   6.039   4.734   6.957
18880TIP3    H1 7108   6.045   4.802   7.026
18880TIP3    H2 7109   5.947   4.745   6.930
18881TIP3   OH2 7110   6.716   5.328   6.124
18881TIP3    H1 7111   6.759   5.358   6.204
18881TIP3    H2 7112   6.660   5.403   6.100
18882TIP3   OH2 7113   6.171   5.322   7.110
18882TIP3    H1 7114   6.164   5.312   7.014
18882TIP3    H2 7115   6.078   5.310   7.139
18883TIP3   OH2 7116   7.316   3.829   5.768
18883TIP3    H1 7117   7.221   3.839   5.791
18883TIP3    H2 7118   7.337   3.913   5.725
18884TIP3   OH2 7119   6.117   4.702   5.960
18884TIP3    H1 7120   6.087   4.783   5.912
18884TIP3    H2 7121   6.048   4.639   5.941
18885TIP3   OH2 7122   7.424   5.282   5.633
18885TIP3    H1 7123   7.445   5.374   5.614
18885TIP3    H2 7124   7.499   5.235   5.589
18886TIP3   OH2 7125   5.724   4.947   6.852
18886TIP3    H1 7126   5.679   4.938   6.766
18886TIP3    H2 7127   5.731   4.852   6.874
18887TIP3   OH2 7128   5.700   5.220   6.530
18887TIP3    H1 7129   5.796   5.208   6.528
18887TIP3    H2 7130   5.692   5.302   6.581
18888TIP3   OH2 7131   7.524   5.291   7.096
18888TIP3    H1 7132   7.512   5.194   7.097
18888TIP3    H2 7133   7.439   5.316   7.139
18889TIP3   OH2 7134   6.622   5.242   6.990
18889TIP3    H1 7135   6.625   5.330   7.035
18889TIP3    H2 7136   6.531   5.210   7.009
18890TIP3   OH2 7137   6.660   5.620   5.964
18890TIP3    H1 7138   6.656   5.611   5.868
18890TIP3    H2 7139   6.668   5.716   5.981
18891TIP3   OH2 7140   6.028   5.506   6.147
18891TIP3    H1 7141   6.042   5.465   6.235
18891TIP3    H2 7142   5.943   5.466   6.123
18892TIP3   OH2 7143   6.962   5.537   5.662
18892TIP3    H1 7144   7.015   5.466   5.617
18892TIP3    H2 7145   6.975   5.513   5.755
18893TIP3   OH2 7146   6.938   5.533   5.941
18893TIP3    H1 7147   6.843   5.540   5.960
18893TIP3    H2 7148   6.963   5.458   5.999
18894TIP3   OH2 7149   7.240   4.437   7.141
18894TIP3    H1 7150   7.190   4.482   7.072
18894TIP3    H2 7151   7.238   4.344   7.114
18895TIP3   OH2 7152   5.953   5.077   6.947
18895TIP3    H1 7153   5.975   5.041   7.035
18895TIP3    H2 7154   5.866   5.038   6.926
18896TIP3   OH2 7155   6.222   3.925   6.543
18896TIP3    H1 7156   6.132   3.912   6.506
18896TIP3    H2 7157   6.208   4.008   6.590
18897TIP3   OH2 7158   6.685   3.892   6.879
18897TIP3    H1 7159   6.724   3.851   6.958
18897TIP3    H2 7160   6.588   3.880   6.893
18898TIP3   OH2 7161   7.014   4.277   6.968
18898TIP3    H1 7162   6.958   4.255   7.046
18898TIP3    H2 7163   6.996   4.369   6.945
18899TIP3   OH2 7164   7.088   4.755   5.548
18899TIP3    H1 7165   7.092   4.740   5.452
18899TIP3    H2 7166   7.172   4.802   5.562
18900TIP3   OH2 7167   6.648   4.149   5.612
18900TIP3    H1 7168   6.617   4.146   5.704
18900TIP3    H2 7169   6.621   4.062   5.584
18901TIP3   OH2 7170   6.230   4.422   6.667
18901TIP3    H1 7171   6.157   4.421   6.731
18901TIP3    H2 7172   6.226   4.514   6.630
18902TIP3   OH2 7173   6.226   4.436   6.152
18902TIP3    H1 7174   6.133   4.409   6.141
18902TIP3    H2 7175   6.265   4.405   6.069
18903TIP3   OH2 7176   6.778   4.484   6.030
18903TIP3    H1 7177   6.739   4.568   5.996
18903TIP3    H2 7178   6.847   4.468   5.963
18904TIP3   OH2 7179   6.684   4.507   7.175
18904TIP3    H1 7180   6.631   4.429   7.204
18904TIP3    H2 7181   6.768   4.494   7.221
18905TIP3   OH2 7182   6.882   4.434   6.315
18905TIP3    H1 7183   6.854   4.490   6.241
18905TIP3    H2 7184   6.892   4.349   6.268
18906TIP3   OH2 7185   5.993   4.448   6.836
18906TIP3    H1 7186   6.001   4.489   6.924
18906TIP3    H2 7187   5.949   4.364   6.856
18907TIP3   OH2 7188   6.331   4.188   5.521
18907TIP3    H1 7189   6.288   4.141   5.595
18907TIP3    H2 7190   6.263   4.224   5.464
18908TIP3   OH2 7191   5.661   4.161   6.226
18908TIP3    H1 7192   5.735   4.176   6.288
18908TIP3    H2 7193   5.706   4.126   6.146
18909TIP3   OH2 7194   5.790   4.233   5.775
18909TIP3    H1 7195   5.827   4.296   5.712
18909TIP3    H2 7196   5.716   4.291   5.806
18910TIP3   OH2 7197   6.802   4.592   6.771
18910TIP3    H1 7198   6.840   4.524   6.712
18910TIP3    H2 7199   6.756   4.539   6.838
18911TIP3   OH2 7200   6.483   4.190   6.254
18911TIP3    H1 7201   6.389   4.190   6.283
18911TIP3    H2 7202   6.531   4.174   6.336
18912TIP3   OH2 7203   5.962   4.343   6.141
18912TIP3    H1 7204   5.874   4.361   6.101
18912TIP3    H2 7205   5.993   4.262   6.099
18913TIP3   OH2 7206   6.326   4.349   5.901
18913TIP3    H1 7207   6.422   4.359   5.921
18913TIP3    H2 7208   6.306   4.419   5.837
18914TIP3   OH2 7209   6.923   4.113   6.578
18914TIP3    H1 7210   6.854   4.119   6.648
18914TIP3    H2 7211   6.872   4.088   6.500
18915TIP3   OH2 7212   6.205   4.468   5.665
18915TIP3    H1 7213   6.162   4.451   5.583
18915TIP3    H2 7214   6.289   4.495   5.623
18916TIP3   OH2 7215   7.242   5.680   7.214
18916TIP3    H1 7216   7.271   5.714   7.127
18916TIP3    H2 7217   7.318   5.707   7.269
18917TIP3   OH2 7218   6.011   4.923   7.169
18917TIP3    H1 7219   6.082   4.951   7.230
18917TIP3    H2 7220   5.932   4.935   7.226
18918TIP3   OH2 7221   6.610   4.465   6.443
18918TIP3    H1 7222   6.671   4.412   6.390
18918TIP3    H2 7223   6.596   4.411   6.522
18919TIP3   OH2 7224   6.108   4.080   6.084
18919TIP3    H1 7225   6.082   3.987   6.085
18919TIP3    H2 7226   6.191   4.073   6.034
18920TIP3   OH2 7227   6.474   4.298   6.685
18920TIP3    H1 7228   6.392   4.350   6.694
18920TIP3    H2 7229   6.530   4.333   6.757
18921TIP3   OH2 7230   6.533   4.921   5.853
18921TIP3    H1 7231   6.453   4.874   5.822
18921TIP3    H2 7232   6.512   4.933   5.948
18922TIP3   OH2 7233   7.251   4.841   6.735
18922TIP3    H1 7234   7.308   4.889   6.672
18922TIP3    H2 7235   7.165   4.846   6.688
18923TIP3   OH2 7236   6.917   4.199   5.675
18923TIP3    H1 7237   6.823   4.215   5.655
18923TIP3    H2 7238   6.949   4.287   5.704
18924TIP3   OH2 7239   6.687   4.948   6.982
18924TIP3    H1 7240   6.646   4.903   7.057
18924TIP3    H2 7241   6.653   5.039   6.988
18925TIP3   OH2 7242   6.990   4.394   5.839
18925TIP3    H1 7243   7.080   4.380   5.877
18925TIP3    H2 7244   6.999   4.475   5.787
18926TIP3   OH2 7245   6.044   4.860   6.435
18926TIP3    H1 7246   6.113   4.852   6.366
18926TIP3    H2 7247   6.050   4.774   6.480
18927TIP3   OH2 7248   6.742   5.067   5.760
18927TIP3    H1 7249   6.708   5.152   5.796
18927TIP3    H2 7250   6.668   5.006   5.781
18928TIP3   OH2 7251   5.743   4.701   6.961
18928TIP3    H1 7252   5.761   4.656   7.046
18928TIP3    H2 7253   5.681   4.639   6.917
18929TIP3   OH2 7254   6.444   4.657   7.180
18929TIP3    H1 7255   6.413   4.627   7.092
18929TIP3    H2 7256   6.537   4.627   7.177
18930TIP3   OH2 7257   6.912   5.187   6.975
18930TIP3    H1 7258   6.821   5.208   6.947
18930TIP3    H2 7259   6.909   5.225   7.064
18931TIP3   OH2 7260   7.479   4.408   5.813
18931TIP3    H1 7261   7.422   4.378   5.740
18931TIP3    H2 7262   7.487   4.502   5.786
18932TIP3   OH2 7263   7.479   4.993   7.093
18932TIP3    H1 7264   7.390   5.015   7.055
18932TIP3    H2 7265   7.534   4.990   7.012
18933TIP3   OH2 7266   7.304   5.292   5.858
18933TIP3    H1 7267   7.272   5.206   5.885
18933TIP3    H2 7268   7.341   5.275   5.767
18934TIP3   OH2 7269   7.029   4.772   6.563
18934TIP3    H1 7270   6.935   4.751   6.552
18934TIP3    H2 7271   7.072   4.696   6.520
18935TIP3   OH2 7272   6.281   5.205   6.173
18935TIP3    H1 7273   6.331   5.285   6.152
18935TIP3    H2 7274   6.193   5.229   6.140
18936TIP3   OH2 7275   5.857   4.690   5.625
18936TIP3    H1 7276   5.916   4.755   5.666
18936TIP3    H2 7277   5.770   4.720   5.659
18937TIP3   OH2 7278   6.423   4.972   6.124
18937TIP3    H1 7279   6.392   5.064   6.134
18937TIP3    H2 7280   6.351   4.923   6.169
18938TIP3   OH2 7281   6.469   5.390   6.766
18938TIP3    H1 7282   6.514   5.471   6.737
18938TIP3    H2 7283   6.530   5.357   6.833
18939TIP3   OH2 7284   6.291   5.473   6.076
18939TIP3    H1 7285   6.195   5.484   6.091
18939TIP3    H2 7286   6.327   5.555   6.115
18940TIP3   OH2 7287   6.821   4.990   6.726
18940TIP3    H1 7288   6.787   4.971   6.816
18940TIP3    H2 7289   6.885   4.919   6.710
18941TIP3   OH2 7290   7.048   5.096   5.639
18941TIP3    H1 7291   7.083   5.049   5.717
18941TIP3    H2 7292   6.954   5.078   5.647
18942TIP3   OH2 7293   7.101   5.447   6.978
18942TIP3    H1 7294   7.033   5.399   6.927
18942TIP3    H2 7295   7.121   5.518   6.913
18943TIP3   OH2 7296   7.503   5.538   5.662
18943TIP3    H1 7297   7.573   5.601   5.639
18943TIP3    H2 7298   7.428   5.597   5.689
18944TIP3   OH2 7299   5.909   4.173   6.918
18944TIP3    H1 7300   5.818   4.209   6.916
18944TIP3    H2 7301   5.896   4.087   6.962
18945TIP3   OH2 7302   7.131   4.961   5.864
18945TIP3    H1 7303   7.108   4.881   5.916
18945TIP3    H2 7304   7.227   4.965   5.878
18946TIP3   OH2 7305   5.870   5.352   6.759
18946TIP3    H1 7306   5.899   5.260   6.759
18946TIP3    H2 7307   5.896   5.381   6.847
18947TIP3   OH2 7308   6.465   5.201   5.483
18947TIP3    H1 7309   6.481   5.124   5.427
18947TIP3    H2 7310   6.423   5.164   5.563
18948TIP3   OH2 7311   6.346   5.158   5.730
18948TIP3    H1 7312   6.370   5.106   5.808
18948TIP3    H2 7313   6.352   5.251   5.761
18949TIP3   OH2 7314   5.996   4.882   5.776
18949TIP3    H1 7315   5.928   4.922   5.834
18949TIP3    H2 7316   6.049   4.959   5.751
18950TIP3   OH2 7317   6.782   4.151   6.811
18950TIP3    H1 7318   6.853   4.157   6.876
18950TIP3    H2 7319   6.743   4.064   6.831
18951TIP3   OH2 7320   6.855   4.109   5.922
18951TIP3    H1 7321   6.880   4.155   5.839
18951TIP3    H2 7322   6.914   4.153   5.985
18952TIP3   OH2 7323   6.626   5.323   5.799
18952TIP3    H1 7324   6.543   5.374   5.810
18952TIP3    H2 7325   6.678   5.376   5.738
18953TIP3   OH2 7326   6.578   4.283   6.003
18953TIP3    H1 7327   6.657   4.341   6.006
18953TIP3    H2 7328   6.553   4.272   6.096
18954TIP3   OH2 7329   6.634   4.386   6.921
18954TIP3    H1 7330   6.643   4.443   6.999
18954TIP3    H2 7331   6.700   4.317   6.930
18955TIP3   OH2 7332   6.664   3.989   6.091
18955TIP3    H1 7333   6.632   4.054   6.156
18955TIP3    H2 7334   6.733   4.044   6.045
18956TIP3   OH2 7335   6.363   5.429   5.805
18956TIP3    H1 7336   6.377   5.510   5.754
18956TIP3    H2 7337   6.337   5.462   5.894
18957TIP3   OH2 7338   6.230   4.104   5.762
18957TIP3    H1 7339   6.229   4.191   5.804
18957TIP3    H2 7340   6.319   4.072   5.790
18958TIP3   OH2 7341   7.252   4.172   7.006
18958TIP3    H1 7342   7.160   4.204   6.993
18958TIP3    H2 7343   7.282   4.172   6.914
18959TIP3   OH2 7344   7.113   4.551   6.407
18959TIP3    H1 7345   7.031   4.507   6.379
18959TIP3    H2 7346   7.161   4.483   6.459
18960TIP3   OH2 7347   6.055   5.142   5.668
18960TIP3    H1 7348   6.119   5.208   5.697
18960TIP3    H2 7349   6.105   5.098   5.597
18961TIP3   OH2 7350   5.855   4.422   5.596
18961TIP3    H1 7351   5.865   4.521   5.593
18961TIP3    H2 7352   5.778   4.403   5.541
18962TIP3   OH2 7353   7.220   5.477   6.574
18962TIP3    H1 7354   7.210   5.545   6.505
18962TIP3    H2 7355   7.316   5.483   6.592
18963TIP3   OH2 7356   5.962   3.893   6.455
18963TIP3    H1 7357   5.953   3.889   6.357
18963TIP3    H2 7358   5.931   3.803   6.480
18964TIP3   OH2 7359   5.865   5.282   6.068
18964TIP3    H1 7360   5.779   5.326   6.065
18964TIP3    H2 7361   5.912   5.329   5.999
18965TIP3   OH2 7362   5.788   5.545   7.199
18965TIP3    H1 7363   5.847   5.523   7.273
18965TIP3    H2 7364   5.744   5.461   7.179
18966TIP3   OH2 7365   6.251   5.437   7.357
18966TIP3    H1 7366   6.328   5.391   7.390
18966TIP3    H2 7367   6.249   5.410   7.263
18967TIP3   OH2 7368   6.663   5.390   5.499
18967TIP3    H1 7369   6.594   5.324   5.519
18967TIP3    H2 7370   6.738   5.333   5.475
18968TIP3   OH2 7371   6.903   5.299   7.219
18968TIP3    H1 7372   6.866   5.210   7.222
18968TIP3    H2 7373   6.985   5.306   7.272
18969TIP3   OH2 7374   7.123   5.369   5.528
18969TIP3    H1 7375   7.152   5.285   5.565
18969TIP3    H2 7376   7.193   5.388   5.462
18970TIP3   OH2 7377   5.777   4.922   7.296
18970TIP3    H1 7378   5.793   4.832   7.262
18970TIP3    H2 7379   5.703   4.953   7.240
18971TIP3   OH2 7380   6.214   4.959   5.503
18971TIP3    H1 7381   6.225   4.882   5.561
18971TIP3    H2 7382   6.280   4.943   5.436
18972TIP3   OH2 7383   6.456   4.923   7.234
18972TIP3    H1 7384   6.413   4.953   7.151
18972TIP3    H2 7385   6.454   4.825   7.224
18973TIP3   OH2 7386   6.747   5.066   5.478
18973TIP3    H1 7387   6.726   5.080   5.572
18973TIP3    H2 7388   6.732   4.972   5.467
18974TIP3   OH2 7389   7.017   4.910   6.980
18974TIP3    H1 7390   7.096   4.967   6.967
18974TIP3    H2 7391   6.947   4.976   6.976
18975TIP3   OH2 7392   5.869   4.647   7.237
18975TIP3    H1 7393   5.907   4.559   7.223
18975TIP3    H2 7394   5.838   4.644   7.328
18976TIP3   OH2 7395   6.330   4.759   5.740
18976TIP3    H1 7396   6.282   4.707   5.806
18976TIP3    H2 7397   6.363   4.692   5.676
18977TIP3   OH2 7398   6.258   4.542   6.971
18977TIP3    H1 7399   6.199   4.614   6.999
18977TIP3    H2 7400   6.297   4.578   6.890
18978TIP3   OH2 7401   6.437   4.586   5.561
18978TIP3    H1 7402   6.429   4.567   5.466
18978TIP3    H2 7403   6.535   4.589   5.573
18979TIP3   OH2 7404   6.767   4.803   7.311
18979TIP3    H1 7405   6.861   4.791   7.291
18979TIP3    H2 7406   6.744   4.721   7.358
18980TIP3   OH2 7407   7.360   4.806   5.508
18980TIP3    H1 7408   7.351   4.777   5.418
18980TIP3    H2 7409   7.388   4.901   5.489
18981TIP3   OH2 7410   6.301   4.280   7.077
18981TIP3    H1 7411   6.310   4.209   7.011
18981TIP3    H2 7412   6.293   4.361   7.023
18982TIP3   OH2 7413   6.493   4.666   6.858
18982TIP3    H1 7414   6.568   4.649   6.799
18982TIP3    H2 7415   6.457   4.749   6.823
18983TIP3   OH2 7416   6.930   4.440   7.358
18983TIP3    H1 7417   6.959   4.349   7.341
18983TIP3    H2 7418   7.016   4.486   7.354
18984TIP3   OH2 7419   7.066   4.722   7.168
18984TIP3    H1 7420   7.042   4.792   7.103
18984TIP3    H2 7421   7.162   4.716   7.149
18985TIP3   OH2 7422   6.145   4.403   7.272
18985TIP3    H1 7423   6.068   4.348   7.251
18985TIP3    H2 7424   6.209   4.368   7.207
18986TIP3   OH2 7425   6.418   3.860   6.871
18986TIP3    H1 7426   6.401   3.957   6.862
18986TIP3    H2 7427   6.343   3.824   6.820
18987TIP3   OH2 7428   6.546   4.291   7.235
18987TIP3    H1 7429   6.509   4.270   7.322
18987TIP3    H2 7430   6.467   4.275   7.178
18988TIP3   OH2 7431   6.817   4.211   7.144
18988TIP3    H1 7432   6.720   4.212   7.151
18988TIP3    H2 7433   6.844   4.142   7.207
18989TIP3   OH2 7434   6.969   4.073   7.336
18989TIP3    H1 7435   6.970   3.975   7.331
18989TIP3    H2 7436   6.947   4.095   7.427
18990TIP3   OH2 7437   5.953   4.197   7.244
18990TIP3    H1 7438   5.979   4.124   7.184
18990TIP3    H2 7439   5.945   4.151   7.327
18991TIP3   OH2 7440   6.441   3.800   7.140
18991TIP3    H1 7441   6.506   3.727   7.139
18991TIP3    H2 7442   6.427   3.815   7.044
18992TIP3   OH2 7443   6.479   3.965   7.351
18992TIP3    H1 7444   6.460   3.910   7.271
18992TIP3    H2 7445   6.413   4.036   7.342
18993TIP3   OH2 7446   6.425   5.675   5.675
18993TIP3    H1 7447   6.522   5.653   5.672
18993TIP3    H2 7448   6.407   5.701   5.584
18994TIP3   OH2 7449   5.782   5.112   5.618
18994TIP3    H1 7450   5.878   5.121   5.640
18994TIP3    H2 7451   5.787   5.051   5.543
18995TIP3   OH2 7452   5.655   5.649   6.113
18995TIP3    H1 7453   5.584   5.600   6.066
18995TIP3    H2 7454   5.684   5.583   6.179
18996TIP3   OH2 7455   5.738   5.462   6.300
18996TIP3    H1 7456   5.703   5.374   6.320
18996TIP3    H2 7457   5.760   5.495   6.389
18997TIP3   OH2 7458   7.488   5.543   6.593
18997TIP3    H1 7459   7.494   5.558   6.689
18997TIP3    H2 7460   7.561   5.599   6.563
18998TIP3   OH2 7461   7.449   5.501   6.889
18998TIP3    H1 7462   7.402   5.424   6.850
18998TIP3    H2 7463   7.499   5.456   6.959
18999TIP3   OH2 7464   7.290   5.076   7.349
18999TIP3    H1 7465   7.208   5.067   7.398
18999TIP3    H2 7466   7.335   5.152   7.393
19000TIP3   OH2 7467   7.424   4.906   5.901
19000TIP3    H1 7468   7.511   4.946   5.915
19000TIP3    H2 7469   7.425   4.833   5.966
19001TIP3   OH2 7470   7.461   4.714   6.087
19001TIP3    H1 7471   7.386   4.663   6.125
19001TIP3    H2 7472   7.521   4.727   6.164
19002TIP3   OH2 7473   7.437   4.984   6.586
19002TIP3    H1 7474   7.519   4.946   6.548
19002TIP3    H2 7475   7.451   5.079   6.568
19003TIP3   OH2 7476   7.293   5.274   6.812
19003TIP3    H1 7477   7.224   5.309   6.870
19003TIP3    H2 7478   7.238   5.233   6.741
19004TIP3   OH2 7479   7.489   4.695   5.726
19004TIP3    H1 7480   7.436   4.734   5.652
19004TIP3    H2 7481   7.483   4.769   5.790
19005TIP3   OH2 7482   7.325   4.418   5.583
19005TIP3    H1 7483   7.336   4.485   5.514
19005TIP3    H2 7484   7.310   4.337   5.530
19006TIP3   OH2 7485   7.243   4.561   6.144
19006TIP3    H1 7486   7.229   4.466   6.140
19006TIP3    H2 7487   7.210   4.583   6.232
19007TIP3   OH2 7488   5.744   4.770   6.550
19007TIP3    H1 7489   5.762   4.762   6.454
19007TIP3    H2 7490   5.833   4.753   6.585
19008TIP3   OH2 7491   7.327   4.758   7.113
19008TIP3    H1 7492   7.389   4.683   7.128
19008TIP3    H2 7493   7.388   4.835   7.113
19009TIP3   OH2 7494   7.479   4.547   7.174
19009TIP3    H1 7495   7.391   4.506   7.162
19009TIP3    H2 7496   7.537   4.469   7.169
19010TIP3   OH2 7497   7.251   4.168   5.494
19010TIP3    H1 7498   7.311   4.121   5.556
19010TIP3    H2 7499   7.166   4.125   5.508
19011TIP3   OH2 7500   7.210   4.319   5.992
19011TIP3    H1 7501   7.240   4.226   6.003
19011TIP3    H2 7502   7.289   4.359   5.952
19012TIP3   OH2 7503   7.274   4.373   6.535
19012TIP3    H1 7504   7.370   4.397   6.532
19012TIP3    H2 7505   7.255   4.388   6.628
19013TIP3   OH2 7506   7.280   4.446   6.812
19013TIP3    H1 7507   7.192   4.475   6.845
19013TIP3    H2 7508   7.323   4.532   6.790
19014TIP3   OH2 7509   5.708   4.303   7.167
19014TIP3    H1 7510   5.800   4.278   7.183
19014TIP3    H2 7511   5.660   4.220   7.192
19015TIP3   OH2 7512   7.519   3.853   7.346
19015TIP3    H1 7513   7.539   3.784   7.282
19015TIP3    H2 7514   7.515   3.934   7.292
19016TIP3   OH2 7515   7.276   4.047   5.994
19016TIP3    H1 7516   7.298   4.004   6.080
19016TIP3    H2 7517   7.216   3.984   5.950
19017TIP3   OH2 7518   5.823   4.126   6.451
19017TIP3    H1 7519   5.877   4.047   6.476
19017TIP3    H2 7520   5.879   4.198   6.487
19018TIP3   OH2 7521   5.654   4.426   6.554
19018TIP3    H1 7522   5.712   4.408   6.477
19018TIP3    H2 7523   5.698   4.509   6.582
19019TIP3   OH2 7524   7.461   4.060   7.182
19019TIP3    H1 7525   7.367   4.090   7.177
19019TIP3    H2 7526   7.462   4.007   7.101
19020TIP3   OH2 7527   7.458   4.054   5.648
19020TIP3    H1 7528   7.503   3.981   5.603
19020TIP3    H2 7529   7.530   4.119   5.654
19021TIP3   OH2 7530   5.691   4.057   5.963
19021TIP3    H1 7531   5.597   4.074   5.946
19021TIP3    H2 7532   5.732   4.103   5.888
19022TIP3   OH2 7533   7.164   5.550   6.156
19022TIP3    H1 7534   7.232   5.519   6.093
19022TIP3    H2 7535   7.216   5.600   6.221
19023TIP3   OH2 7536   5.685   3.920   6.790
19023TIP3    H1 7537   5.621   3.900   6.862
19023TIP3    H2 7538   5.639   3.989   6.740
19024TIP3   OH2 7539   5.906   5.241   7.207
19024TIP3    H1 7540   5.822   5.261   7.164
19024TIP3    H2 7541   5.879   5.234   7.299
19025TIP3   OH2 7542   6.199   5.341   6.835
19025TIP3    H1 7543   6.165   5.427   6.808
19025TIP3    H2 7544   6.291   5.350   6.804
19026TIP3   OH2 7545   6.633   5.480   7.123
19026TIP3    H1 7546   6.645   5.452   7.216
19026TIP3    H2 7547   6.721   5.515   7.100
19027TIP3   OH2 7548   6.860   5.607   7.057
19027TIP3    H1 7549   6.934   5.552   7.030
19027TIP3    H2 7550   6.899   5.654   7.133
19028TIP3   OH2 7551   7.362   3.871   6.964
19028TIP3    H1 7552   7.278   3.901   6.925
19028TIP3    H2 7553   7.377   3.788   6.914
19029TIP3   OH2 7554   5.942   5.665   6.835
19029TIP3    H1 7555   5.868   5.714   6.795
19029TIP3    H2 7556   5.910   5.645   6.924
19030TIP3   OH2 7557   6.189   5.622   6.742
19030TIP3    H1 7558   6.099   5.637   6.781
19030TIP3    H2 7559   6.183   5.681   6.665
19031TIP3   OH2 7560   6.659   5.614   6.659
19031TIP3    H1 7561   6.613   5.669   6.594
19031TIP3    H2 7562   6.672   5.677   6.733
19032TIP3   OH2 7563   6.888   5.495   6.761
19032TIP3    H1 7564   6.802   5.522   6.725
19032TIP3    H2 7565   6.936   5.579   6.751
19033TIP3   OH2 7566   7.147   5.652   6.784
19033TIP3    H1 7567   7.140   5.748   6.761
19033TIP3    H2 7568   7.168   5.616   6.696
19034TIP3   OH2 7569   5.887   5.530   6.529
19034TIP3    H1 7570   5.879   5.484   6.615
19034TIP3    H2 7571   5.968   5.492   6.490
19035TIP3   OH2 7572   6.095   5.401   6.394
19035TIP3    H1 7573   6.078   5.307   6.417
19035TIP3    H2 7574   6.180   5.416   6.440
19036TIP3   OH2 7575   6.355   5.449   6.481
19036TIP3    H1 7576   6.371   5.357   6.455
19036TIP3    H2 7577   6.360   5.443   6.578
19037TIP3   OH2 7578   6.701   4.014   6.396
19037TIP3    H1 7579   6.633   3.950   6.423
19037TIP3    H2 7580   6.756   3.961   6.337
19038TIP3   OH2 7581   7.214   3.819   6.402
19038TIP3    H1 7582   7.276   3.878   6.352
19038TIP3    H2 7583   7.126   3.855   6.379
19039TIP3   OH2 7584   7.382   3.944   6.230
19039TIP3    H1 7585   7.450   3.886   6.188
19039TIP3    H2 7586   7.432   4.027   6.240
19040TIP3   OH2 7587   5.934   3.876   6.184
19040TIP3    H1 7588   5.860   3.856   6.125
19040TIP3    H2 7589   5.985   3.792   6.175
19041TIP3   OH2 7590   5.814   3.853   5.749
19041TIP3    H1 7591   5.863   3.919   5.697
19041TIP3    H2 7592   5.758   3.907   5.808
19042TIP3   OH2 7593   6.385   3.869   6.159
19042TIP3    H1 7594   6.475   3.905   6.152
19042TIP3    H2 7595   6.381   3.847   6.252
19043TIP3   OH2 7596   6.956   3.871   6.322
19043TIP3    H1 7597   6.951   3.882   6.226
19043TIP3    H2 7598   6.918   3.780   6.334
19044TIP3   OH2 7599   7.083   3.874   5.887
19044TIP3    H1 7600   7.009   3.934   5.872
19044TIP3    H2 7601   7.040   3.789   5.911
19045TIP3   OH2 7602   5.807   5.447   5.852
19045TIP3    H1 7603   5.739   5.447   5.782
19045TIP3    H2 7604   5.809   5.543   5.870
19046TIP3   OH2 7605   6.001   4.056   5.599
19046TIP3    H1 7606   6.048   3.984   5.553
19046TIP3    H2 7607   6.066   4.073   5.670
19047TIP3   OH2 7608   6.497   4.073   5.845
19047TIP3    H1 7609   6.525   4.014   5.917
19047TIP3    H2 7610   6.508   4.158   5.893
19048TIP3   OH2 7611   6.688   5.587   5.682
19048TIP3    H1 7612   6.785   5.598   5.670
19048TIP3    H2 7613   6.674   5.523   5.608
19049TIP3   OH2 7614   7.364   5.529   5.960
19049TIP3    H1 7615   7.344   5.451   5.902
19049TIP3    H2 7616   7.355   5.602   5.896
19050TIP3   OH2 7617   5.924   3.932   7.131
19050TIP3    H1 7618   5.888   3.849   7.167
19050TIP3    H2 7619   6.017   3.925   7.164
19051TIP3   OH2 7620   6.126   3.867   7.285
19051TIP3    H1 7621   6.215   3.832   7.265
19051TIP3    H2 7622   6.089   3.788   7.332
19052TIP3   OH2 7623   5.993   5.551   5.550
19052TIP3    H1 7624   5.958   5.571   5.637
19052TIP3    H2 7625   6.061   5.486   5.567
19053TIP3   OH2 7626   6.969   3.800   7.305
19053TIP3    H1 7627   6.980   3.751   7.386
19053TIP3    H2 7628   7.059   3.795   7.265
19054TIP3   OH2 7629   7.284   5.400   7.173
19054TIP3    H1 7630   7.208   5.390   7.112
19054TIP3    H2 7631   7.279   5.496   7.189
19055TIP3   OH2 7632   7.853   4.683   6.671
19055TIP3    H1 7633   7.861   4.615   6.742
19055TIP3    H2 7634   7.927   4.742   6.694
19056TIP3   OH2 7635   7.944   5.125   6.527
19056TIP3    H1 7636   7.915   5.040   6.490
19056TIP3    H2 7637   8.041   5.111   6.530
19057TIP3   OH2 7638   7.610   4.484   6.069
19057TIP3    H1 7639   7.567   4.572   6.064
19057TIP3    H2 7640   7.552   4.431   6.013
19058TIP3   OH2 7641   7.685   4.708   6.285
19058TIP3    H1 7642   7.708   4.626   6.330
19058TIP3    H2 7643   7.756   4.716   6.220
19059TIP3   OH2 7644   8.039   4.225   6.338
19059TIP3    H1 7645   8.085   4.297   6.287
19059TIP3    H2 7646   8.040   4.159   6.269
19060TIP3   OH2 7647   7.748   4.453   6.389
19060TIP3    H1 7648   7.817   4.400   6.435
19060TIP3    H2 7649   7.756   4.420   6.298
19061TIP3   OH2 7650   7.969   4.098   6.722
19061TIP3    H1 7651   7.946   4.158   6.647
19061TIP3    H2 7652   7.903   4.128   6.789
19062TIP3   OH2 7653   7.923   4.296   6.546
19062TIP3    H1 7654   7.994   4.362   6.557
19062TIP3    H2 7655   7.967   4.255   6.465
19063TIP3   OH2 7656   8.052   5.078   6.817
19063TIP3    H1 7657   8.056   5.172   6.795
19063TIP3    H2 7658   7.973   5.071   6.874
19064TIP3   OH2 7659   7.677   5.028   5.909
19064TIP3    H1 7660   7.657   5.059   5.816
19064TIP3    H2 7661   7.684   5.114   5.955
19065TIP3   OH2 7662   8.084   4.804   6.202
19065TIP3    H1 7663   8.070   4.767   6.112
19065TIP3    H2 7664   8.157   4.748   6.236
19066TIP3   OH2 7665   7.925   4.740   6.952
19066TIP3    H1 7666   7.929   4.803   7.025
19066TIP3    H2 7667   7.831   4.746   6.932
19067TIP3   OH2 7668   8.058   5.325   7.114
19067TIP3    H1 7669   8.049   5.309   7.018
19067TIP3    H2 7670   7.964   5.309   7.139
19068TIP3   OH2 7671   8.004   4.701   5.962
19068TIP3    H1 7672   7.974   4.782   5.913
19068TIP3    H2 7673   7.931   4.642   5.942
19069TIP3   OH2 7674   7.607   4.947   6.852
19069TIP3    H1 7675   7.565   4.938   6.764
19069TIP3    H2 7676   7.616   4.852   6.875
19070TIP3   OH2 7677   7.590   5.221   6.531
19070TIP3    H1 7678   7.685   5.209   6.529
19070TIP3    H2 7679   7.579   5.302   6.582
19071TIP3   OH2 7680   7.911   5.507   6.146
19071TIP3    H1 7681   7.928   5.465   6.233
19071TIP3    H2 7682   7.827   5.462   6.123
19072TIP3   OH2 7683   7.831   5.084   6.952
19072TIP3    H1 7684   7.862   5.040   7.034
19072TIP3    H2 7685   7.751   5.035   6.925
19073TIP3   OH2 7686   8.100   3.923   6.545
19073TIP3    H1 7687   8.013   3.916   6.500
19073TIP3    H2 7688   8.095   4.014   6.579
19074TIP3   OH2 7689   8.111   4.434   6.736
19074TIP3    H1 7690   8.017   4.413   6.746
19074TIP3    H2 7691   8.101   4.489   6.656
19075TIP3   OH2 7692   8.083   4.420   6.180
19075TIP3    H1 7693   7.994   4.403   6.142
19075TIP3    H2 7694   8.144   4.398   6.109
19076TIP3   OH2 7695   7.873   4.452   6.840
19076TIP3    H1 7696   7.883   4.492   6.928
19076TIP3    H2 7697   7.835   4.364   6.858
19077TIP3   OH2 7698   7.545   4.159   6.233
19077TIP3    H1 7699   7.613   4.156   6.304
19077TIP3    H2 7700   7.591   4.122   6.156
19078TIP3   OH2 7701   7.675   4.234   5.777
19078TIP3    H1 7702   7.721   4.290   5.712
19078TIP3    H2 7703   7.603   4.296   5.803
19079TIP3   OH2 7704   7.842   4.342   6.142
19079TIP3    H1 7705   7.755   4.357   6.100
19079TIP3    H2 7706   7.876   4.258   6.106
19080TIP3   OH2 7707   8.087   4.461   5.666
19080TIP3    H1 7708   8.026   4.434   5.595
19080TIP3    H2 7709   8.163   4.490   5.615
19081TIP3   OH2 7710   7.898   4.926   7.168
19081TIP3    H1 7711   7.967   4.951   7.230
19081TIP3    H2 7712   7.819   4.937   7.226
19082TIP3   OH2 7713   7.974   4.078   6.080
19082TIP3    H1 7714   7.955   3.983   6.092
19082TIP3    H2 7715   8.070   4.077   6.062
19083TIP3   OH2 7716   7.930   4.859   6.434
19083TIP3    H1 7717   8.001   4.852   6.366
19083TIP3    H2 7718   7.937   4.773   6.480
19084TIP3   OH2 7719   7.628   4.700   6.960
19084TIP3    H1 7720   7.647   4.657   7.046
19084TIP3    H2 7721   7.566   4.639   6.918
19085TIP3   OH2 7722   7.741   4.688   5.626
19085TIP3    H1 7723   7.800   4.754   5.665
19085TIP3    H2 7724   7.655   4.720   5.658
19086TIP3   OH2 7725   7.795   4.172   6.917
19086TIP3    H1 7726   7.705   4.211   6.913
19086TIP3    H2 7727   7.779   4.088   6.962
19087TIP3   OH2 7728   7.757   5.353   6.758
19087TIP3    H1 7729   7.784   5.260   6.760
19087TIP3    H2 7730   7.783   5.382   6.846
19088TIP3   OH2 7731   7.885   4.882   5.781
19088TIP3    H1 7732   7.812   4.924   5.832
19088TIP3    H2 7733   7.930   4.962   5.750
19089TIP3   OH2 7734  -0.049   4.096   5.741
19089TIP3    H1 7735  -0.046   4.183   5.783
19089TIP3    H2 7736   0.043   4.071   5.762
19090TIP3   OH2 7737   7.950   5.139   5.673
19090TIP3    H1 7738   8.008   5.210   5.695
19090TIP3    H2 7739   7.994   5.099   5.596
19091TIP3   OH2 7740   7.779   4.411   5.589
19091TIP3    H1 7741   7.773   4.508   5.596
19091TIP3    H2 7742   7.694   4.389   5.549
19092TIP3   OH2 7743   7.855   3.889   6.454
19092TIP3    H1 7744   7.835   3.894   6.358
19092TIP3    H2 7745   7.812   3.804   6.480
19093TIP3   OH2 7746   7.750   5.283   6.068
19093TIP3    H1 7747   7.664   5.328   6.063
19093TIP3    H2 7748   7.800   5.329   6.000
19094TIP3   OH2 7749   7.672   5.544   7.198
19094TIP3    H1 7750   7.733   5.524   7.271
19094TIP3    H2 7751   7.628   5.459   7.180
19095TIP3   OH2 7752   7.664   4.924   7.297
19095TIP3    H1 7753   7.679   4.833   7.267
19095TIP3    H2 7754   7.589   4.953   7.242
19096TIP3   OH2 7755   8.098   4.956   5.502
19096TIP3    H1 7756   8.109   4.880   5.560
19096TIP3    H2 7757   8.165   4.947   5.434
19097TIP3   OH2 7758   7.753   4.649   7.236
19097TIP3    H1 7759   7.791   4.561   7.225
19097TIP3    H2 7760   7.728   4.648   7.330
19098TIP3   OH2 7761   8.023   4.409   7.274
19098TIP3    H1 7762   7.950   4.348   7.253
19098TIP3    H2 7763   8.093   4.375   7.216
19099TIP3   OH2 7764   7.846   4.196   7.240
19099TIP3    H1 7765   7.865   4.122   7.182
19099TIP3    H2 7766   7.834   4.156   7.329
19100TIP3   OH2 7767   7.696   5.106   5.656
19100TIP3    H1 7768   7.790   5.121   5.640
19100TIP3    H2 7769   7.667   5.068   5.568
19101TIP3   OH2 7770   7.541   5.649   6.113
19101TIP3    H1 7771   7.470   5.600   6.067
19101TIP3    H2 7772   7.571   5.583   6.179
19102TIP3   OH2 7773   7.626   5.462   6.300
19102TIP3    H1 7774   7.590   5.374   6.319
19102TIP3    H2 7775   7.648   5.495   6.388
19103TIP3   OH2 7776   7.628   4.768   6.549
19103TIP3    H1 7777   7.649   4.761   6.453
19103TIP3    H2 7778   7.717   4.751   6.585
19104TIP3   OH2 7779   7.593   4.299   7.165
19104TIP3    H1 7780   7.686   4.278   7.184
19104TIP3    H2 7781   7.546   4.218   7.193
19105TIP3   OH2 7782   7.711   4.127   6.452
19105TIP3    H1 7783   7.762   4.046   6.472
19105TIP3    H2 7784   7.766   4.198   6.489
19106TIP3   OH2 7785   7.540   4.430   6.553
19106TIP3    H1 7786   7.598   4.404   6.478
19106TIP3    H2 7787   7.587   4.509   6.580
19107TIP3   OH2 7788   7.577   4.054   5.960
19107TIP3    H1 7789   7.482   4.074   5.948
19107TIP3    H2 7790   7.619   4.105   5.889
19108TIP3   OH2 7791   7.573   3.922   6.793
19108TIP3    H1 7792   7.503   3.901   6.858
19108TIP3    H2 7793   7.527   3.987   6.736
19109TIP3   OH2 7794   7.791   5.244   7.208
19109TIP3    H1 7795   7.707   5.262   7.163
19109TIP3    H2 7796   7.763   5.232   7.300
19110TIP3   OH2 7797   8.090   5.346   6.844
19110TIP3    H1 7798   8.048   5.426   6.804
19110TIP3    H2 7799   8.177   5.350   6.800
19111TIP3   OH2 7800   7.827   5.664   6.835
19111TIP3    H1 7801   7.754   5.713   6.794
19111TIP3    H2 7802   7.792   5.645   6.923
19112TIP3   OH2 7803   8.059   5.598   6.723
19112TIP3    H1 7804   7.984   5.630   6.779
19112TIP3    H2 7805   8.070   5.678   6.666
19113TIP3   OH2 7806   7.768   5.529   6.530
19113TIP3    H1 7807   7.765   5.484   6.617
19113TIP3    H2 7808   7.851   5.495   6.491
19114TIP3   OH2 7809   7.980   5.402   6.397
19114TIP3    H1 7810   7.962   5.308   6.417
19114TIP3    H2 7811   8.065   5.414   6.441
19115TIP3   OH2 7812   7.821   3.877   6.181
19115TIP3    H1 7813   7.742   3.855   6.128
19115TIP3    H2 7814   7.869   3.792   6.178
19116TIP3   OH2 7815   7.694   3.853   5.747
19116TIP3    H1 7816   7.750   3.917   5.700
19116TIP3    H2 7817   7.644   3.910   5.809
19117TIP3   OH2 7818   7.693   5.449   5.854
19117TIP3    H1 7819   7.625   5.445   5.783
19117TIP3    H2 7820   7.691   5.544   5.871
19118TIP3   OH2 7821   7.880   4.041   5.608
19118TIP3    H1 7822   7.936   3.989   5.549
19118TIP3    H2 7823   7.951   4.080   5.664
19119TIP3   OH2 7824   7.819   3.921   7.116
19119TIP3    H1 7825   7.771   3.857   7.171
19119TIP3    H2 7826   7.899   3.935   7.171
19120TIP3   OH2 7827   8.014   3.862   7.274
19120TIP3    H1 7828   8.107   3.835   7.266
19120TIP3    H2 7829   7.974   3.792   7.331
19121TIP3   OH2 7830   7.876   5.547   5.548
19121TIP3    H1 7831   7.846   5.575   5.636
19121TIP3    H2 7832   7.950   5.488   5.564
19122TIP3   OH2 7833   1.189   6.676   6.166
19122TIP3    H1 7834   1.189   6.774   6.162
19122TIP3    H2 7835   1.117   6.653   6.106
19123TIP3   OH2 7836   1.075   6.602   6.516
19123TIP3    H1 7837   1.074   6.537   6.588
19123TIP3    H2 7838   1.041   6.551   6.441
19124TIP3   OH2 7839   0.325   6.566   6.655
19124TIP3    H1 7840   0.310   6.507   6.734
19124TIP3    H2 7841   0.384   6.631   6.696
19125TIP3   OH2 7842   1.444   6.897   6.344
19125TIP3    H1 7843   1.402   6.825   6.393
19125TIP3    H2 7844   1.446   6.968   6.411
19126TIP3   OH2 7845   0.402   7.014   6.520
19126TIP3    H1 7846   0.371   6.926   6.490
19126TIP3    H2 7847   0.497   6.995   6.526
19127TIP3   OH2 7848   0.098   6.400   6.015
19127TIP3    H1 7849   0.041   6.463   6.061
19127TIP3    H2 7850   0.033   6.335   5.991
19128TIP3   OH2 7851   0.153   6.587   6.288
19128TIP3    H1 7852   0.175   6.503   6.335
19128TIP3    H2 7853   0.220   6.597   6.219
19129TIP3   OH2 7854   1.157   7.413   6.368
19129TIP3    H1 7855   1.221   7.343   6.340
19129TIP3    H2 7856   1.135   7.379   6.455
19130TIP3   OH2 7857   0.913   6.842   6.563
19130TIP3    H1 7858   0.947   6.779   6.497
19130TIP3    H2 7859   0.993   6.857   6.615
19131TIP3   OH2 7860   1.773   6.008   6.636
19131TIP3    H1 7861   1.790   6.067   6.713
19131TIP3    H2 7862   1.829   6.050   6.570
19132TIP3   OH2 7863   1.229   6.289   6.594
19132TIP3    H1 7864   1.246   6.193   6.595
19132TIP3    H2 7865   1.219   6.303   6.498
19133TIP3   OH2 7866   0.541   6.098   6.316
19133TIP3    H1 7867   0.551   6.182   6.269
19133TIP3    H2 7868   0.502   6.041   6.246
19134TIP3   OH2 7869   1.315   6.105   6.154
19134TIP3    H1 7870   1.380   6.074   6.220
19134TIP3    H2 7871   1.371   6.163   6.099
19135TIP3   OH2 7872   0.227   6.341   6.381
19135TIP3    H1 7873   0.278   6.278   6.434
19135TIP3    H2 7874   0.220   6.299   6.294
19136TIP3   OH2 7875   0.720   6.494   6.321
19136TIP3    H1 7876   0.786   6.436   6.361
19136TIP3    H2 7877   0.667   6.428   6.271
19137TIP3   OH2 7878   1.817   6.148   6.864
19137TIP3    H1 7879   1.756   6.224   6.853
19137TIP3    H2 7880   1.820   6.139   6.960
19138TIP3   OH2 7881   0.431   5.986   6.719
19138TIP3    H1 7882   0.401   6.044   6.646
19138TIP3    H2 7883   0.363   6.011   6.787
19139TIP3   OH2 7884   1.161   6.936   6.075
19139TIP3    H1 7885   1.133   6.907   5.987
19139TIP3    H2 7886   1.130   7.029   6.080
19140TIP3   OH2 7887   0.684   6.752   6.743
19140TIP3    H1 7888   0.613   6.816   6.767
19140TIP3    H2 7889   0.754   6.813   6.716
19141TIP3   OH2 7890   1.495   6.040   6.352
19141TIP3    H1 7891   1.474   5.963   6.406
19141TIP3    H2 7892   1.563   6.084   6.407
19142TIP3   OH2 7893   0.387   6.170   6.524
19142TIP3    H1 7894   0.447   6.242   6.556
19142TIP3    H2 7895   0.440   6.131   6.451
19143TIP3   OH2 7896   0.524   6.950   6.826
19143TIP3    H1 7897   0.523   7.042   6.793
19143TIP3    H2 7898   0.436   6.945   6.869
19144TIP3   OH2 7899   0.135   6.915   5.906
19144TIP3    H1 7900   0.113   6.943   5.815
19144TIP3    H2 7901   0.142   6.999   5.955
19145TIP3   OH2 7902   1.497   7.080   6.581
19145TIP3    H1 7903   1.400   7.091   6.593
19145TIP3    H2 7904   1.524   7.172   6.561
19146TIP3   OH2 7905   1.529   5.909   6.720
19146TIP3    H1 7906   1.457   5.972   6.712
19146TIP3    H2 7907   1.600   5.951   6.668
19147TIP3   OH2 7908   0.826   5.721   6.467
19147TIP3    H1 7909   0.812   5.624   6.460
19147TIP3    H2 7910   0.738   5.751   6.497
19148TIP3   OH2 7911   1.323   7.259   6.240
19148TIP3    H1 7912   1.366   7.187   6.190
19148TIP3    H2 7913   1.365   7.338   6.201
19149TIP3   OH2 7914   1.444   7.051   6.092
19149TIP3    H1 7915   1.415   6.982   6.030
19149TIP3    H2 7916   1.447   7.002   6.176
19150TIP3   OH2 7917   1.606   6.911   6.941
19150TIP3    H1 7918   1.620   6.846   6.869
19150TIP3    H2 7919   1.626   6.995   6.897
19151TIP3   OH2 7920   1.055   6.599   5.918
19151TIP3    H1 7921   0.986   6.657   5.882
19151TIP3    H2 7922   1.126   6.609   5.851
19152TIP3   OH2 7923   1.062   6.454   5.624
19152TIP3    H1 7924   1.134   6.454   5.689
19152TIP3    H2 7925   1.091   6.385   5.564
19153TIP3   OH2 7926   1.794   6.542   6.746
19153TIP3    H1 7927   1.728   6.614   6.750
19153TIP3    H2 7928   1.843   6.565   6.665
19154TIP3   OH2 7929   1.401   6.623   6.011
19154TIP3    H1 7930   1.325   6.645   6.071
19154TIP3    H2 7931   1.447   6.553   6.062
19155TIP3   OH2 7932   1.393   6.438   6.922
19155TIP3    H1 7933   1.394   6.519   6.975
19155TIP3    H2 7934   1.330   6.467   6.853
19156TIP3   OH2 7935   0.562   6.688   6.202
19156TIP3    H1 7936   0.527   6.648   6.119
19156TIP3    H2 7937   0.622   6.618   6.235
19157TIP3   OH2 7938   0.692   7.026   6.470
19157TIP3    H1 7939   0.692   6.973   6.389
19157TIP3    H2 7940   0.771   6.990   6.515
19158TIP3   OH2 7941   0.597   6.561   6.566
19158TIP3    H1 7942   0.652   6.573   6.486
19158TIP3    H2 7943   0.629   6.628   6.629
19159TIP3   OH2 7944   1.235   7.119   6.638
19159TIP3    H1 7945   1.207   7.182   6.704
19159TIP3    H2 7946   1.210   7.033   6.681
19160TIP3   OH2 7947   0.688   7.003   7.040
19160TIP3    H1 7948   0.648   7.080   7.085
19160TIP3    H2 7949   0.621   6.984   6.970
19161TIP3   OH2 7950   1.288   6.539   5.778
19161TIP3    H1 7951   1.343   6.558   5.858
19161TIP3    H2 7952   1.329   6.592   5.706
19162TIP3   OH2 7953   0.382   6.620   6.957
19162TIP3    H1 7954   0.386   6.691   7.023
19162TIP3    H2 7955   0.291   6.629   6.925
19163TIP3   OH2 7956   1.059   7.213   6.124
19163TIP3    H1 7957   1.102   7.244   6.204
19163TIP3    H2 7958   1.003   7.288   6.100
19164TIP3   OH2 7959   0.511   7.204   7.113
19164TIP3    H1 7960   0.507   7.197   7.016
19164TIP3    H2 7961   0.417   7.198   7.137
19165TIP3   OH2 7962   1.659   5.714   5.767
19165TIP3    H1 7963   1.564   5.726   5.790
19165TIP3    H2 7964   1.680   5.799   5.725
19166TIP3   OH2 7965   0.458   6.590   5.966
19166TIP3    H1 7966   0.430   6.667   5.913
19166TIP3    H2 7967   0.392   6.524   5.941
19167TIP3   OH2 7968   1.769   7.150   5.610
19167TIP3    H1 7969   1.784   7.245   5.614
19167TIP3    H2 7970   1.860   7.120   5.593
19168TIP3   OH2 7971   0.109   6.807   6.833
19168TIP3    H1 7972   0.033   6.830   6.776
19168TIP3    H2 7973   0.072   6.730   6.877
19169TIP3   OH2 7974   0.047   7.112   6.524
19169TIP3    H1 7975   0.141   7.088   6.532
19169TIP3    H2 7976   0.036   7.185   6.586
19170TIP3   OH2 7977   1.866   7.176   7.097
19170TIP3    H1 7978   1.855   7.080   7.098
19170TIP3    H2 7979   1.780   7.201   7.140
19171TIP3   OH2 7980   0.963   7.131   6.983
19171TIP3    H1 7981   0.969   7.213   7.036
19171TIP3    H2 7982   0.878   7.094   7.011
19172TIP3   OH2 7983   1.005   7.505   5.965
19172TIP3    H1 7984   0.997   7.498   5.869
19172TIP3    H2 7985   1.009   7.601   5.980
19173TIP3   OH2 7986   0.371   7.391   6.146
19173TIP3    H1 7987   0.384   7.351   6.234
19173TIP3    H2 7988   0.285   7.351   6.123
19174TIP3   OH2 7989   1.308   7.423   5.660
19174TIP3    H1 7990   1.358   7.350   5.619
19174TIP3    H2 7991   1.316   7.399   5.755
19175TIP3   OH2 7992   1.281   7.420   5.941
19175TIP3    H1 7993   1.186   7.426   5.960
19175TIP3    H2 7994   1.306   7.345   5.998
19176TIP3   OH2 7995   1.583   6.322   7.145
19176TIP3    H1 7996   1.536   6.369   7.075
19176TIP3    H2 7997   1.581   6.230   7.115
19177TIP3   OH2 7998   0.290   6.971   6.949
19177TIP3    H1 7999   0.314   6.927   7.033
19177TIP3    H2 8000   0.209   6.922   6.921
19178TIP3   OH2 8001   0.565   5.811   6.542
19178TIP3    H1 8002   0.474   5.800   6.505
19178TIP3    H2 8003   0.551   5.894   6.590
19179TIP3   OH2 8004   1.028   5.778   6.879
19179TIP3    H1 8005   1.066   5.736   6.958
19179TIP3    H2 8006   0.931   5.766   6.893
19180TIP3   OH2 8007   1.357   6.162   6.968
19180TIP3    H1 8008   1.301   6.141   7.046
19180TIP3    H2 8009   1.339   6.255   6.945
19181TIP3   OH2 8010   1.433   6.642   5.547
19181TIP3    H1 8011   1.434   6.624   5.452
19181TIP3    H2 8012   1.517   6.688   5.562
19182TIP3   OH2 8013   0.991   6.035   5.612
19182TIP3    H1 8014   0.960   6.031   5.705
19182TIP3    H2 8015   0.964   5.947   5.584
19183TIP3   OH2 8016   0.574   6.308   6.665
19183TIP3    H1 8017   0.501   6.305   6.731
19183TIP3    H2 8018   0.565   6.399   6.630
19184TIP3   OH2 8019   0.570   6.322   6.155
19184TIP3    H1 8020   0.476   6.296   6.141
19184TIP3    H2 8021   0.608   6.291   6.070
19185TIP3   OH2 8022   1.122   6.370   6.031
19185TIP3    H1 8023   1.081   6.453   5.996
19185TIP3    H2 8024   1.190   6.354   5.963
19186TIP3   OH2 8025   1.028   6.391   7.174
19186TIP3    H1 8026   0.974   6.314   7.206
19186TIP3    H2 8027   1.111   6.380   7.223
19187TIP3   OH2 8028   1.225   6.319   6.315
19187TIP3    H1 8029   1.197   6.375   6.241
19187TIP3    H2 8030   1.235   6.234   6.268
19188TIP3   OH2 8031   0.379   6.308   6.856
19188TIP3    H1 8032   0.342   6.377   6.915
19188TIP3    H2 8033   0.294   6.260   6.849
19189TIP3   OH2 8034   0.673   6.060   5.513
19189TIP3    H1 8035   0.633   6.034   5.598
19189TIP3    H2 8036   0.607   6.118   5.472
19190TIP3   OH2 8037   0.080   6.056   6.182
19190TIP3    H1 8038   0.074   6.035   6.279
19190TIP3    H2 8039   0.072   5.969   6.141
19191TIP3   OH2 8040   0.146   6.136   5.787
19191TIP3    H1 8041   0.185   6.186   5.711
19191TIP3    H2 8042   0.067   6.189   5.799
19192TIP3   OH2 8043   1.147   6.478   6.772
19192TIP3    H1 8044   1.183   6.410   6.712
19192TIP3    H2 8045   1.099   6.425   6.838
19193TIP3   OH2 8046   0.826   6.075   6.254
19193TIP3    H1 8047   0.732   6.076   6.283
19193TIP3    H2 8048   0.874   6.059   6.336
19194TIP3   OH2 8049   0.310   6.232   6.137
19194TIP3    H1 8050   0.221   6.244   6.099
19194TIP3    H2 8051   0.333   6.144   6.101
19195TIP3   OH2 8052   0.670   6.237   5.905
19195TIP3    H1 8053   0.766   6.246   5.920
19195TIP3    H2 8054   0.646   6.302   5.837
19196TIP3   OH2 8055   1.266   5.999   6.578
19196TIP3    H1 8056   1.198   6.004   6.649
19196TIP3    H2 8057   1.215   5.974   6.500
19197TIP3   OH2 8058   0.544   6.354   5.666
19197TIP3    H1 8059   0.487   6.321   5.595
19197TIP3    H2 8060   0.623   6.376   5.615
19198TIP3   OH2 8061   1.588   7.568   7.215
19198TIP3    H1 8062   1.612   7.600   7.126
19198TIP3    H2 8063   1.667   7.589   7.264
19199TIP3   OH2 8064   0.367   6.805   7.168
19199TIP3    H1 8065   0.434   6.839   7.227
19199TIP3    H2 8066   0.283   6.821   7.216
19200TIP3   OH2 8067   0.953   6.351   6.443
19200TIP3    H1 8068   1.013   6.298   6.390
19200TIP3    H2 8069   0.939   6.296   6.522
19201TIP3   OH2 8070   0.450   5.967   6.084
19201TIP3    H1 8071   0.422   5.873   6.086
19201TIP3    H2 8072   0.533   5.960   6.034
19202TIP3   OH2 8073   0.818   6.184   6.685
19202TIP3    H1 8074   0.735   6.235   6.694
19202TIP3    H2 8075   0.873   6.219   6.758
19203TIP3   OH2 8076   0.877   6.807   5.853
19203TIP3    H1 8077   0.797   6.759   5.822
19203TIP3    H2 8078   0.855   6.818   5.948
19204TIP3   OH2 8079   1.595   6.726   6.735
19204TIP3    H1 8080   1.651   6.774   6.672
19204TIP3    H2 8081   1.509   6.731   6.688
19205TIP3   OH2 8082   1.260   6.085   5.676
19205TIP3    H1 8083   1.166   6.101   5.655
19205TIP3    H2 8084   1.293   6.173   5.703
19206TIP3   OH2 8085   1.026   6.832   6.978
19206TIP3    H1 8086   0.991   6.790   7.057
19206TIP3    H2 8087   1.000   6.924   6.989
19207TIP3   OH2 8088   1.334   6.280   5.840
19207TIP3    H1 8089   1.423   6.266   5.877
19207TIP3    H2 8090   1.343   6.361   5.787
19208TIP3   OH2 8091   0.388   6.747   6.434
19208TIP3    H1 8092   0.456   6.738   6.365
19208TIP3    H2 8093   0.394   6.661   6.480
19209TIP3   OH2 8094   1.085   6.953   5.760
19209TIP3    H1 8095   1.051   7.038   5.796
19209TIP3    H2 8096   1.011   6.892   5.781
19210TIP3   OH2 8097   0.049   6.611   7.019
19210TIP3    H1 8098   0.116   6.546   7.048
19210TIP3    H2 8099   0.033   6.556   6.936
19211TIP3   OH2 8100   0.788   6.543   7.179
19211TIP3    H1 8101   0.756   6.512   7.092
19211TIP3    H2 8102   0.880   6.512   7.178
19212TIP3   OH2 8103   1.255   7.076   6.974
19212TIP3    H1 8104   1.163   7.094   6.950
19212TIP3    H2 8105   1.252   7.105   7.067
19213TIP3   OH2 8106   1.823   6.294   5.814
19213TIP3    H1 8107   1.766   6.264   5.740
19213TIP3    H2 8108   1.830   6.387   5.786
19214TIP3   OH2 8109   1.822   6.878   7.094
19214TIP3    H1 8110   1.733   6.902   7.057
19214TIP3    H2 8111   1.877   6.875   7.013
19215TIP3   OH2 8112   1.653   7.176   5.854
19215TIP3    H1 8113   1.615   7.093   5.886
19215TIP3    H2 8114   1.682   7.157   5.762
19216TIP3   OH2 8115   1.373   6.658   6.563
19216TIP3    H1 8116   1.278   6.637   6.552
19216TIP3    H2 8117   1.416   6.582   6.520
19217TIP3   OH2 8118   0.625   7.091   6.173
19217TIP3    H1 8119   0.675   7.171   6.152
19217TIP3    H2 8120   0.537   7.114   6.140
19218TIP3   OH2 8121   0.194   6.570   5.633
19218TIP3    H1 8122   0.260   6.635   5.664
19218TIP3    H2 8123   0.112   6.609   5.664
19219TIP3   OH2 8124   0.765   6.857   6.125
19219TIP3    H1 8125   0.735   6.950   6.134
19219TIP3    H2 8126   0.693   6.808   6.169
19220TIP3   OH2 8127   0.811   7.276   6.766
19220TIP3    H1 8128   0.856   7.356   6.737
19220TIP3    H2 8129   0.873   7.242   6.832
19221TIP3   OH2 8130   0.634   7.356   6.079
19221TIP3    H1 8131   0.537   7.369   6.092
19221TIP3    H2 8132   0.670   7.441   6.112
19222TIP3   OH2 8133   1.164   6.876   6.728
19222TIP3    H1 8134   1.131   6.857   6.818
19222TIP3    H2 8135   1.228   6.805   6.711
19223TIP3   OH2 8136   1.393   6.981   5.638
19223TIP3    H1 8137   1.426   6.935   5.718
19223TIP3    H2 8138   1.298   6.964   5.647
19224TIP3   OH2 8139   1.445   7.334   6.977
19224TIP3    H1 8140   1.376   7.284   6.929
19224TIP3    H2 8141   1.464   7.404   6.911
19225TIP3   OH2 8142   1.843   7.422   5.658
19225TIP3    H1 8143   1.915   7.485   5.640
19225TIP3    H2 8144   1.773   7.482   5.691
19226TIP3   OH2 8145   0.249   6.058   6.913
19226TIP3    H1 8146   0.161   6.098   6.914
19226TIP3    H2 8147   0.237   5.975   6.960
19227TIP3   OH2 8148   1.475   6.846   5.862
19227TIP3    H1 8149   1.451   6.767   5.915
19227TIP3    H2 8150   1.570   6.851   5.880
19228TIP3   OH2 8151   0.211   7.236   6.759
19228TIP3    H1 8152   0.244   7.144   6.759
19228TIP3    H2 8153   0.242   7.268   6.845
19229TIP3   OH2 8154   0.810   7.087   5.483
19229TIP3    H1 8155   0.824   7.010   5.427
19229TIP3    H2 8156   0.766   7.050   5.563
19230TIP3   OH2 8157   0.688   7.043   5.730
19230TIP3    H1 8158   0.713   6.992   5.808
19230TIP3    H2 8159   0.693   7.136   5.761
19231TIP3   OH2 8160   0.336   6.769   5.775
19231TIP3    H1 8161   0.269   6.808   5.836
19231TIP3    H2 8162   0.392   6.845   5.753
19232TIP3   OH2 8163   1.125   6.037   6.811
19232TIP3    H1 8164   1.195   6.043   6.876
19232TIP3    H2 8165   1.086   5.949   6.831
19233TIP3   OH2 8166   1.198   5.995   5.922
19233TIP3    H1 8167   1.223   6.040   5.839
19233TIP3    H2 8168   1.257   6.038   5.985
19234TIP3   OH2 8169   0.968   7.210   5.799
19234TIP3    H1 8170   0.886   7.262   5.809
19234TIP3    H2 8171   1.020   7.264   5.738
19235TIP3   OH2 8172   0.922   6.169   6.003
19235TIP3    H1 8173   1.001   6.227   6.006
19235TIP3    H2 8174   0.896   6.157   6.096
19236TIP3   OH2 8175   0.977   6.272   6.920
19236TIP3    H1 8176   0.985   6.329   6.999
19236TIP3    H2 8177   1.044   6.202   6.930
19237TIP3   OH2 8178   1.007   5.875   6.091
19237TIP3    H1 8179   0.975   5.940   6.155
19237TIP3    H2 8180   1.076   5.929   6.045
19238TIP3   OH2 8181   0.705   7.313   5.806
19238TIP3    H1 8182   0.720   7.395   5.753
19238TIP3    H2 8183   0.680   7.349   5.893
19239TIP3   OH2 8184   0.573   5.985   5.764
19239TIP3    H1 8185   0.569   6.076   5.799
19239TIP3    H2 8186   0.664   5.960   5.791
19240TIP3   OH2 8187   1.596   6.058   7.008
19240TIP3    H1 8188   1.503   6.089   6.994
19240TIP3    H2 8189   1.626   6.057   6.915
19241TIP3   OH2 8190   1.457   6.437   6.407
19241TIP3    H1 8191   1.374   6.393   6.379
19241TIP3    H2 8192   1.504   6.368   6.459
19242TIP3   OH2 8193   0.398   7.029   5.667
19242TIP3    H1 8194   0.462   7.094   5.697
19242TIP3    H2 8195   0.449   6.983   5.597
19243TIP3   OH2 8196   0.230   6.293   5.582
19243TIP3    H1 8197   0.234   6.390   5.596
19243TIP3    H2 8198   0.144   6.277   5.544
19244TIP3   OH2 8199   1.563   7.362   6.574
19244TIP3    H1 8200   1.554   7.431   6.505
19244TIP3    H2 8201   1.659   7.368   6.592
19245TIP3   OH2 8202   0.316   5.773   6.452
19245TIP3    H1 8203   0.290   5.776   6.357
19245TIP3    H2 8204   0.267   5.694   6.480
19246TIP3   OH2 8205   0.209   7.166   6.070
19246TIP3    H1 8206   0.123   7.210   6.066
19246TIP3    H2 8207   0.256   7.216   6.001
19247TIP3   OH2 8208   0.134   7.431   7.196
19247TIP3    H1 8209   0.191   7.410   7.273
19247TIP3    H2 8210   0.086   7.348   7.179
19248TIP3   OH2 8211   0.593   7.320   7.360
19248TIP3    H1 8212   0.675   7.278   7.391
19248TIP3    H2 8213   0.593   7.297   7.265
19249TIP3   OH2 8214   1.007   7.275   5.497
19249TIP3    H1 8215   0.937   7.210   5.519
19249TIP3    H2 8216   1.081   7.217   5.475
19250TIP3   OH2 8217   1.247   7.162   7.231
19250TIP3    H1 8218   1.215   7.075   7.262
19250TIP3    H2 8219   1.324   7.176   7.289
19251TIP3   OH2 8220   1.467   7.253   5.519
19251TIP3    H1 8221   1.492   7.171   5.565
19251TIP3    H2 8222   1.544   7.271   5.465
19252TIP3   OH2 8223   0.143   6.806   7.283
19252TIP3    H1 8224   0.151   6.712   7.253
19252TIP3    H2 8225   0.071   6.839   7.224
19253TIP3   OH2 8226   0.555   6.842   5.503
19253TIP3    H1 8227   0.569   6.766   5.561
19253TIP3    H2 8228   0.623   6.830   5.436
19254TIP3   OH2 8229   0.793   6.808   7.235
19254TIP3    H1 8230   0.757   6.839   7.149
19254TIP3    H2 8231   0.798   6.710   7.224
19255TIP3   OH2 8232   1.091   6.952   5.478
19255TIP3    H1 8233   1.069   6.966   5.572
19255TIP3    H2 8234   1.075   6.857   5.467
19256TIP3   OH2 8235   1.361   6.794   6.975
19256TIP3    H1 8236   1.439   6.853   6.968
19256TIP3    H2 8237   1.290   6.861   6.979
19257TIP3   OH2 8238   0.202   6.529   7.238
19257TIP3    H1 8239   0.256   6.450   7.222
19257TIP3    H2 8240   0.193   6.528   7.333
19258TIP3   OH2 8241   0.676   6.646   5.742
19258TIP3    H1 8242   0.625   6.593   5.805
19258TIP3    H2 8243   0.705   6.578   5.676
19259TIP3   OH2 8244   0.608   6.431   6.975
19259TIP3    H1 8245   0.539   6.497   6.996
19259TIP3    H2 8246   0.639   6.463   6.889
19260TIP3   OH2 8247   0.782   6.475   5.561
19260TIP3    H1 8248   0.769   6.451   5.468
19260TIP3    H2 8249   0.880   6.474   5.572
19261TIP3   OH2 8250   1.107   6.686   7.307
19261TIP3    H1 8251   1.203   6.682   7.291
19261TIP3    H2 8252   1.091   6.608   7.363
19262TIP3   OH2 8253   1.716   6.703   5.506
19262TIP3    H1 8254   1.693   6.662   5.422
19262TIP3    H2 8255   1.726   6.797   5.483
19263TIP3   OH2 8256   0.646   6.167   7.076
19263TIP3    H1 8257   0.652   6.094   7.011
19263TIP3    H2 8258   0.633   6.246   7.021
19264TIP3   OH2 8259   0.682   6.002   6.831
19264TIP3    H1 8260   0.733   6.050   6.761
19264TIP3    H2 8261   0.593   5.995   6.791
19265TIP3   OH2 8262   0.836   6.551   6.855
19265TIP3    H1 8263   0.910   6.534   6.797
19265TIP3    H2 8264   0.800   6.635   6.823
19266TIP3   OH2 8265   1.275   6.325   7.359
19266TIP3    H1 8266   1.298   6.233   7.342
19266TIP3    H2 8267   1.361   6.371   7.352
19267TIP3   OH2 8268   1.410   6.606   7.167
19267TIP3    H1 8269   1.385   6.679   7.106
19267TIP3    H2 8270   1.506   6.603   7.148
19268TIP3   OH2 8271   0.486   6.290   7.271
19268TIP3    H1 8272   0.408   6.233   7.251
19268TIP3    H2 8273   0.551   6.256   7.207
19269TIP3   OH2 8274   0.760   5.747   6.872
19269TIP3    H1 8275   0.743   5.843   6.861
19269TIP3    H2 8276   0.687   5.711   6.819
19270TIP3   OH2 8277   0.889   6.176   7.230
19270TIP3    H1 8278   0.855   6.158   7.320
19270TIP3    H2 8279   0.807   6.160   7.179
19271TIP3   OH2 8280   1.159   6.094   7.142
19271TIP3    H1 8281   1.063   6.098   7.154
19271TIP3    H2 8282   1.186   6.028   7.209
19272TIP3   OH2 8283   1.324   5.956   7.337
19272TIP3    H1 8284   1.309   5.859   7.333
19272TIP3    H2 8285   1.290   5.984   7.424
19273TIP3   OH2 8286   0.301   6.082   7.245
19273TIP3    H1 8287   0.323   6.010   7.183
19273TIP3    H2 8288   0.291   6.036   7.331
19274TIP3   OH2 8289   0.777   5.681   7.141
19274TIP3    H1 8290   0.848   5.613   7.141
19274TIP3    H2 8291   0.773   5.701   7.046
19275TIP3   OH2 8292   0.816   5.847   7.347
19275TIP3    H1 8293   0.801   5.796   7.265
19275TIP3    H2 8294   0.758   5.924   7.341
19276TIP3   OH2 8295   0.766   7.542   5.670
19276TIP3    H1 8296   0.864   7.546   5.674
19276TIP3    H2 8297   0.748   7.601   5.597
19277TIP3   OH2 8298   0.129   6.997   5.620
19277TIP3    H1 8299   0.224   7.008   5.640
19277TIP3    H2 8300   0.134   6.939   5.543
19278TIP3   OH2 8301   8.144   7.538   6.108
19278TIP3    H1 8302   8.068   7.489   6.075
19278TIP3    H2 8303   8.170   7.478   6.181
19279TIP3   OH2 8304   0.084   7.350   6.297
19279TIP3    H1 8305   0.048   7.261   6.315
19279TIP3    H2 8306   0.108   7.384   6.385
19280TIP3   OH2 8307   1.835   7.427   6.594
19280TIP3    H1 8308   1.838   7.444   6.690
19280TIP3    H2 8309   1.905   7.485   6.563
19281TIP3   OH2 8310   1.794   7.387   6.888
19281TIP3    H1 8311   1.745   7.310   6.851
19281TIP3    H2 8312   1.841   7.341   6.960
19282TIP3   OH2 8313   1.636   6.959   7.356
19282TIP3    H1 8314   1.547   6.956   7.396
19282TIP3    H2 8315   1.675   7.039   7.398
19283TIP3   OH2 8316   1.769   6.791   5.898
19283TIP3    H1 8317   1.855   6.831   5.917
19283TIP3    H2 8318   1.767   6.720   5.965
19284TIP3   OH2 8319   1.804   6.600   6.087
19284TIP3    H1 8320   1.729   6.549   6.125
19284TIP3    H2 8321   1.864   6.613   6.164
19285TIP3   OH2 8322   1.780   6.869   6.585
19285TIP3    H1 8323   1.862   6.832   6.548
19285TIP3    H2 8324   1.794   6.964   6.568
19286TIP3   OH2 8325   1.635   7.161   6.812
19286TIP3    H1 8326   1.567   7.194   6.872
19286TIP3    H2 8327   1.581   7.119   6.742
19287TIP3   OH2 8328   1.835   6.583   5.724
19287TIP3    H1 8329   1.777   6.618   5.653
19287TIP3    H2 8330   1.825   6.653   5.792
19288TIP3   OH2 8331   1.668   6.303   5.582
19288TIP3    H1 8332   1.678   6.369   5.513
19288TIP3    H2 8333   1.653   6.222   5.530
19289TIP3   OH2 8334   1.586   6.447   6.144
19289TIP3    H1 8335   1.572   6.351   6.140
19289TIP3    H2 8336   1.553   6.469   6.232
19290TIP3   OH2 8337   0.082   6.653   6.543
19290TIP3    H1 8338   0.111   6.648   6.450
19290TIP3    H2 8339   0.168   6.639   6.589
19291TIP3   OH2 8340   1.673   6.643   7.112
19291TIP3    H1 8341   1.734   6.568   7.127
19291TIP3    H2 8342   1.733   6.721   7.113
19292TIP3   OH2 8343   1.822   6.433   7.174
19292TIP3    H1 8344   1.734   6.392   7.161
19292TIP3    H2 8345   1.880   6.356   7.170
19293TIP3   OH2 8346   1.595   6.054   5.496
19293TIP3    H1 8347   1.655   6.006   5.556
19293TIP3    H2 8348   1.509   6.010   5.508
19294TIP3   OH2 8349   1.553   6.205   5.992
19294TIP3    H1 8350   1.583   6.112   6.003
19294TIP3    H2 8351   1.632   6.245   5.952
19295TIP3   OH2 8352   1.617   6.260   6.534
19295TIP3    H1 8353   1.713   6.283   6.532
19295TIP3    H2 8354   1.598   6.274   6.628
19296TIP3   OH2 8355   1.624   6.332   6.812
19296TIP3    H1 8356   1.535   6.361   6.845
19296TIP3    H2 8357   1.667   6.418   6.790
19297TIP3   OH2 8358   0.058   6.170   7.152
19297TIP3    H1 8359   0.151   6.159   7.181
19297TIP3    H2 8360   0.010   6.099   7.195
19298TIP3   OH2 8361   1.846   5.735   7.345
19298TIP3    H1 8362   1.884   5.670   7.285
19298TIP3    H2 8363   1.863   5.819   7.299
19299TIP3   OH2 8364   1.620   5.933   5.994
19299TIP3    H1 8365   1.641   5.889   6.080
19299TIP3    H2 8366   1.559   5.870   5.950
19300TIP3   OH2 8367   0.167   6.012   6.447
19300TIP3    H1 8368   0.214   5.931   6.477
19300TIP3    H2 8369   0.218   6.082   6.490
19301TIP3   OH2 8370  -0.001   6.358   6.480
19301TIP3    H1 8371   0.064   6.286   6.461
19301TIP3    H2 8372   0.048   6.387   6.560
19302TIP3   OH2 8373   1.802   5.946   7.183
19302TIP3    H1 8374   1.709   5.975   7.175
19302TIP3    H2 8375   1.807   5.893   7.102
19303TIP3   OH2 8376   1.802   5.939   5.648
19303TIP3    H1 8377   1.846   5.867   5.601
19303TIP3    H2 8378   1.874   6.004   5.655
19304TIP3   OH2 8379   0.050   5.929   5.960
19304TIP3    H1 8380  -0.044   5.947   5.937
19304TIP3    H2 8381   0.093   5.993   5.902
19305TIP3   OH2 8382   1.507   7.434   6.156
19305TIP3    H1 8383   1.576   7.404   6.094
19305TIP3    H2 8384   1.559   7.485   6.221
19306TIP3   OH2 8385   8.179   5.826   6.809
19306TIP3    H1 8386   8.107   5.788   6.858
19306TIP3    H2 8387   8.128   5.878   6.744
19307TIP3   OH2 8388   0.248   7.130   7.212
19307TIP3    H1 8389   0.164   7.147   7.165
19307TIP3    H2 8390   0.219   7.122   7.303
19308TIP3   OH2 8391   0.542   7.226   6.835
19308TIP3    H1 8392   0.506   7.312   6.808
19308TIP3    H2 8393   0.635   7.236   6.804
19309TIP3   OH2 8394   0.974   7.368   7.123
19309TIP3    H1 8395   0.989   7.335   7.216
19309TIP3    H2 8396   1.065   7.398   7.101
19310TIP3   OH2 8397   1.203   7.494   7.059
19310TIP3    H1 8398   1.276   7.437   7.031
19310TIP3    H2 8399   1.242   7.538   7.134
19311TIP3   OH2 8400   1.704   5.757   6.966
19311TIP3    H1 8401   1.621   5.787   6.925
19311TIP3    H2 8402   1.721   5.675   6.914
19312TIP3   OH2 8403   0.283   7.546   6.836
19312TIP3    H1 8404   0.211   7.599   6.796
19312TIP3    H2 8405   0.249   7.532   6.926
19313TIP3   OH2 8406   0.532   7.507   6.742
19313TIP3    H1 8407   0.442   7.523   6.781
19313TIP3    H2 8408   0.526   7.566   6.665
19314TIP3   OH2 8409   1.003   7.499   6.660
19314TIP3    H1 8410   0.957   7.554   6.594
19314TIP3    H2 8411   1.016   7.564   6.732
19315TIP3   OH2 8412   1.231   7.381   6.763
19315TIP3    H1 8413   1.146   7.408   6.725
19315TIP3    H2 8414   1.279   7.465   6.751
19316TIP3   OH2 8415   1.488   7.538   6.784
19316TIP3    H1 8416   1.482   7.635   6.761
19316TIP3    H2 8417   1.510   7.501   6.697
19317TIP3   OH2 8418   0.228   7.413   6.527
19317TIP3    H1 8419   0.227   7.370   6.615
19317TIP3    H2 8420   0.312   7.379   6.488
19318TIP3   OH2 8421   0.436   7.286   6.395
19318TIP3    H1 8422   0.421   7.192   6.416
19318TIP3    H2 8423   0.522   7.302   6.440
19319TIP3   OH2 8424   0.697   7.334   6.482
19319TIP3    H1 8425   0.714   7.242   6.455
19319TIP3    H2 8426   0.701   7.327   6.579
19320TIP3   OH2 8427   1.044   5.900   6.396
19320TIP3    H1 8428   0.976   5.836   6.423
19320TIP3    H2 8429   1.099   5.847   6.337
19321TIP3   OH2 8430   1.558   5.704   6.403
19321TIP3    H1 8431   1.619   5.764   6.352
19321TIP3    H2 8432   1.469   5.741   6.379
19322TIP3   OH2 8433   1.724   5.829   6.230
19322TIP3    H1 8434   1.793   5.771   6.188
19322TIP3    H2 8435   1.775   5.913   6.240
19323TIP3   OH2 8436   0.280   5.761   6.179
19323TIP3    H1 8437   0.199   5.740   6.129
19323TIP3    H2 8438   0.329   5.676   6.174
19324TIP3   OH2 8439   0.160   5.737   5.752
19324TIP3    H1 8440   0.205   5.805   5.701
19324TIP3    H2 8441   0.099   5.786   5.808
19325TIP3   OH2 8442   0.729   5.755   6.159
19325TIP3    H1 8443   0.819   5.791   6.152
19325TIP3    H2 8444   0.725   5.733   6.252
19326TIP3   OH2 8445   1.299   5.757   6.322
19326TIP3    H1 8446   1.295   5.768   6.226
19326TIP3    H2 8447   1.261   5.666   6.334
19327TIP3   OH2 8448   1.427   5.760   5.887
19327TIP3    H1 8449   1.352   5.819   5.872
19327TIP3    H2 8450   1.383   5.675   5.911
19328TIP3   OH2 8451   0.147   7.335   5.857
19328TIP3    H1 8452   0.087   7.332   5.782
19328TIP3    H2 8453   0.156   7.430   5.869
19329TIP3   OH2 8454   0.340   5.930   5.606
19329TIP3    H1 8455   0.407   5.879   5.564
19329TIP3    H2 8456   0.401   5.971   5.670
19330TIP3   OH2 8457   0.844   5.957   5.844
19330TIP3    H1 8458   0.869   5.899   5.918
19330TIP3    H2 8459   0.850   6.043   5.892
19331TIP3   OH2 8460   1.035   7.467   5.685
19331TIP3    H1 8461   1.129   7.485   5.669
19331TIP3    H2 8462   1.016   7.410   5.607
19332TIP3   OH2 8463   1.707   7.414   5.960
19332TIP3    H1 8464   1.686   7.337   5.902
19332TIP3    H2 8465   1.698   7.488   5.896
19333TIP3   OH2 8466   0.265   5.814   7.125
19333TIP3    H1 8467   0.230   5.738   7.172
19333TIP3    H2 8468   0.358   5.816   7.162
19334TIP3   OH2 8469   0.468   5.751   7.282
19334TIP3    H1 8470   0.561   5.723   7.267
19334TIP3    H2 8471   0.437   5.675   7.335
19335TIP3   OH2 8472   0.336   7.433   5.550
19335TIP3    H1 8473   0.303   7.460   5.636
19335TIP3    H2 8474   0.407   7.373   5.569
19336TIP3   OH2 8475   1.312   5.686   7.304
19336TIP3    H1 8476   1.316   5.636   7.388
19336TIP3    H2 8477   1.402   5.679   7.267
19337TIP3   OH2 8478   1.630   7.288   7.169
19337TIP3    H1 8479   1.550   7.273   7.114
19337TIP3    H2 8480   1.619   7.382   7.189
19338TIP3   OH2 8481   3.075   6.677   6.168
19338TIP3    H1 8482   3.074   6.775   6.162
19338TIP3    H2 8483   3.003   6.653   6.107
19339TIP3   OH2 8484   2.961   6.602   6.516
19339TIP3    H1 8485   2.959   6.537   6.588
19339TIP3    H2 8486   2.927   6.552   6.441
19340TIP3   OH2 8487   2.196   6.569   6.671
19340TIP3    H1 8488   2.205   6.501   6.741
19340TIP3    H2 8489   2.271   6.626   6.694
19341TIP3   OH2 8490   3.330   6.896   6.345
19341TIP3    H1 8491   3.288   6.825   6.394
19341TIP3    H2 8492   3.332   6.967   6.412
19342TIP3   OH2 8493   2.289   7.014   6.522
19342TIP3    H1 8494   2.258   6.927   6.490
19342TIP3    H2 8495   2.384   6.995   6.527
19343TIP3   OH2 8496   1.953   6.370   6.070
19343TIP3    H1 8497   1.909   6.457   6.064
19343TIP3    H2 8498   1.896   6.316   6.014
19344TIP3   OH2 8499   2.024   6.592   6.285
19344TIP3    H1 8500   2.051   6.510   6.330
19344TIP3    H2 8501   2.094   6.603   6.219
19345TIP3   OH2 8502   3.042   7.412   6.368
19345TIP3    H1 8503   3.106   7.343   6.340
19345TIP3    H2 8504   3.020   7.379   6.456
19346TIP3   OH2 8505   2.798   6.842   6.563
19346TIP3    H1 8506   2.832   6.779   6.497
19346TIP3    H2 8507   2.879   6.858   6.615
19347TIP3   OH2 8508   3.658   6.008   6.636
19347TIP3    H1 8509   3.676   6.067   6.713
19347TIP3    H2 8510   3.715   6.050   6.570
19348TIP3   OH2 8511   3.115   6.289   6.594
19348TIP3    H1 8512   3.132   6.193   6.595
19348TIP3    H2 8513   3.105   6.303   6.498
19349TIP3   OH2 8514   2.427   6.097   6.316
19349TIP3    H1 8515   2.437   6.181   6.267
19349TIP3    H2 8516   2.387   6.040   6.247
19350TIP3   OH2 8517   3.200   6.106   6.154
19350TIP3    H1 8518   3.266   6.074   6.220
19350TIP3    H2 8519   3.256   6.163   6.099
19351TIP3   OH2 8520   2.089   6.338   6.390
19351TIP3    H1 8521   2.156   6.284   6.435
19351TIP3    H2 8522   2.099   6.307   6.299
19352TIP3   OH2 8523   2.605   6.494   6.321
19352TIP3    H1 8524   2.672   6.436   6.361
19352TIP3    H2 8525   2.553   6.428   6.271
19353TIP3   OH2 8526   3.706   6.149   6.865
19353TIP3    H1 8527   3.643   6.223   6.853
19353TIP3    H2 8528   3.705   6.137   6.961
19354TIP3   OH2 8529   2.317   5.987   6.720
19354TIP3    H1 8530   2.289   6.044   6.646
19354TIP3    H2 8531   2.249   6.010   6.788
19355TIP3   OH2 8532   3.046   6.936   6.075
19355TIP3    H1 8533   3.019   6.907   5.987
19355TIP3    H2 8534   3.016   7.030   6.078
19356TIP3   OH2 8535   2.569   6.752   6.744
19356TIP3    H1 8536   2.498   6.816   6.766
19356TIP3    H2 8537   2.640   6.812   6.716
19357TIP3   OH2 8538   3.381   6.040   6.353
19357TIP3    H1 8539   3.359   5.963   6.406
19357TIP3    H2 8540   3.448   6.084   6.408
19358TIP3   OH2 8541   2.274   6.173   6.523
19358TIP3    H1 8542   2.337   6.242   6.555
19358TIP3    H2 8543   2.326   6.132   6.449
19359TIP3   OH2 8544   2.413   6.952   6.826
19359TIP3    H1 8545   2.408   7.044   6.792
19359TIP3    H2 8546   2.325   6.944   6.870
19360TIP3   OH2 8547   2.020   6.914   5.905
19360TIP3    H1 8548   1.998   6.946   5.815
19360TIP3    H2 8549   2.028   6.997   5.956
19361TIP3   OH2 8550   3.383   7.080   6.581
19361TIP3    H1 8551   3.286   7.091   6.593
19361TIP3    H2 8552   3.409   7.172   6.561
19362TIP3   OH2 8553   3.414   5.909   6.720
19362TIP3    H1 8554   3.342   5.972   6.712
19362TIP3    H2 8555   3.486   5.951   6.668
19363TIP3   OH2 8556   2.712   5.721   6.467
19363TIP3    H1 8557   2.698   5.624   6.460
19363TIP3    H2 8558   2.624   5.751   6.497
19364TIP3   OH2 8559   3.209   7.258   6.243
19364TIP3    H1 8560   3.251   7.187   6.190
19364TIP3    H2 8561   3.251   7.337   6.202
19365TIP3   OH2 8562   3.333   7.051   6.089
19365TIP3    H1 8563   3.300   6.981   6.030
19365TIP3    H2 8564   3.333   7.004   6.175
19366TIP3   OH2 8565   3.493   6.911   6.941
19366TIP3    H1 8566   3.506   6.846   6.869
19366TIP3    H2 8567   3.512   6.996   6.897
19367TIP3   OH2 8568   2.942   6.602   5.920
19367TIP3    H1 8569   2.871   6.655   5.880
19367TIP3    H2 8570   3.010   6.607   5.850
19368TIP3   OH2 8571   2.965   6.483   5.614
19368TIP3    H1 8572   3.019   6.455   5.690
19368TIP3    H2 8573   2.963   6.394   5.572
19369TIP3   OH2 8574   3.680   6.542   6.746
19369TIP3    H1 8575   3.614   6.614   6.750
19369TIP3    H2 8576   3.728   6.566   6.665
19370TIP3   OH2 8577   3.286   6.623   6.012
19370TIP3    H1 8578   3.211   6.646   6.071
19370TIP3    H2 8579   3.333   6.554   6.062
19371TIP3   OH2 8580   3.279   6.438   6.921
19371TIP3    H1 8581   3.279   6.519   6.976
19371TIP3    H2 8582   3.215   6.467   6.853
19372TIP3   OH2 8583   2.447   6.687   6.201
19372TIP3    H1 8584   2.415   6.648   6.117
19372TIP3    H2 8585   2.508   6.618   6.235
19373TIP3   OH2 8586   2.579   7.026   6.470
19373TIP3    H1 8587   2.578   6.973   6.389
19373TIP3    H2 8588   2.657   6.990   6.516
19374TIP3   OH2 8589   2.480   6.562   6.567
19374TIP3    H1 8590   2.535   6.572   6.487
19374TIP3    H2 8591   2.519   6.628   6.629
19375TIP3   OH2 8592   3.121   7.119   6.638
19375TIP3    H1 8593   3.092   7.182   6.704
19375TIP3    H2 8594   3.096   7.033   6.680
19376TIP3   OH2 8595   2.575   7.003   7.038
19376TIP3    H1 8596   2.535   7.079   7.087
19376TIP3    H2 8597   2.507   6.985   6.969
19377TIP3   OH2 8598   3.174   6.541   5.780
19377TIP3    H1 8599   3.231   6.558   5.859
19377TIP3    H2 8600   3.215   6.591   5.705
19378TIP3   OH2 8601   2.269   6.622   6.952
19378TIP3    H1 8602   2.274   6.686   7.026
19378TIP3    H2 8603   2.175   6.630   6.931
19379TIP3   OH2 8604   2.945   7.213   6.123
19379TIP3    H1 8605   2.989   7.245   6.203
19379TIP3    H2 8606   2.888   7.288   6.100
19380TIP3   OH2 8607   2.400   7.207   7.111
19380TIP3    H1 8608   2.393   7.197   7.014
19380TIP3    H2 8609   2.307   7.196   7.139
19381TIP3   OH2 8610   3.545   5.714   5.767
19381TIP3    H1 8611   3.450   5.725   5.790
19381TIP3    H2 8612   3.566   5.799   5.725
19382TIP3   OH2 8613   2.343   6.590   5.965
19382TIP3    H1 8614   2.316   6.667   5.911
19382TIP3    H2 8615   2.279   6.523   5.940
19383TIP3   OH2 8616   3.661   7.170   5.601
19383TIP3    H1 8617   3.677   7.264   5.617
19383TIP3    H2 8618   3.749   7.129   5.585
19384TIP3   OH2 8619   1.952   6.832   6.852
19384TIP3    H1 8620   1.908   6.824   6.766
19384TIP3    H2 8621   1.960   6.737   6.874
19385TIP3   OH2 8622   1.929   7.106   6.530
19385TIP3    H1 8623   2.025   7.094   6.529
19385TIP3    H2 8624   1.921   7.187   6.581
19386TIP3   OH2 8625   3.753   7.177   7.098
19386TIP3    H1 8626   3.741   7.081   7.097
19386TIP3    H2 8627   3.666   7.201   7.138
19387TIP3   OH2 8628   2.848   7.130   6.985
19387TIP3    H1 8629   2.855   7.213   7.038
19387TIP3    H2 8630   2.761   7.094   7.012
19388TIP3   OH2 8631   2.890   7.505   5.964
19388TIP3    H1 8632   2.885   7.498   5.867
19388TIP3    H2 8633   2.895   7.601   5.980
19389TIP3   OH2 8634   2.256   7.392   6.147
19389TIP3    H1 8635   2.271   7.351   6.235
19389TIP3    H2 8636   2.171   7.352   6.123
19390TIP3   OH2 8637   3.174   7.405   5.664
19390TIP3    H1 8638   3.244   7.353   5.618
19390TIP3    H2 8639   3.205   7.400   5.756
19391TIP3   OH2 8640   3.167   7.420   5.943
19391TIP3    H1 8641   3.071   7.426   5.959
19391TIP3    H2 8642   3.192   7.344   5.998
19392TIP3   OH2 8643   3.467   6.322   7.143
19392TIP3    H1 8644   3.419   6.368   7.072
19392TIP3    H2 8645   3.468   6.229   7.115
19393TIP3   OH2 8646   2.181   6.963   6.945
19393TIP3    H1 8647   2.203   6.927   7.034
19393TIP3    H2 8648   2.094   6.924   6.925
19394TIP3   OH2 8649   2.449   5.811   6.542
19394TIP3    H1 8650   2.359   5.799   6.505
19394TIP3    H2 8651   2.436   5.894   6.590
19395TIP3   OH2 8652   2.914   5.778   6.878
19395TIP3    H1 8653   2.953   5.736   6.957
19395TIP3    H2 8654   2.816   5.766   6.892
19396TIP3   OH2 8655   3.243   6.162   6.969
19396TIP3    H1 8656   3.186   6.142   7.047
19396TIP3    H2 8657   3.225   6.255   6.946
19397TIP3   OH2 8658   3.322   6.633   5.550
19397TIP3    H1 8659   3.320   6.628   5.453
19397TIP3    H2 8660   3.399   6.692   5.561
19398TIP3   OH2 8661   2.885   5.929   5.647
19398TIP3    H1 8662   2.859   6.014   5.690
19398TIP3    H2 8663   2.834   5.944   5.569
19399TIP3   OH2 8664   2.460   6.308   6.667
19399TIP3    H1 8665   2.386   6.307   6.731
19399TIP3    H2 8666   2.455   6.399   6.630
19400TIP3   OH2 8667   2.455   6.321   6.154
19400TIP3    H1 8668   2.362   6.295   6.140
19400TIP3    H2 8669   2.494   6.291   6.069
19401TIP3   OH2 8670   3.009   6.372   6.031
19401TIP3    H1 8671   2.968   6.454   5.995
19401TIP3    H2 8672   3.074   6.353   5.961
19402TIP3   OH2 8673   2.917   6.385   7.166
19402TIP3    H1 8674   2.859   6.318   7.209
19402TIP3    H2 8675   2.995   6.382   7.224
19403TIP3   OH2 8676   3.111   6.319   6.315
19403TIP3    H1 8677   3.083   6.375   6.241
19403TIP3    H2 8678   3.121   6.234   6.268
19404TIP3   OH2 8679   2.222   6.334   6.836
19404TIP3    H1 8680   2.229   6.374   6.924
19404TIP3    H2 8681   2.177   6.250   6.856
19405TIP3   OH2 8682   2.557   6.063   5.515
19405TIP3    H1 8683   2.515   6.031   5.597
19405TIP3    H2 8684   2.489   6.115   5.471
19406TIP3   OH2 8685   1.887   6.045   6.233
19406TIP3    H1 8686   1.955   6.041   6.303
19406TIP3    H2 8687   1.933   6.007   6.155
19407TIP3   OH2 8688   2.016   6.117   5.773
19407TIP3    H1 8689   2.066   6.176   5.713
19407TIP3    H2 8690   1.947   6.180   5.803
19408TIP3   OH2 8691   3.031   6.478   6.772
19408TIP3    H1 8692   3.068   6.410   6.713
19408TIP3    H2 8693   2.984   6.424   6.839
19409TIP3   OH2 8694   2.711   6.075   6.254
19409TIP3    H1 8695   2.618   6.076   6.283
19409TIP3    H2 8696   2.759   6.059   6.337
19410TIP3   OH2 8697   2.192   6.230   6.141
19410TIP3    H1 8698   2.104   6.246   6.102
19410TIP3    H2 8699   2.222   6.147   6.100
19411TIP3   OH2 8700   2.554   6.240   5.909
19411TIP3    H1 8701   2.652   6.244   5.918
19411TIP3    H2 8702   2.534   6.300   5.835
19412TIP3   OH2 8703   3.152   5.999   6.578
19412TIP3    H1 8704   3.083   6.004   6.648
19412TIP3    H2 8705   3.101   5.974   6.500
19413TIP3   OH2 8706   2.428   6.353   5.666
19413TIP3    H1 8707   2.370   6.319   5.595
19413TIP3    H2 8708   2.509   6.374   5.616
19414TIP3   OH2 8709   3.472   7.562   7.212
19414TIP3    H1 8710   3.499   7.602   7.127
19414TIP3    H2 8711   3.545   7.593   7.269
19415TIP3   OH2 8712   2.238   6.812   7.167
19415TIP3    H1 8713   2.310   6.835   7.229
19415TIP3    H2 8714   2.161   6.820   7.227
19416TIP3   OH2 8715   2.839   6.351   6.443
19416TIP3    H1 8716   2.899   6.298   6.390
19416TIP3    H2 8717   2.825   6.296   6.522
19417TIP3   OH2 8718   2.340   5.966   6.087
19417TIP3    H1 8719   2.310   5.873   6.086
19417TIP3    H2 8720   2.419   5.959   6.032
19418TIP3   OH2 8721   2.703   6.184   6.685
19418TIP3    H1 8722   2.621   6.236   6.694
19418TIP3    H2 8723   2.759   6.219   6.757
19419TIP3   OH2 8724   2.762   6.807   5.853
19419TIP3    H1 8725   2.682   6.759   5.822
19419TIP3    H2 8726   2.741   6.818   5.948
19420TIP3   OH2 8727   3.480   6.726   6.735
19420TIP3    H1 8728   3.537   6.774   6.672
19420TIP3    H2 8729   3.394   6.731   6.688
19421TIP3   OH2 8730   3.148   6.084   5.678
19421TIP3    H1 8731   3.055   6.102   5.655
19421TIP3    H2 8732   3.177   6.173   5.702
19422TIP3   OH2 8733   2.911   6.833   6.977
19422TIP3    H1 8734   2.877   6.790   7.056
19422TIP3    H2 8735   2.886   6.925   6.990
19423TIP3   OH2 8736   3.219   6.281   5.842
19423TIP3    H1 8737   3.309   6.266   5.876
19423TIP3    H2 8738   3.226   6.359   5.785
19424TIP3   OH2 8739   2.273   6.746   6.435
19424TIP3    H1 8740   2.342   6.737   6.366
19424TIP3    H2 8741   2.279   6.659   6.480
19425TIP3   OH2 8742   2.970   6.953   5.761
19425TIP3    H1 8743   2.936   7.038   5.796
19425TIP3    H2 8744   2.896   6.892   5.782
19426TIP3   OH2 8745   1.972   6.586   6.960
19426TIP3    H1 8746   1.989   6.542   7.046
19426TIP3    H2 8747   1.910   6.525   6.917
19427TIP3   OH2 8748   2.672   6.544   7.174
19427TIP3    H1 8749   2.642   6.509   7.090
19427TIP3    H2 8750   2.761   6.508   7.184
19428TIP3   OH2 8751   3.141   7.075   6.973
19428TIP3    H1 8752   3.049   7.093   6.950
19428TIP3    H2 8753   3.139   7.105   7.066
19429TIP3   OH2 8754   3.708   6.294   5.814
19429TIP3    H1 8755   3.651   6.264   5.740
19429TIP3    H2 8756   3.716   6.387   5.786
19430TIP3   OH2 8757   3.708   6.879   7.092
19430TIP3    H1 8758   3.619   6.901   7.055
19430TIP3    H2 8759   3.763   6.875   7.012
19431TIP3   OH2 8760   3.544   7.173   5.857
19431TIP3    H1 8761   3.498   7.092   5.882
19431TIP3    H2 8762   3.563   7.160   5.761
19432TIP3   OH2 8763   3.258   6.658   6.563
19432TIP3    H1 8764   3.164   6.637   6.552
19432TIP3    H2 8765   3.301   6.582   6.520
19433TIP3   OH2 8766   2.510   7.091   6.173
19433TIP3    H1 8767   2.560   7.171   6.152
19433TIP3    H2 8768   2.422   7.114   6.140
19434TIP3   OH2 8769   2.084   6.576   5.624
19434TIP3    H1 8770   2.146   6.638   5.666
19434TIP3    H2 8771   1.998   6.605   5.660
19435TIP3   OH2 8772   2.652   6.858   6.124
19435TIP3    H1 8773   2.621   6.950   6.134
19435TIP3    H2 8774   2.580   6.809   6.169
19436TIP3   OH2 8775   2.697   7.276   6.765
19436TIP3    H1 8776   2.743   7.357   6.737
19436TIP3    H2 8777   2.759   7.242   6.833
19437TIP3   OH2 8778   2.519   7.356   6.079
19437TIP3    H1 8779   2.423   7.369   6.092
19437TIP3    H2 8780   2.555   7.441   6.112
19438TIP3   OH2 8781   3.050   6.876   6.726
19438TIP3    H1 8782   3.016   6.857   6.816
19438TIP3    H2 8783   3.114   6.805   6.711
19439TIP3   OH2 8784   3.266   6.996   5.663
19439TIP3    H1 8785   3.309   6.930   5.719
19439TIP3    H2 8786   3.178   6.959   5.650
19440TIP3   OH2 8787   3.330   7.335   6.978
19440TIP3    H1 8788   3.262   7.284   6.930
19440TIP3    H2 8789   3.349   7.404   6.911
19441TIP3   OH2 8790   3.727   7.429   5.657
19441TIP3    H1 8791   3.799   7.490   5.638
19441TIP3    H2 8792   3.654   7.486   5.690
19442TIP3   OH2 8793   2.137   6.059   6.915
19442TIP3    H1 8794   2.046   6.095   6.913
19442TIP3    H2 8795   2.126   5.975   6.962
19443TIP3   OH2 8796   3.361   6.848   5.867
19443TIP3    H1 8797   3.337   6.766   5.914
19443TIP3    H2 8798   3.458   6.851   5.879
19444TIP3   OH2 8799   2.099   7.238   6.759
19444TIP3    H1 8800   2.128   7.146   6.759
19444TIP3    H2 8801   2.125   7.267   6.847
19445TIP3   OH2 8802   2.695   7.087   5.483
19445TIP3    H1 8803   2.710   7.010   5.428
19445TIP3    H2 8804   2.651   7.050   5.563
19446TIP3   OH2 8805   2.574   7.045   5.730
19446TIP3    H1 8806   2.599   6.992   5.807
19446TIP3    H2 8807   2.581   7.138   5.762
19447TIP3   OH2 8808   2.225   6.769   5.777
19447TIP3    H1 8809   2.157   6.809   5.835
19447TIP3    H2 8810   2.278   6.846   5.752
19448TIP3   OH2 8811   3.010   6.036   6.810
19448TIP3    H1 8812   3.081   6.043   6.875
19448TIP3    H2 8813   2.972   5.949   6.831
19449TIP3   OH2 8814   3.086   5.993   5.924
19449TIP3    H1 8815   3.105   6.039   5.839
19449TIP3    H2 8816   3.144   6.039   5.984
19450TIP3   OH2 8817   2.854   7.209   5.799
19450TIP3    H1 8818   2.772   7.262   5.809
19450TIP3    H2 8819   2.906   7.264   5.738
19451TIP3   OH2 8820   2.806   6.169   6.005
19451TIP3    H1 8821   2.886   6.226   6.004
19451TIP3    H2 8822   2.782   6.156   6.098
19452TIP3   OH2 8823   2.862   6.271   6.921
19452TIP3    H1 8824   2.870   6.327   7.001
19452TIP3    H2 8825   2.929   6.203   6.932
19453TIP3   OH2 8826   2.894   5.875   6.091
19453TIP3    H1 8827   2.861   5.941   6.155
19453TIP3    H2 8828   2.961   5.930   6.044
19454TIP3   OH2 8829   2.591   7.313   5.806
19454TIP3    H1 8830   2.606   7.395   5.753
19454TIP3    H2 8831   2.566   7.349   5.893
19455TIP3   OH2 8832   2.457   5.984   5.767
19455TIP3    H1 8833   2.455   6.076   5.797
19455TIP3    H2 8834   2.550   5.961   5.789
19456TIP3   OH2 8835   3.481   6.058   7.005
19456TIP3    H1 8836   3.388   6.089   6.993
19456TIP3    H2 8837   3.510   6.057   6.912
19457TIP3   OH2 8838   3.342   6.437   6.408
19457TIP3    H1 8839   3.260   6.393   6.379
19457TIP3    H2 8840   3.390   6.368   6.459
19458TIP3   OH2 8841   2.284   7.028   5.668
19458TIP3    H1 8842   2.348   7.094   5.697
19458TIP3    H2 8843   2.334   6.983   5.597
19459TIP3   OH2 8844   2.120   6.296   5.585
19459TIP3    H1 8845   2.118   6.393   5.597
19459TIP3    H2 8846   2.033   6.277   5.548
19460TIP3   OH2 8847   3.449   7.362   6.574
19460TIP3    H1 8848   3.439   7.431   6.505
19460TIP3    H2 8849   3.545   7.368   6.592
19461TIP3   OH2 8850   2.198   5.775   6.454
19461TIP3    H1 8851   2.178   5.777   6.358
19461TIP3    H2 8852   2.156   5.690   6.480
19462TIP3   OH2 8853   2.094   7.167   6.068
19462TIP3    H1 8854   2.008   7.212   6.065
19462TIP3    H2 8855   2.141   7.214   5.999
19463TIP3   OH2 8856   2.014   7.434   7.197
19463TIP3    H1 8857   2.077   7.413   7.270
19463TIP3    H2 8858   1.976   7.346   7.180
19464TIP3   OH2 8859   2.479   7.323   7.361
19464TIP3    H1 8860   2.558   7.278   7.393
19464TIP3    H2 8861   2.476   7.296   7.268
19465TIP3   OH2 8862   2.894   7.275   5.497
19465TIP3    H1 8863   2.823   7.210   5.519
19465TIP3    H2 8864   2.969   7.218   5.476
19466TIP3   OH2 8865   3.132   7.162   7.231
19466TIP3    H1 8866   3.102   7.073   7.260
19466TIP3    H2 8867   3.209   7.176   7.290
19467TIP3   OH2 8868   3.350   7.254   5.520
19467TIP3    H1 8869   3.377   7.169   5.561
19467TIP3    H2 8870   3.428   7.272   5.467
19468TIP3   OH2 8871   2.006   6.808   7.295
19468TIP3    H1 8872   2.022   6.717   7.265
19468TIP3    H2 8873   1.931   6.835   7.239
19469TIP3   OH2 8874   2.443   6.844   5.503
19469TIP3    H1 8875   2.454   6.766   5.560
19469TIP3    H2 8876   2.509   6.829   5.434
19470TIP3   OH2 8877   2.679   6.810   7.231
19470TIP3    H1 8878   2.642   6.838   7.146
19470TIP3    H2 8879   2.683   6.711   7.226
19471TIP3   OH2 8880   2.971   6.953   5.477
19471TIP3    H1 8881   2.957   6.966   5.573
19471TIP3    H2 8882   2.963   6.857   5.467
19472TIP3   OH2 8883   3.247   6.795   6.973
19472TIP3    H1 8884   3.326   6.854   6.967
19472TIP3    H2 8885   3.176   6.861   6.980
19473TIP3   OH2 8886   2.091   6.530   7.233
19473TIP3    H1 8887   2.138   6.447   7.225
19473TIP3    H2 8888   2.073   6.533   7.329
19474TIP3   OH2 8889   2.561   6.647   5.742
19474TIP3    H1 8890   2.511   6.592   5.805
19474TIP3    H2 8891   2.592   6.578   5.677
19475TIP3   OH2 8892   2.486   6.427   6.970
19475TIP3    H1 8893   2.428   6.499   6.998
19475TIP3    H2 8894   2.526   6.464   6.889
19476TIP3   OH2 8895   2.667   6.479   5.559
19476TIP3    H1 8896   2.657   6.447   5.468
19476TIP3    H2 8897   2.764   6.468   5.572
19477TIP3   OH2 8898   3.615   6.696   5.504
19477TIP3    H1 8899   3.576   6.664   5.423
19477TIP3    H2 8900   3.602   6.794   5.486
19478TIP3   OH2 8901   2.527   6.165   7.076
19478TIP3    H1 8902   2.539   6.094   7.011
19478TIP3    H2 8903   2.523   6.246   7.021
19479TIP3   OH2 8904   2.568   6.003   6.832
19479TIP3    H1 8905   2.619   6.049   6.761
19479TIP3    H2 8906   2.478   5.995   6.791
19480TIP3   OH2 8907   2.721   6.551   6.856
19480TIP3    H1 8908   2.797   6.535   6.799
19480TIP3    H2 8909   2.684   6.634   6.822
19481TIP3   OH2 8910   3.160   6.327   7.351
19481TIP3    H1 8911   3.185   6.235   7.348
19481TIP3    H2 8912   3.247   6.370   7.359
19482TIP3   OH2 8913   3.296   6.606   7.164
19482TIP3    H1 8914   3.270   6.680   7.106
19482TIP3    H2 8915   3.392   6.605   7.150
19483TIP3   OH2 8916   2.372   6.289   7.268
19483TIP3    H1 8917   2.295   6.231   7.251
19483TIP3    H2 8918   2.439   6.253   7.208
19484TIP3   OH2 8919   2.647   5.747   6.871
19484TIP3    H1 8920   2.629   5.843   6.861
19484TIP3    H2 8921   2.571   5.710   6.822
19485TIP3   OH2 8922   2.775   6.175   7.232
19485TIP3    H1 8923   2.744   6.160   7.323
19485TIP3    H2 8924   2.695   6.162   7.179
19486TIP3   OH2 8925   3.046   6.087   7.137
19486TIP3    H1 8926   2.951   6.101   7.153
19486TIP3    H2 8927   3.072   6.030   7.211
19487TIP3   OH2 8928   3.203   5.957   7.338
19487TIP3    H1 8929   3.199   5.859   7.335
19487TIP3    H2 8930   3.176   5.982   7.427
19488TIP3   OH2 8931   2.182   6.082   7.243
19488TIP3    H1 8932   2.208   6.008   7.185
19488TIP3    H2 8933   2.174   6.039   7.331
19489TIP3   OH2 8934   2.665   5.683   7.142
19489TIP3    H1 8935   2.735   5.615   7.139
19489TIP3    H2 8936   2.656   5.700   7.047
19490TIP3   OH2 8937   2.705   5.846   7.351
19490TIP3    H1 8938   2.690   5.797   7.266
19490TIP3    H2 8939   2.645   5.924   7.339
19491TIP3   OH2 8940   2.652   7.542   5.671
19491TIP3    H1 8941   2.750   7.546   5.675
19491TIP3    H2 8942   2.635   7.600   5.597
19492TIP3   OH2 8943   2.011   6.998   5.618
19492TIP3    H1 8944   2.106   7.006   5.640
19492TIP3    H2 8945   2.016   6.937   5.543
19493TIP3   OH2 8946   1.886   7.534   6.113
19493TIP3    H1 8947   1.814   7.486   6.066
19493TIP3    H2 8948   1.913   7.469   6.179
19494TIP3   OH2 8949   1.967   7.348   6.300
19494TIP3    H1 8950   1.932   7.260   6.320
19494TIP3    H2 8951   1.989   7.381   6.389
19495TIP3   OH2 8952   3.720   7.427   6.593
19495TIP3    H1 8953   3.723   7.443   6.689
19495TIP3    H2 8954   3.791   7.485   6.564
19496TIP3   OH2 8955   3.678   7.387   6.889
19496TIP3    H1 8956   3.631   7.310   6.850
19496TIP3    H2 8957   3.728   7.341   6.959
19497TIP3   OH2 8958   3.525   6.958   7.353
19497TIP3    H1 8959   3.437   6.953   7.392
19497TIP3    H2 8960   3.563   7.038   7.397
19498TIP3   OH2 8961   3.653   6.789   5.900
19498TIP3    H1 8962   3.739   6.831   5.916
19498TIP3    H2 8963   3.654   6.718   5.968
19499TIP3   OH2 8964   3.690   6.599   6.087
19499TIP3    H1 8965   3.615   6.548   6.126
19499TIP3    H2 8966   3.750   6.613   6.164
19500TIP3   OH2 8967   3.666   6.870   6.586
19500TIP3    H1 8968   3.747   6.832   6.548
19500TIP3    H2 8969   3.680   6.965   6.568
19501TIP3   OH2 8970   3.521   7.160   6.812
19501TIP3    H1 8971   3.452   7.194   6.872
19501TIP3    H2 8972   3.466   7.119   6.742
19502TIP3   OH2 8973   3.721   6.584   5.724
19502TIP3    H1 8974   3.663   6.619   5.652
19502TIP3    H2 8975   3.709   6.654   5.791
19503TIP3   OH2 8976   3.554   6.304   5.582
19503TIP3    H1 8977   3.563   6.371   5.513
19503TIP3    H2 8978   3.539   6.222   5.530
19504TIP3   OH2 8979   3.472   6.447   6.144
19504TIP3    H1 8980   3.457   6.351   6.140
19504TIP3    H2 8981   3.438   6.469   6.232
19505TIP3   OH2 8982   1.972   6.655   6.550
19505TIP3    H1 8983   1.991   6.647   6.453
19505TIP3    H2 8984   2.062   6.638   6.585
19506TIP3   OH2 8985   3.556   6.645   7.114
19506TIP3    H1 8986   3.617   6.568   7.129
19506TIP3    H2 8987   3.618   6.721   7.112
19507TIP3   OH2 8988   3.707   6.434   7.172
19507TIP3    H1 8989   3.619   6.391   7.163
19507TIP3    H2 8990   3.764   6.355   7.173
19508TIP3   OH2 8991   3.479   6.054   5.496
19508TIP3    H1 8992   3.540   6.006   5.556
19508TIP3    H2 8993   3.393   6.011   5.509
19509TIP3   OH2 8994   3.439   6.205   5.992
19509TIP3    H1 8995   3.469   6.112   6.003
19509TIP3    H2 8996   3.517   6.245   5.951
19510TIP3   OH2 8997   3.502   6.259   6.534
19510TIP3    H1 8998   3.598   6.283   6.532
19510TIP3    H2 8999   3.484   6.274   6.628
19511TIP3   OH2 9000   3.510   6.332   6.813
19511TIP3    H1 9001   3.421   6.360   6.845
19511TIP3    H2 9002   3.553   6.418   6.790
19512TIP3   OH2 9003   1.933   6.184   7.164
19512TIP3    H1 9004   2.027   6.166   7.184
19512TIP3    H2 9005   1.889   6.103   7.195
19513TIP3   OH2 9006   3.654   5.733   7.361
19513TIP3    H1 9007   3.714   5.668   7.321
19513TIP3    H2 9008   3.719   5.801   7.331
19514TIP3   OH2 9009   3.506   5.932   5.994
19514TIP3    H1 9010   3.526   5.889   6.080
19514TIP3    H2 9011   3.445   5.870   5.950
19515TIP3   OH2 9012   2.054   6.014   6.450
19515TIP3    H1 9013   2.100   5.932   6.476
19515TIP3    H2 9014   2.109   6.084   6.489
19516TIP3   OH2 9015   1.883   6.314   6.554
19516TIP3    H1 9016   1.939   6.290   6.478
19516TIP3    H2 9017   1.929   6.395   6.581
19517TIP3   OH2 9018   3.688   5.956   7.178
19517TIP3    H1 9019   3.593   5.974   7.177
19517TIP3    H2 9020   3.695   5.891   7.106
19518TIP3   OH2 9021   3.688   5.939   5.648
19518TIP3    H1 9022   3.731   5.867   5.601
19518TIP3    H2 9023   3.760   6.004   5.655
19519TIP3   OH2 9024   1.919   5.939   5.960
19519TIP3    H1 9025   1.825   5.960   5.948
19519TIP3    H2 9026   1.961   5.990   5.888
19520TIP3   OH2 9027   3.393   7.434   6.155
19520TIP3    H1 9028   3.462   7.406   6.092
19520TIP3    H2 9029   3.444   7.484   6.221
19521TIP3   OH2 9030   1.914   5.806   6.791
19521TIP3    H1 9031   1.847   5.787   6.859
19521TIP3    H2 9032   1.868   5.874   6.737
19522TIP3   OH2 9033   2.137   7.126   7.208
19522TIP3    H1 9034   2.054   7.148   7.165
19522TIP3    H2 9035   2.110   7.120   7.300
19523TIP3   OH2 9036   2.428   7.226   6.835
19523TIP3    H1 9037   2.394   7.313   6.808
19523TIP3    H2 9038   2.520   7.235   6.804
19524TIP3   OH2 9039   2.861   7.370   7.125
19524TIP3    H1 9040   2.876   7.334   7.216
19524TIP3    H2 9041   2.951   7.399   7.100
19525TIP3   OH2 9042   3.089   7.496   7.058
19525TIP3    H1 9043   3.162   7.437   7.032
19525TIP3    H2 9044   3.127   7.538   7.137
19526TIP3   OH2 9045   3.590   5.758   6.966
19526TIP3    H1 9046   3.506   5.786   6.925
19526TIP3    H2 9047   3.609   5.675   6.916
19527TIP3   OH2 9048   2.169   7.547   6.835
19527TIP3    H1 9049   2.098   7.600   6.795
19527TIP3    H2 9050   2.138   7.532   6.926
19528TIP3   OH2 9051   2.417   7.507   6.741
19528TIP3    H1 9052   2.328   7.524   6.781
19528TIP3    H2 9053   2.412   7.567   6.664
19529TIP3   OH2 9054   2.888   7.499   6.660
19529TIP3    H1 9055   2.842   7.554   6.594
19529TIP3    H2 9056   2.902   7.564   6.732
19530TIP3   OH2 9057   3.117   7.381   6.761
19530TIP3    H1 9058   3.031   7.408   6.725
19530TIP3    H2 9059   3.165   7.465   6.752
19531TIP3   OH2 9060   3.374   7.538   6.784
19531TIP3    H1 9061   3.368   7.634   6.762
19531TIP3    H2 9062   3.396   7.500   6.696
19532TIP3   OH2 9063   2.116   7.415   6.529
19532TIP3    H1 9064   2.109   7.369   6.615
19532TIP3    H2 9065   2.197   7.378   6.490
19533TIP3   OH2 9066   2.324   7.286   6.394
19533TIP3    H1 9067   2.307   7.193   6.417
19533TIP3    H2 9068   2.409   7.301   6.440
19534TIP3   OH2 9069   2.584   7.334   6.482
19534TIP3    H1 9070   2.600   7.242   6.455
19534TIP3    H2 9071   2.587   7.327   6.579
19535TIP3   OH2 9072   2.929   5.900   6.395
19535TIP3    H1 9073   2.862   5.836   6.423
19535TIP3    H2 9074   2.985   5.847   6.337
19536TIP3   OH2 9075   3.443   5.705   6.402
19536TIP3    H1 9076   3.504   5.764   6.351
19536TIP3    H2 9077   3.355   5.741   6.379
19537TIP3   OH2 9078   3.610   5.829   6.230
19537TIP3    H1 9079   3.679   5.771   6.188
19537TIP3    H2 9080   3.660   5.913   6.240
19538TIP3   OH2 9081   2.166   5.762   6.180
19538TIP3    H1 9082   2.087   5.742   6.127
19538TIP3    H2 9083   2.213   5.677   6.174
19539TIP3   OH2 9084   2.040   5.738   5.749
19539TIP3    H1 9085   2.092   5.803   5.698
19539TIP3    H2 9086   1.987   5.795   5.808
19540TIP3   OH2 9087   2.614   5.755   6.159
19540TIP3    H1 9088   2.704   5.791   6.151
19540TIP3    H2 9089   2.610   5.733   6.252
19541TIP3   OH2 9090   3.184   5.757   6.322
19541TIP3    H1 9091   3.180   5.768   6.226
19541TIP3    H2 9092   3.147   5.666   6.334
19542TIP3   OH2 9093   3.312   5.760   5.888
19542TIP3    H1 9094   3.238   5.820   5.871
19542TIP3    H2 9095   3.267   5.676   5.909
19543TIP3   OH2 9096   2.035   7.333   5.852
19543TIP3    H1 9097   1.968   7.333   5.782
19543TIP3    H2 9098   2.037   7.428   5.870
19544TIP3   OH2 9099   2.224   5.927   5.606
19544TIP3    H1 9100   2.281   5.871   5.552
19544TIP3    H2 9101   2.291   5.966   5.666
19545TIP3   OH2 9102   2.714   5.958   5.853
19545TIP3    H1 9103   2.757   5.900   5.917
19545TIP3    H2 9104   2.738   6.045   5.891
19546TIP3   OH2 9105   2.917   7.471   5.683
19546TIP3    H1 9106   3.014   7.485   5.671
19546TIP3    H2 9107   2.903   7.410   5.607
19547TIP3   OH2 9108   3.598   7.413   5.960
19547TIP3    H1 9109   3.570   7.336   5.903
19547TIP3    H2 9110   3.581   7.487   5.898
19548TIP3   OH2 9111   2.156   5.815   7.126
19548TIP3    H1 9112   2.115   5.737   7.166
19548TIP3    H2 9113   2.247   5.813   7.164
19549TIP3   OH2 9114   2.356   5.752   7.288
19549TIP3    H1 9115   2.446   5.722   7.265
19549TIP3    H2 9116   2.318   5.675   7.330
19550TIP3   OH2 9117   2.218   7.433   5.549
19550TIP3    H1 9118   2.188   7.458   5.637
19550TIP3    H2 9119   2.292   7.373   5.567
19551TIP3   OH2 9120   3.196   5.685   7.303
19551TIP3    H1 9121   3.206   5.639   7.388
19551TIP3    H2 9122   3.288   5.681   7.267
19552TIP3   OH2 9123   3.517   7.288   7.168
19552TIP3    H1 9124   3.436   7.275   7.115
19552TIP3    H2 9125   3.505   7.383   7.189
19553TIP3   OH2 9126   4.961   6.676   6.166
19553TIP3    H1 9127   4.960   6.774   6.162
19553TIP3    H2 9128   4.888   6.653   6.106
19554TIP3   OH2 9129   4.846   6.602   6.516
19554TIP3    H1 9130   4.845   6.537   6.588
19554TIP3    H2 9131   4.812   6.552   6.441
19555TIP3   OH2 9132   4.083   6.567   6.671
19555TIP3    H1 9133   4.090   6.502   6.743
19555TIP3    H2 9134   4.156   6.628   6.692
19556TIP3   OH2 9135   5.215   6.897   6.344
19556TIP3    H1 9136   5.174   6.825   6.393
19556TIP3    H2 9137   5.217   6.968   6.411
19557TIP3   OH2 9138   4.175   7.014   6.522
19557TIP3    H1 9139   4.143   6.927   6.490
19557TIP3    H2 9140   4.270   6.995   6.527
19558TIP3   OH2 9141   3.838   6.370   6.070
19558TIP3    H1 9142   3.794   6.457   6.064
19558TIP3    H2 9143   3.782   6.316   6.014
19559TIP3   OH2 9144   3.909   6.593   6.285
19559TIP3    H1 9145   3.936   6.510   6.330
19559TIP3    H2 9146   3.979   6.603   6.219
19560TIP3   OH2 9147   4.926   7.412   6.367
19560TIP3    H1 9148   4.992   7.343   6.339
19560TIP3    H2 9149   4.906   7.380   6.455
19561TIP3   OH2 9150   4.684   6.842   6.563
19561TIP3    H1 9151   4.718   6.779   6.497
19561TIP3    H2 9152   4.765   6.858   6.615
19562TIP3   OH2 9153   5.544   6.008   6.636
19562TIP3    H1 9154   5.561   6.067   6.713
19562TIP3    H2 9155   5.600   6.050   6.570
19563TIP3   OH2 9156   5.001   6.289   6.594
19563TIP3    H1 9157   5.017   6.193   6.595
19563TIP3    H2 9158   4.990   6.303   6.498
19564TIP3   OH2 9159   4.312   6.097   6.316
19564TIP3    H1 9160   4.323   6.181   6.267
19564TIP3    H2 9161   4.272   6.040   6.247
19565TIP3   OH2 9162   5.086   6.105   6.154
19565TIP3    H1 9163   5.151   6.074   6.220
19565TIP3    H2 9164   5.142   6.163   6.099
19566TIP3   OH2 9165   3.975   6.338   6.390
19566TIP3    H1 9166   4.042   6.283   6.433
19566TIP3    H2 9167   3.984   6.308   6.298
19567TIP3   OH2 9168   4.490   6.494   6.321
19567TIP3    H1 9169   4.557   6.436   6.361
19567TIP3    H2 9170   4.439   6.428   6.271
19568TIP3   OH2 9171   5.588   6.148   6.864
19568TIP3    H1 9172   5.527   6.224   6.853
19568TIP3    H2 9173   5.591   6.139   6.960
19569TIP3   OH2 9174   4.203   5.989   6.728
19569TIP3    H1 9175   4.178   6.040   6.646
19569TIP3    H2 9176   4.125   6.012   6.784
19570TIP3   OH2 9177   4.932   6.936   6.074
19570TIP3    H1 9178   4.904   6.907   5.986
19570TIP3    H2 9179   4.901   7.029   6.080
19571TIP3   OH2 9180   4.455   6.753   6.744
19571TIP3    H1 9181   4.384   6.816   6.766
19571TIP3    H2 9182   4.525   6.812   6.715
19572TIP3   OH2 9183   5.267   6.040   6.352
19572TIP3    H1 9184   5.245   5.963   6.406
19572TIP3    H2 9185   5.334   6.084   6.407
19573TIP3   OH2 9186   4.163   6.170   6.528
19573TIP3    H1 9187   4.222   6.244   6.551
19573TIP3    H2 9188   4.210   6.133   6.448
19574TIP3   OH2 9189   4.299   6.952   6.827
19574TIP3    H1 9190   4.294   7.043   6.792
19574TIP3    H2 9191   4.211   6.944   6.871
19575TIP3   OH2 9192   3.904   6.913   5.905
19575TIP3    H1 9193   3.883   6.946   5.815
19575TIP3    H2 9194   3.912   6.996   5.955
19576TIP3   OH2 9195   5.268   7.080   6.581
19576TIP3    H1 9196   5.171   7.091   6.593
19576TIP3    H2 9197   5.295   7.172   6.561
19577TIP3   OH2 9198   5.300   5.909   6.720
19577TIP3    H1 9199   5.228   5.972   6.712
19577TIP3    H2 9200   5.371   5.951   6.668
19578TIP3   OH2 9201   4.597   5.721   6.469
19578TIP3    H1 9202   4.584   5.625   6.458
19578TIP3    H2 9203   4.509   5.751   6.496
19579TIP3   OH2 9204   5.094   7.259   6.240
19579TIP3    H1 9205   5.137   7.187   6.190
19579TIP3    H2 9206   5.136   7.338   6.201
19580TIP3   OH2 9207   5.215   7.051   6.092
19580TIP3    H1 9208   5.186   6.982   6.030
19580TIP3    H2 9209   5.218   7.002   6.176
19581TIP3   OH2 9210   5.376   6.911   6.941
19581TIP3    H1 9211   5.392   6.846   6.869
19581TIP3    H2 9212   5.397   6.995   6.898
19582TIP3   OH2 9213   4.826   6.599   5.918
19582TIP3    H1 9214   4.757   6.657   5.881
19582TIP3    H2 9215   4.897   6.609   5.851
19583TIP3   OH2 9216   4.834   6.454   5.623
19583TIP3    H1 9217   4.906   6.454   5.689
19583TIP3    H2 9218   4.863   6.385   5.564
19584TIP3   OH2 9219   5.565   6.542   6.746
19584TIP3    H1 9220   5.499   6.614   6.750
19584TIP3    H2 9221   5.615   6.565   6.665
19585TIP3   OH2 9222   5.172   6.623   6.011
19585TIP3    H1 9223   5.096   6.645   6.071
19585TIP3    H2 9224   5.218   6.553   6.062
19586TIP3   OH2 9225   5.164   6.437   6.922
19586TIP3    H1 9226   5.164   6.519   6.975
19586TIP3    H2 9227   5.101   6.467   6.853
19587TIP3   OH2 9228   4.332   6.686   6.202
19587TIP3    H1 9229   4.301   6.648   6.117
19587TIP3    H2 9230   4.394   6.617   6.235
19588TIP3   OH2 9231   4.464   7.026   6.470
19588TIP3    H1 9232   4.463   6.973   6.389
19588TIP3    H2 9233   4.543   6.990   6.515
19589TIP3   OH2 9234   4.366   6.559   6.570
19589TIP3    H1 9235   4.419   6.571   6.489
19589TIP3    H2 9236   4.404   6.629   6.628
19590TIP3   OH2 9237   5.007   7.118   6.638
19590TIP3    H1 9238   4.978   7.182   6.704
19590TIP3    H2 9239   4.981   7.033   6.681
19591TIP3   OH2 9240   4.461   7.004   7.037
19591TIP3    H1 9241   4.420   7.079   7.086
19591TIP3    H2 9242   4.393   6.985   6.967
19592TIP3   OH2 9243   5.059   6.539   5.778
19592TIP3    H1 9244   5.115   6.558   5.858
19592TIP3    H2 9245   5.100   6.592   5.706
19593TIP3   OH2 9246   4.153   6.619   6.952
19593TIP3    H1 9247   4.160   6.686   7.024
19593TIP3    H2 9248   4.060   6.632   6.931
19594TIP3   OH2 9249   4.830   7.213   6.124
19594TIP3    H1 9250   4.874   7.244   6.204
19594TIP3    H2 9251   4.774   7.288   6.100
19595TIP3   OH2 9252   4.285   7.206   7.107
19595TIP3    H1 9253   4.277   7.196   7.011
19595TIP3    H2 9254   4.194   7.195   7.140
19596TIP3   OH2 9255   5.431   5.714   5.767
19596TIP3    H1 9256   5.335   5.726   5.790
19596TIP3    H2 9257   5.451   5.799   5.725
19597TIP3   OH2 9258   4.228   6.590   5.965
19597TIP3    H1 9259   4.201   6.667   5.911
19597TIP3    H2 9260   4.164   6.523   5.939
19598TIP3   OH2 9261   5.540   7.149   5.610
19598TIP3    H1 9262   5.555   7.245   5.614
19598TIP3    H2 9263   5.632   7.120   5.593
19599TIP3   OH2 9264   3.839   6.832   6.851
19599TIP3    H1 9265   3.794   6.824   6.766
19599TIP3    H2 9266   3.846   6.737   6.874
19600TIP3   OH2 9267   3.814   7.106   6.530
19600TIP3    H1 9268   3.910   7.094   6.528
19600TIP3    H2 9269   3.806   7.187   6.582
19601TIP3   OH2 9270   5.637   7.176   7.097
19601TIP3    H1 9271   5.627   7.079   7.099
19601TIP3    H2 9272   5.552   7.201   7.140
19602TIP3   OH2 9273   4.734   7.130   6.984
19602TIP3    H1 9274   4.741   7.214   7.036
19602TIP3    H2 9275   4.647   7.095   7.011
19603TIP3   OH2 9276   4.777   7.505   5.965
19603TIP3    H1 9277   4.768   7.498   5.869
19603TIP3    H2 9278   4.780   7.601   5.980
19604TIP3   OH2 9279   4.138   7.396   6.145
19604TIP3    H1 9280   4.158   7.353   6.232
19604TIP3    H2 9281   4.056   7.346   6.127
19605TIP3   OH2 9282   5.079   7.423   5.660
19605TIP3    H1 9283   5.129   7.350   5.619
19605TIP3    H2 9284   5.088   7.399   5.755
19606TIP3   OH2 9285   5.052   7.420   5.941
19606TIP3    H1 9286   4.957   7.426   5.960
19606TIP3    H2 9287   5.077   7.345   5.998
19607TIP3   OH2 9288   5.356   6.322   7.143
19607TIP3    H1 9289   5.305   6.368   7.075
19607TIP3    H2 9290   5.352   6.230   7.114
19608TIP3   OH2 9291   4.067   6.963   6.948
19608TIP3    H1 9292   4.088   6.926   7.037
19608TIP3    H2 9293   3.980   6.924   6.926
19609TIP3   OH2 9294   4.332   5.809   6.549
19609TIP3    H1 9295   4.246   5.799   6.502
19609TIP3    H2 9296   4.323   5.899   6.584
19610TIP3   OH2 9297   4.797   5.778   6.878
19610TIP3    H1 9298   4.839   5.736   6.956
19610TIP3    H2 9299   4.701   5.764   6.895
19611TIP3   OH2 9300   5.129   6.162   6.968
19611TIP3    H1 9301   5.072   6.141   7.047
19611TIP3    H2 9302   5.110   6.255   6.945
19612TIP3   OH2 9303   5.204   6.642   5.547
19612TIP3    H1 9304   5.206   6.624   5.452
19612TIP3    H2 9305   5.288   6.688   5.562
19613TIP3   OH2 9306   4.762   6.035   5.612
19613TIP3    H1 9307   4.731   6.031   5.705
19613TIP3    H2 9308   4.735   5.947   5.584
19614TIP3   OH2 9309   4.345   6.308   6.672
19614TIP3    H1 9310   4.265   6.313   6.726
19614TIP3    H2 9311   4.343   6.397   6.628
19615TIP3   OH2 9312   4.341   6.321   6.153
19615TIP3    H1 9313   4.247   6.295   6.140
19615TIP3    H2 9314   4.379   6.291   6.068
19616TIP3   OH2 9315   4.893   6.370   6.031
19616TIP3    H1 9316   4.852   6.453   5.996
19616TIP3    H2 9317   4.961   6.354   5.963
19617TIP3   OH2 9318   4.800   6.392   7.174
19617TIP3    H1 9319   4.748   6.315   7.206
19617TIP3    H2 9320   4.883   6.380   7.223
19618TIP3   OH2 9321   4.996   6.319   6.315
19618TIP3    H1 9322   4.969   6.375   6.241
19618TIP3    H2 9323   5.007   6.234   6.268
19619TIP3   OH2 9324   4.113   6.327   6.839
19619TIP3    H1 9325   4.105   6.383   6.920
19619TIP3    H2 9326   4.047   6.257   6.850
19620TIP3   OH2 9327   4.445   6.068   5.519
19620TIP3    H1 9328   4.400   6.030   5.596
19620TIP3    H2 9329   4.376   6.115   5.470
19621TIP3   OH2 9330   3.773   6.045   6.233
19621TIP3    H1 9331   3.841   6.041   6.304
19621TIP3    H2 9332   3.818   6.006   6.156
19622TIP3   OH2 9333   3.901   6.117   5.773
19622TIP3    H1 9334   3.951   6.176   5.713
19622TIP3    H2 9335   3.832   6.180   5.803
19623TIP3   OH2 9336   4.916   6.478   6.771
19623TIP3    H1 9337   4.954   6.410   6.712
19623TIP3    H2 9338   4.870   6.425   6.838
19624TIP3   OH2 9339   4.596   6.075   6.255
19624TIP3    H1 9340   4.503   6.076   6.284
19624TIP3    H2 9341   4.645   6.059   6.337
19625TIP3   OH2 9342   4.077   6.231   6.141
19625TIP3    H1 9343   3.989   6.246   6.102
19625TIP3    H2 9344   4.106   6.147   6.100
19626TIP3   OH2 9345   4.441   6.237   5.906
19626TIP3    H1 9346   4.537   6.246   5.920
19626TIP3    H2 9347   4.418   6.301   5.836
19627TIP3   OH2 9348   5.037   5.999   6.578
19627TIP3    H1 9349   4.969   6.004   6.649
19627TIP3    H2 9350   4.986   5.974   6.500
19628TIP3   OH2 9351   4.314   6.353   5.666
19628TIP3    H1 9352   4.258   6.318   5.595
19628TIP3    H2 9353   4.394   6.375   5.616
19629TIP3   OH2 9354   5.359   7.562   7.211
19629TIP3    H1 9355   5.386   7.603   7.126
19629TIP3    H2 9356   5.429   7.595   7.270
19630TIP3   OH2 9357   4.125   6.813   7.167
19630TIP3    H1 9358   4.195   6.835   7.230
19630TIP3    H2 9359   4.046   6.820   7.226
19631TIP3   OH2 9360   4.725   6.351   6.444
19631TIP3    H1 9361   4.784   6.297   6.390
19631TIP3    H2 9362   4.711   6.296   6.522
19632TIP3   OH2 9363   4.226   5.965   6.087
19632TIP3    H1 9364   4.195   5.873   6.086
19632TIP3    H2 9365   4.305   5.959   6.031
19633TIP3   OH2 9366   4.584   6.179   6.692
19633TIP3    H1 9367   4.508   6.240   6.691
19633TIP3    H2 9368   4.646   6.221   6.755
19634TIP3   OH2 9369   4.648   6.807   5.853
19634TIP3    H1 9370   4.568   6.759   5.822
19634TIP3    H2 9371   4.627   6.817   5.948
19635TIP3   OH2 9372   5.366   6.726   6.735
19635TIP3    H1 9373   5.422   6.774   6.672
19635TIP3    H2 9374   5.280   6.731   6.688
19636TIP3   OH2 9375   5.031   6.085   5.676
19636TIP3    H1 9376   4.937   6.101   5.656
19636TIP3    H2 9377   5.064   6.173   5.703
19637TIP3   OH2 9378   4.797   6.832   6.977
19637TIP3    H1 9379   4.763   6.790   7.057
19637TIP3    H2 9380   4.772   6.925   6.989
19638TIP3   OH2 9381   5.105   6.280   5.840
19638TIP3    H1 9382   5.194   6.266   5.877
19638TIP3    H2 9383   5.114   6.361   5.787
19639TIP3   OH2 9384   4.159   6.745   6.435
19639TIP3    H1 9385   4.227   6.737   6.366
19639TIP3    H2 9386   4.165   6.659   6.480
19640TIP3   OH2 9387   4.857   6.953   5.760
19640TIP3    H1 9388   4.822   7.038   5.796
19640TIP3    H2 9389   4.783   6.892   5.781
19641TIP3   OH2 9390   3.860   6.583   6.959
19641TIP3    H1 9391   3.873   6.543   7.047
19641TIP3    H2 9392   3.793   6.525   6.918
19642TIP3   OH2 9393   4.558   6.542   7.180
19642TIP3    H1 9394   4.530   6.514   7.092
19642TIP3    H2 9395   4.651   6.510   7.182
19643TIP3   OH2 9396   5.027   7.075   6.973
19643TIP3    H1 9397   4.934   7.093   6.950
19643TIP3    H2 9398   5.024   7.105   7.066
19644TIP3   OH2 9399   5.594   6.294   5.814
19644TIP3    H1 9400   5.537   6.264   5.740
19644TIP3    H2 9401   5.601   6.387   5.786
19645TIP3   OH2 9402   5.592   6.880   7.092
19645TIP3    H1 9403   5.503   6.901   7.055
19645TIP3    H2 9404   5.648   6.875   7.012
19646TIP3   OH2 9405   5.424   7.176   5.854
19646TIP3    H1 9406   5.386   7.093   5.886
19646TIP3    H2 9407   5.453   7.157   5.762
19647TIP3   OH2 9408   5.144   6.658   6.563
19647TIP3    H1 9409   5.050   6.637   6.552
19647TIP3    H2 9410   5.187   6.582   6.520
19648TIP3   OH2 9411   4.397   7.090   6.174
19648TIP3    H1 9412   4.447   7.170   6.153
19648TIP3    H2 9413   4.309   7.112   6.141
19649TIP3   OH2 9414   3.969   6.576   5.624
19649TIP3    H1 9415   4.031   6.638   5.666
19649TIP3    H2 9416   3.883   6.604   5.660
19650TIP3   OH2 9417   4.537   6.858   6.124
19650TIP3    H1 9418   4.507   6.950   6.133
19650TIP3    H2 9419   4.466   6.809   6.169
19651TIP3   OH2 9420   4.583   7.276   6.766
19651TIP3    H1 9421   4.628   7.357   6.737
19651TIP3    H2 9422   4.644   7.242   6.833
19652TIP3   OH2 9423   4.403   7.359   6.076
19652TIP3    H1 9424   4.308   7.369   6.095
19652TIP3    H2 9425   4.443   7.439   6.114
19653TIP3   OH2 9426   4.935   6.876   6.727
19653TIP3    H1 9427   4.902   6.857   6.817
19653TIP3    H2 9428   4.999   6.805   6.711
19654TIP3   OH2 9429   5.164   6.981   5.638
19654TIP3    H1 9430   5.197   6.935   5.718
19654TIP3    H2 9431   5.069   6.964   5.647
19655TIP3   OH2 9432   5.216   7.335   6.978
19655TIP3    H1 9433   5.147   7.285   6.930
19655TIP3    H2 9434   5.235   7.404   6.911
19656TIP3   OH2 9435   5.615   7.422   5.659
19656TIP3    H1 9436   5.687   7.485   5.640
19656TIP3    H2 9437   5.544   7.481   5.691
19657TIP3   OH2 9438   4.028   6.061   6.920
19657TIP3    H1 9439   3.935   6.094   6.913
19657TIP3    H2 9440   4.008   5.975   6.963
19658TIP3   OH2 9441   5.247   6.846   5.862
19658TIP3    H1 9442   5.222   6.767   5.915
19658TIP3    H2 9443   5.342   6.851   5.880
19659TIP3   OH2 9444   3.984   7.238   6.759
19659TIP3    H1 9445   4.013   7.146   6.759
19659TIP3    H2 9446   4.010   7.267   6.847
19660TIP3   OH2 9447   4.581   7.087   5.483
19660TIP3    H1 9448   4.595   7.010   5.428
19660TIP3    H2 9449   4.538   7.050   5.563
19661TIP3   OH2 9450   4.461   7.043   5.730
19661TIP3    H1 9451   4.484   6.991   5.808
19661TIP3    H2 9452   4.468   7.136   5.761
19662TIP3   OH2 9453   4.111   6.768   5.777
19662TIP3    H1 9454   4.043   6.808   5.835
19662TIP3    H2 9455   4.164   6.845   5.751
19663TIP3   OH2 9456   4.896   6.036   6.810
19663TIP3    H1 9457   4.967   6.043   6.875
19663TIP3    H2 9458   4.857   5.949   6.831
19664TIP3   OH2 9459   4.969   5.995   5.922
19664TIP3    H1 9460   4.994   6.040   5.839
19664TIP3    H2 9461   5.029   6.038   5.985
19665TIP3   OH2 9462   4.739   7.210   5.799
19665TIP3    H1 9463   4.657   7.262   5.809
19665TIP3    H2 9464   4.791   7.264   5.738
19666TIP3   OH2 9465   4.693   6.169   6.003
19666TIP3    H1 9466   4.772   6.227   6.006
19666TIP3    H2 9467   4.667   6.157   6.096
19667TIP3   OH2 9468   4.745   6.269   6.923
19667TIP3    H1 9469   4.758   6.328   6.999
19667TIP3    H2 9470   4.815   6.203   6.931
19668TIP3   OH2 9471   4.779   5.875   6.091
19668TIP3    H1 9472   4.746   5.941   6.154
19668TIP3    H2 9473   4.848   5.929   6.045
19669TIP3   OH2 9474   4.470   7.314   5.805
19669TIP3    H1 9475   4.493   7.395   5.753
19669TIP3    H2 9476   4.454   7.350   5.895
19670TIP3   OH2 9477   4.344   5.984   5.766
19670TIP3    H1 9478   4.339   6.076   5.798
19670TIP3    H2 9479   4.435   5.960   5.790
19671TIP3   OH2 9480   5.367   6.057   7.008
19671TIP3    H1 9481   5.274   6.089   6.994
19671TIP3    H2 9482   5.397   6.057   6.915
19672TIP3   OH2 9483   5.228   6.437   6.407
19672TIP3    H1 9484   5.145   6.393   6.379
19672TIP3    H2 9485   5.275   6.368   6.459
19673TIP3   OH2 9486   4.170   7.027   5.668
19673TIP3    H1 9487   4.235   7.092   5.696
19673TIP3    H2 9488   4.219   6.982   5.596
19674TIP3   OH2 9489   4.005   6.296   5.585
19674TIP3    H1 9490   4.004   6.393   5.597
19674TIP3    H2 9491   3.918   6.277   5.548
19675TIP3   OH2 9492   5.334   7.362   6.574
19675TIP3    H1 9493   5.325   7.431   6.505
19675TIP3    H2 9494   5.431   7.368   6.592
19676TIP3   OH2 9495   4.084   5.775   6.455
19676TIP3    H1 9496   4.064   5.778   6.358
19676TIP3    H2 9497   4.041   5.690   6.478
19677TIP3   OH2 9498   3.980   7.174   6.071
19677TIP3    H1 9499   3.891   7.212   6.062
19677TIP3    H2 9500   4.028   7.210   5.997
19678TIP3   OH2 9501   3.901   7.433   7.197
19678TIP3    H1 9502   3.960   7.410   7.270
19678TIP3    H2 9503   3.858   7.347   7.181
19679TIP3   OH2 9504   4.364   7.324   7.355
19679TIP3    H1 9505   4.442   7.279   7.393
19679TIP3    H2 9506   4.364   7.294   7.263
19680TIP3   OH2 9507   4.779   7.275   5.497
19680TIP3    H1 9508   4.708   7.210   5.519
19680TIP3    H2 9509   4.852   7.217   5.475
19681TIP3   OH2 9510   5.018   7.162   7.231
19681TIP3    H1 9511   4.986   7.074   7.260
19681TIP3    H2 9512   5.094   7.177   7.292
19682TIP3   OH2 9513   5.238   7.253   5.519
19682TIP3    H1 9514   5.263   7.171   5.565
19682TIP3    H2 9515   5.315   7.271   5.465
19683TIP3   OH2 9516   3.892   6.810   7.295
19683TIP3    H1 9517   3.907   6.718   7.266
19683TIP3    H2 9518   3.817   6.835   7.240
19684TIP3   OH2 9519   4.329   6.844   5.503
19684TIP3    H1 9520   4.339   6.766   5.560
19684TIP3    H2 9521   4.394   6.829   5.434
19685TIP3   OH2 9522   4.561   6.807   7.238
19685TIP3    H1 9523   4.530   6.840   7.151
19685TIP3    H2 9524   4.571   6.710   7.223
19686TIP3   OH2 9525   4.862   6.952   5.478
19686TIP3    H1 9526   4.840   6.966   5.572
19686TIP3    H2 9527   4.847   6.857   5.467
19687TIP3   OH2 9528   5.132   6.794   6.974
19687TIP3    H1 9529   5.210   6.853   6.968
19687TIP3    H2 9530   5.062   6.861   6.979
19688TIP3   OH2 9531   3.981   6.533   7.235
19688TIP3    H1 9532   4.020   6.446   7.227
19688TIP3    H2 9533   3.959   6.534   7.332
19689TIP3   OH2 9534   4.447   6.646   5.742
19689TIP3    H1 9535   4.396   6.593   5.804
19689TIP3    H2 9536   4.476   6.578   5.676
19690TIP3   OH2 9537   4.364   6.421   6.966
19690TIP3    H1 9538   4.317   6.500   6.998
19690TIP3    H2 9539   4.413   6.464   6.892
19691TIP3   OH2 9540   4.554   6.475   5.561
19691TIP3    H1 9541   4.540   6.451   5.468
19691TIP3    H2 9542   4.652   6.474   5.572
19692TIP3   OH2 9543   4.879   6.686   7.305
19692TIP3    H1 9544   4.975   6.683   7.295
19692TIP3    H2 9545   4.863   6.608   7.359
19693TIP3   OH2 9546   5.487   6.703   5.506
19693TIP3    H1 9547   5.464   6.662   5.422
19693TIP3    H2 9548   5.497   6.797   5.483
19694TIP3   OH2 9549   4.412   6.163   7.077
19694TIP3    H1 9550   4.442   6.092   7.016
19694TIP3    H2 9551   4.430   6.249   7.030
19695TIP3   OH2 9552   4.446   6.005   6.833
19695TIP3    H1 9553   4.506   6.047   6.765
19695TIP3    H2 9554   4.365   5.997   6.779
19696TIP3   OH2 9555   4.604   6.548   6.855
19696TIP3    H1 9556   4.683   6.536   6.800
19696TIP3    H2 9557   4.572   6.635   6.824
19697TIP3   OH2 9558   5.046   6.327   7.346
19697TIP3    H1 9559   5.071   6.234   7.349
19697TIP3    H2 9560   5.131   6.372   7.358
19698TIP3   OH2 9561   5.181   6.605   7.165
19698TIP3    H1 9562   5.156   6.679   7.105
19698TIP3    H2 9563   5.277   6.603   7.149
19699TIP3   OH2 9564   4.256   6.290   7.270
19699TIP3    H1 9565   4.180   6.229   7.255
19699TIP3    H2 9566   4.327   6.255   7.213
19700TIP3   OH2 9567   4.522   5.749   6.879
19700TIP3    H1 9568   4.521   5.844   6.855
19700TIP3    H2 9569   4.466   5.706   6.812
19701TIP3   OH2 9570   4.660   6.179   7.232
19701TIP3    H1 9571   4.631   6.155   7.322
19701TIP3    H2 9572   4.581   6.160   7.181
19702TIP3   OH2 9573   4.931   6.089   7.137
19702TIP3    H1 9574   4.836   6.099   7.153
19702TIP3    H2 9575   4.958   6.030   7.210
19703TIP3   OH2 9576   5.087   5.957   7.331
19703TIP3    H1 9577   5.083   5.860   7.334
19703TIP3    H2 9578   5.065   5.987   7.422
19704TIP3   OH2 9579   4.076   6.080   7.240
19704TIP3    H1 9580   4.088   6.000   7.186
19704TIP3    H2 9581   4.054   6.039   7.327
19705TIP3   OH2 9582   4.553   5.684   7.140
19705TIP3    H1 9583   4.621   5.614   7.140
19705TIP3    H2 9584   4.547   5.700   7.044
19706TIP3   OH2 9585   4.595   5.849   7.349
19706TIP3    H1 9586   4.573   5.795   7.270
19706TIP3    H2 9587   4.530   5.921   7.344
19707TIP3   OH2 9588   4.536   7.543   5.671
19707TIP3    H1 9589   4.634   7.546   5.675
19707TIP3    H2 9590   4.521   7.600   5.596
19708TIP3   OH2 9591   3.896   6.997   5.620
19708TIP3    H1 9592   3.992   7.006   5.639
19708TIP3    H2 9593   3.898   6.938   5.543
19709TIP3   OH2 9594   3.777   7.532   6.109
19709TIP3    H1 9595   3.699   7.487   6.067
19709TIP3    H2 9596   3.796   7.468   6.181
19710TIP3   OH2 9597   3.855   7.349   6.300
19710TIP3    H1 9598   3.817   7.261   6.319
19710TIP3    H2 9599   3.874   7.380   6.390
19711TIP3   OH2 9600   5.606   7.427   6.593
19711TIP3    H1 9601   5.608   7.443   6.689
19711TIP3    H2 9602   5.676   7.485   6.564
19712TIP3   OH2 9603   5.564   7.386   6.889
19712TIP3    H1 9604   5.516   7.310   6.850
19712TIP3    H2 9605   5.613   7.341   6.959
19713TIP3   OH2 9606   5.408   6.959   7.353
19713TIP3    H1 9607   5.319   6.955   7.394
19713TIP3    H2 9608   5.445   7.039   7.397
19714TIP3   OH2 9609   5.540   6.791   5.898
19714TIP3    H1 9610   5.626   6.831   5.918
19714TIP3    H2 9611   5.538   6.720   5.965
19715TIP3   OH2 9612   5.576   6.600   6.087
19715TIP3    H1 9613   5.501   6.549   6.125
19715TIP3    H2 9614   5.635   6.613   6.164
19716TIP3   OH2 9615   5.551   6.869   6.586
19716TIP3    H1 9616   5.633   6.832   6.548
19716TIP3    H2 9617   5.566   6.965   6.569
19717TIP3   OH2 9618   5.407   7.160   6.812
19717TIP3    H1 9619   5.338   7.194   6.872
19717TIP3    H2 9620   5.352   7.119   6.742
19718TIP3   OH2 9621   5.606   6.583   5.724
19718TIP3    H1 9622   5.548   6.618   5.653
19718TIP3    H2 9623   5.596   6.653   5.792
19719TIP3   OH2 9624   5.439   6.303   5.582
19719TIP3    H1 9625   5.450   6.369   5.513
19719TIP3    H2 9626   5.424   6.222   5.530
19720TIP3   OH2 9627   5.358   6.447   6.144
19720TIP3    H1 9628   5.343   6.351   6.140
19720TIP3    H2 9629   5.324   6.469   6.232
19721TIP3   OH2 9630   3.858   6.655   6.550
19721TIP3    H1 9631   3.876   6.647   6.454
19721TIP3    H2 9632   3.947   6.638   6.585
19722TIP3   OH2 9633   5.444   6.643   7.110
19722TIP3    H1 9634   5.505   6.568   7.128
19722TIP3    H2 9635   5.504   6.721   7.114
19723TIP3   OH2 9636   5.594   6.433   7.175
19723TIP3    H1 9637   5.505   6.392   7.161
19723TIP3    H2 9638   5.651   6.355   7.170
19724TIP3   OH2 9639   5.366   6.054   5.496
19724TIP3    H1 9640   5.426   6.006   5.556
19724TIP3    H2 9641   5.280   6.010   5.508
19725TIP3   OH2 9642   5.324   6.205   5.992
19725TIP3    H1 9643   5.354   6.112   6.003
19725TIP3    H2 9644   5.403   6.245   5.952
19726TIP3   OH2 9645   5.388   6.260   6.534
19726TIP3    H1 9646   5.484   6.283   6.532
19726TIP3    H2 9647   5.369   6.274   6.628
19727TIP3   OH2 9648   5.395   6.332   6.813
19727TIP3    H1 9649   5.307   6.361   6.844
19727TIP3    H2 9650   5.438   6.418   6.790
19728TIP3   OH2 9651   3.822   6.185   7.160
19728TIP3    H1 9652   3.912   6.164   7.189
19728TIP3    H2 9653   3.772   6.106   7.194
19729TIP3   OH2 9654   5.621   5.738   7.350
19729TIP3    H1 9655   5.656   5.672   7.287
19729TIP3    H2 9656   5.633   5.819   7.296
19730TIP3   OH2 9657   5.391   5.933   5.994
19730TIP3    H1 9658   5.412   5.889   6.080
19730TIP3    H2 9659   5.330   5.870   5.950
19731TIP3   OH2 9660   3.940   6.014   6.450
19731TIP3    H1 9661   3.986   5.932   6.475
19731TIP3    H2 9662   3.994   6.084   6.487
19732TIP3   OH2 9663   3.768   6.314   6.554
19732TIP3    H1 9664   3.824   6.290   6.478
19732TIP3    H2 9665   3.814   6.395   6.581
19733TIP3   OH2 9666   5.572   5.945   7.185
19733TIP3    H1 9667   5.480   5.976   7.175
19733TIP3    H2 9668   5.579   5.894   7.102
19734TIP3   OH2 9669   5.573   5.939   5.648
19734TIP3    H1 9670   5.617   5.867   5.601
19734TIP3    H2 9671   5.644   6.004   5.654
19735TIP3   OH2 9672   3.805   5.940   5.960
19735TIP3    H1 9673   3.711   5.960   5.948
19735TIP3    H2 9674   3.847   5.990   5.888
19736TIP3   OH2 9675   5.278   7.435   6.156
19736TIP3    H1 9676   5.347   7.404   6.094
19736TIP3    H2 9677   5.330   7.485   6.221
19737TIP3   OH2 9678   3.801   5.806   6.790
19737TIP3    H1 9679   3.734   5.787   6.859
19737TIP3    H2 9680   3.753   5.874   6.737
19738TIP3   OH2 9681   4.024   7.130   7.210
19738TIP3    H1 9682   3.939   7.147   7.166
19738TIP3    H2 9683   3.997   7.119   7.302
19739TIP3   OH2 9684   4.313   7.226   6.834
19739TIP3    H1 9685   4.279   7.313   6.808
19739TIP3    H2 9686   4.406   7.235   6.804
19740TIP3   OH2 9687   4.747   7.367   7.124
19740TIP3    H1 9688   4.760   7.336   7.217
19740TIP3    H2 9689   4.836   7.400   7.102
19741TIP3   OH2 9690   4.975   7.497   7.059
19741TIP3    H1 9691   5.047   7.437   7.033
19741TIP3    H2 9692   5.010   7.539   7.140
19742TIP3   OH2 9693   5.477   5.757   6.965
19742TIP3    H1 9694   5.393   5.786   6.926
19742TIP3    H2 9695   5.493   5.674   6.915
19743TIP3   OH2 9696   4.055   7.547   6.835
19743TIP3    H1 9697   3.984   7.600   6.795
19743TIP3    H2 9698   4.023   7.532   6.925
19744TIP3   OH2 9699   4.302   7.506   6.741
19744TIP3    H1 9700   4.214   7.524   6.781
19744TIP3    H2 9701   4.298   7.567   6.664
19745TIP3   OH2 9702   4.774   7.499   6.659
19745TIP3    H1 9703   4.728   7.554   6.594
19745TIP3    H2 9704   4.787   7.564   6.732
19746TIP3   OH2 9705   5.003   7.381   6.761
19746TIP3    H1 9706   4.917   7.408   6.725
19746TIP3    H2 9707   5.050   7.465   6.752
19747TIP3   OH2 9708   5.260   7.538   6.783
19747TIP3    H1 9709   5.254   7.634   6.761
19747TIP3    H2 9710   5.282   7.500   6.696
19748TIP3   OH2 9711   4.002   7.415   6.530
19748TIP3    H1 9712   3.993   7.370   6.616
19748TIP3    H2 9713   4.083   7.377   6.492
19749TIP3   OH2 9714   4.209   7.287   6.391
19749TIP3    H1 9715   4.192   7.194   6.416
19749TIP3    H2 9716   4.294   7.302   6.439
19750TIP3   OH2 9717   4.470   7.334   6.482
19750TIP3    H1 9718   4.485   7.242   6.455
19750TIP3    H2 9719   4.473   7.327   6.579
19751TIP3   OH2 9720   4.815   5.900   6.396
19751TIP3    H1 9721   4.747   5.835   6.423
19751TIP3    H2 9722   4.870   5.847   6.337
19752TIP3   OH2 9723   5.329   5.705   6.402
19752TIP3    H1 9724   5.390   5.764   6.351
19752TIP3    H2 9725   5.240   5.741   6.379
19753TIP3   OH2 9726   5.496   5.829   6.230
19753TIP3    H1 9727   5.564   5.771   6.188
19753TIP3    H2 9728   5.546   5.913   6.240
19754TIP3   OH2 9729   4.052   5.762   6.180
19754TIP3    H1 9730   3.972   5.742   6.127
19754TIP3    H2 9731   4.098   5.676   6.175
19755TIP3   OH2 9732   3.926   5.738   5.749
19755TIP3    H1 9733   3.978   5.803   5.698
19755TIP3    H2 9734   3.873   5.795   5.808
19756TIP3   OH2 9735   4.500   5.755   6.159
19756TIP3    H1 9736   4.590   5.791   6.152
19756TIP3    H2 9737   4.496   5.733   6.252
19757TIP3   OH2 9738   5.070   5.757   6.322
19757TIP3    H1 9739   5.066   5.768   6.226
19757TIP3    H2 9740   5.033   5.666   6.334
19758TIP3   OH2 9741   5.198   5.760   5.887
19758TIP3    H1 9742   5.123   5.819   5.872
19758TIP3    H2 9743   5.154   5.675   5.911
19759TIP3   OH2 9744   3.861   7.246   5.815
19759TIP3    H1 9745   3.788   7.219   5.754
19759TIP3    H2 9746   3.859   7.343   5.818
19760TIP3   OH2 9747   4.110   5.927   5.606
19760TIP3    H1 9748   4.166   5.871   5.552
19760TIP3    H2 9749   4.176   5.966   5.665
19761TIP3   OH2 9750   4.615   5.957   5.844
19761TIP3    H1 9751   4.640   5.899   5.918
19761TIP3    H2 9752   4.621   6.043   5.892
19762TIP3   OH2 9753   4.806   7.467   5.685
19762TIP3    H1 9754   4.900   7.485   5.669
19762TIP3    H2 9755   4.787   7.410   5.607
19763TIP3   OH2 9756   5.478   7.414   5.960
19763TIP3    H1 9757   5.458   7.337   5.902
19763TIP3    H2 9758   5.469   7.488   5.896
19764TIP3   OH2 9759   4.091   5.823   7.084
19764TIP3    H1 9760   4.025   5.763   7.133
19764TIP3    H2 9761   4.145   5.818   7.167
19765TIP3   OH2 9762   4.244   5.753   7.279
19765TIP3    H1 9763   4.332   5.715   7.269
19765TIP3    H2 9764   4.201   5.681   7.331
19766TIP3   OH2 9765   4.105   7.435   5.550
19766TIP3    H1 9766   4.075   7.457   5.637
19766TIP3    H2 9767   4.177   7.373   5.564
19767TIP3   OH2 9768   5.083   5.684   7.308
19767TIP3    H1 9769   5.098   5.637   7.389
19767TIP3    H2 9770   5.172   5.682   7.265
19768TIP3   OH2 9771   5.402   7.287   7.169
19768TIP3    H1 9772   5.322   7.273   7.115
19768TIP3    H2 9773   5.391   7.382   7.190
19769TIP3   OH2 9774   6.847   6.675   6.167
19769TIP3    H1 9775   6.847   6.774   6.163
19769TIP3    H2 9776   6.775   6.652   6.106
19770TIP3   OH2 9777   6.732   6.602   6.516
19770TIP3    H1 9778   6.731   6.537   6.588
19770TIP3    H2 9779   6.698   6.552   6.441
19771TIP3   OH2 9780   5.968   6.569   6.670
19771TIP3    H1 9781   5.976   6.501   6.741
19771TIP3    H2 9782   6.042   6.627   6.694
19772TIP3   OH2 9783   7.101   6.896   6.345
19772TIP3    H1 9784   7.059   6.825   6.394
19772TIP3    H2 9785   7.103   6.967   6.412
19773TIP3   OH2 9786   6.060   7.014   6.521
19773TIP3    H1 9787   6.029   6.927   6.490
19773TIP3    H2 9788   6.155   6.995   6.528
19774TIP3   OH2 9789   5.724   6.370   6.070
19774TIP3    H1 9790   5.680   6.457   6.064
19774TIP3    H2 9791   5.668   6.316   6.014
19775TIP3   OH2 9792   5.795   6.592   6.285
19775TIP3    H1 9793   5.822   6.510   6.330
19775TIP3    H2 9794   5.865   6.603   6.219
19776TIP3   OH2 9795   6.813   7.413   6.368
19776TIP3    H1 9796   6.878   7.343   6.340
19776TIP3    H2 9797   6.791   7.379   6.455
19777TIP3   OH2 9798   6.570   6.842   6.563
19777TIP3    H1 9799   6.604   6.779   6.497
19777TIP3    H2 9800   6.650   6.858   6.615
19778TIP3   OH2 9801   7.430   6.008   6.636
19778TIP3    H1 9802   7.447   6.067   6.713
19778TIP3    H2 9803   7.486   6.050   6.570
19779TIP3   OH2 9804   6.886   6.289   6.594
19779TIP3    H1 9805   6.903   6.193   6.595
19779TIP3    H2 9806   6.876   6.303   6.498
19780TIP3   OH2 9807   6.198   6.097   6.316
19780TIP3    H1 9808   6.208   6.181   6.267
19780TIP3    H2 9809   6.158   6.040   6.248
19781TIP3   OH2 9810   6.971   6.105   6.154
19781TIP3    H1 9811   7.037   6.074   6.220
19781TIP3    H2 9812   7.026   6.162   6.098
19782TIP3   OH2 9813   5.860   6.338   6.390
19782TIP3    H1 9814   5.927   6.284   6.435
19782TIP3    H2 9815   5.870   6.307   6.299
19783TIP3   OH2 9816   6.376   6.496   6.321
19783TIP3    H1 9817   6.443   6.437   6.362
19783TIP3    H2 9818   6.324   6.429   6.271
19784TIP3   OH2 9819   7.476   6.150   6.864
19784TIP3    H1 9820   7.413   6.223   6.851
19784TIP3    H2 9821   7.476   6.139   6.960
19785TIP3   OH2 9822   6.088   5.987   6.720
19785TIP3    H1 9823   6.060   6.044   6.646
19785TIP3    H2 9824   6.021   6.011   6.788
19786TIP3   OH2 9825   6.813   6.935   6.076
19786TIP3    H1 9826   6.795   6.908   5.985
19786TIP3    H2 9827   6.789   7.030   6.080
19787TIP3   OH2 9828   6.340   6.752   6.745
19787TIP3    H1 9829   6.269   6.816   6.766
19787TIP3    H2 9830   6.411   6.812   6.716
19788TIP3   OH2 9831   7.152   6.040   6.352
19788TIP3    H1 9832   7.131   5.963   6.406
19788TIP3    H2 9833   7.219   6.084   6.407
19789TIP3   OH2 9834   6.045   6.173   6.523
19789TIP3    H1 9835   6.108   6.242   6.556
19789TIP3    H2 9836   6.097   6.132   6.450
19790TIP3   OH2 9837   6.184   6.952   6.825
19790TIP3    H1 9838   6.180   7.044   6.792
19790TIP3    H2 9839   6.097   6.945   6.871
19791TIP3   OH2 9840   5.794   6.914   5.905
19791TIP3    H1 9841   5.768   6.945   5.816
19791TIP3    H2 9842   5.797   6.998   5.956
19792TIP3   OH2 9843   7.154   7.080   6.581
19792TIP3    H1 9844   7.057   7.091   6.593
19792TIP3    H2 9845   7.181   7.172   6.561
19793TIP3   OH2 9846   7.186   5.909   6.720
19793TIP3    H1 9847   7.113   5.972   6.711
19793TIP3    H2 9848   7.257   5.951   6.668
19794TIP3   OH2 9849   6.483   5.721   6.467
19794TIP3    H1 9850   6.469   5.624   6.460
19794TIP3    H2 9851   6.395   5.751   6.498
19795TIP3   OH2 9852   6.979   7.259   6.240
19795TIP3    H1 9853   7.023   7.187   6.190
19795TIP3    H2 9854   7.022   7.338   6.201
19796TIP3   OH2 9855   7.100   7.051   6.092
19796TIP3    H1 9856   7.072   6.982   6.030
19796TIP3    H2 9857   7.104   7.002   6.176
19797TIP3   OH2 9858   7.263   6.911   6.940
19797TIP3    H1 9859   7.277   6.845   6.868
19797TIP3    H2 9860   7.284   6.995   6.895
19798TIP3   OH2 9861   6.711   6.602   5.918
19798TIP3    H1 9862   6.642   6.656   5.877
19798TIP3    H2 9863   6.783   6.607   5.852
19799TIP3   OH2 9864   6.720   6.455   5.624
19799TIP3    H1 9865   6.792   6.454   5.689
19799TIP3    H2 9866   6.750   6.387   5.563
19800TIP3   OH2 9867   7.453   6.542   6.744
19800TIP3    H1 9868   7.386   6.613   6.751
19800TIP3    H2 9869   7.498   6.567   6.663
19801TIP3   OH2 9870   7.058   6.622   6.011
19801TIP3    H1 9871   6.983   6.645   6.071
19801TIP3    H2 9872   7.104   6.553   6.062
19802TIP3   OH2 9873   7.049   6.438   6.921
19802TIP3    H1 9874   7.050   6.519   6.974
19802TIP3    H2 9875   6.986   6.467   6.852
19803TIP3   OH2 9876   6.222   6.689   6.199
19803TIP3    H1 9877   6.183   6.645   6.119
19803TIP3    H2 9878   6.278   6.617   6.236
19804TIP3   OH2 9879   6.351   7.028   6.467
19804TIP3    H1 9880   6.349   6.970   6.391
19804TIP3    H2 9881   6.427   6.991   6.516
19805TIP3   OH2 9882   6.251   6.562   6.567
19805TIP3    H1 9883   6.307   6.572   6.488
19805TIP3    H2 9884   6.290   6.628   6.629
19806TIP3   OH2 9885   6.893   7.118   6.639
19806TIP3    H1 9886   6.862   7.182   6.703
19806TIP3    H2 9887   6.867   7.033   6.681
19807TIP3   OH2 9888   6.346   7.005   7.038
19807TIP3    H1 9889   6.304   7.079   7.085
19807TIP3    H2 9890   6.279   6.984   6.968
19808TIP3   OH2 9891   6.944   6.540   5.778
19808TIP3    H1 9892   7.000   6.558   5.858
19808TIP3    H2 9893   6.986   6.592   5.706
19809TIP3   OH2 9894   6.040   6.622   6.953
19809TIP3    H1 9895   6.045   6.686   7.026
19809TIP3    H2 9896   5.946   6.630   6.932
19810TIP3   OH2 9897   6.712   7.212   6.124
19810TIP3    H1 9898   6.760   7.243   6.203
19810TIP3    H2 9899   6.661   7.290   6.100
19811TIP3   OH2 9900   6.172   7.207   7.112
19811TIP3    H1 9901   6.166   7.198   7.016
19811TIP3    H2 9902   6.079   7.195   7.138
19812TIP3   OH2 9903   7.316   5.714   5.769
19812TIP3    H1 9904   7.220   5.725   5.792
19812TIP3    H2 9905   7.336   5.798   5.723
19813TIP3   OH2 9906   6.115   6.592   5.964
19813TIP3    H1 9907   6.083   6.666   5.909
19813TIP3    H2 9908   6.052   6.522   5.941
19814TIP3   OH2 9909   7.426   7.148   5.609
19814TIP3    H1 9910   7.439   7.245   5.615
19814TIP3    H2 9911   7.518   7.121   5.593
19815TIP3   OH2 9912   5.724   6.832   6.851
19815TIP3    H1 9913   5.679   6.824   6.765
19815TIP3    H2 9914   5.731   6.737   6.875
19816TIP3   OH2 9915   5.700   7.106   6.530
19816TIP3    H1 9916   5.796   7.094   6.529
19816TIP3    H2 9917   5.692   7.187   6.581
19817TIP3   OH2 9918   7.522   7.177   7.096
19817TIP3    H1 9919   7.513   7.081   7.097
19817TIP3    H2 9920   7.438   7.201   7.140
19818TIP3   OH2 9921   6.622   7.130   6.988
19818TIP3    H1 9922   6.623   7.215   7.036
19818TIP3    H2 9923   6.533   7.093   7.009
19819TIP3   OH2 9924   6.664   7.506   5.965
19819TIP3    H1 9925   6.654   7.498   5.869
19819TIP3    H2 9926   6.666   7.602   5.980
19820TIP3   OH2 9927   6.029   7.390   6.147
19820TIP3    H1 9928   6.041   7.352   6.237
19820TIP3    H2 9929   5.942   7.353   6.124
19821TIP3   OH2 9930   6.965   7.423   5.660
19821TIP3    H1 9931   7.015   7.350   5.619
19821TIP3    H2 9932   6.973   7.399   5.755
19822TIP3   OH2 9933   6.938   7.419   5.941
19822TIP3    H1 9934   6.842   7.426   5.960
19822TIP3    H2 9935   6.963   7.345   5.998
19823TIP3   OH2 9936   7.237   6.320   7.148
19823TIP3    H1 9937   7.192   6.368   7.076
19823TIP3    H2 9938   7.237   6.230   7.114
19824TIP3   OH2 9939   5.952   6.964   6.947
19824TIP3    H1 9940   5.975   6.927   7.035
19824TIP3    H2 9941   5.866   6.923   6.925
19825TIP3   OH2 9942   6.220   5.811   6.542
19825TIP3    H1 9943   6.130   5.799   6.505
19825TIP3    H2 9944   6.208   5.894   6.590
19826TIP3   OH2 9945   6.685   5.778   6.879
19826TIP3    H1 9946   6.723   5.736   6.958
19826TIP3    H2 9947   6.588   5.766   6.893
19827TIP3   OH2 9948   7.015   6.163   6.968
19827TIP3    H1 9949   6.958   6.142   7.045
19827TIP3    H2 9950   6.995   6.255   6.945
19828TIP3   OH2 9951   7.088   6.644   5.547
19828TIP3    H1 9952   7.092   6.622   5.453
19828TIP3    H2 9953   7.173   6.688   5.563
19829TIP3   OH2 9954   6.637   6.035   5.613
19829TIP3    H1 9955   6.628   6.030   5.710
19829TIP3    H2 9956   6.632   5.945   5.580
19830TIP3   OH2 9957   6.231   6.309   6.666
19830TIP3    H1 9958   6.157   6.307   6.730
19830TIP3    H2 9959   6.226   6.400   6.630
19831TIP3   OH2 9960   6.226   6.321   6.154
19831TIP3    H1 9961   6.133   6.295   6.140
19831TIP3    H2 9962   6.265   6.292   6.069
19832TIP3   OH2 9963   6.779   6.371   6.031
19832TIP3    H1 9964   6.738   6.453   5.996
19832TIP3    H2 9965   6.847   6.354   5.963
19833TIP3   OH2 9966   6.687   6.390   7.171
19833TIP3    H1 9967   6.630   6.317   7.207
19833TIP3    H2 9968   6.766   6.380   7.226
19834TIP3   OH2 9969   6.882   6.319   6.315
19834TIP3    H1 9970   6.854   6.375   6.241
19834TIP3    H2 9971   6.892   6.234   6.268
19835TIP3   OH2 9972   5.993   6.334   6.836
19835TIP3    H1 9973   6.001   6.374   6.924
19835TIP3    H2 9974   5.949   6.250   6.856
19836TIP3   OH2 9975   6.331   6.065   5.525
19836TIP3    H1 9976   6.272   6.035   5.594
19836TIP3    H2 9977   6.269   6.112   5.466
19837TIP3   OH2 9978   5.659   6.045   6.233
19837TIP3    H1 9979   5.727   6.041   6.303
19837TIP3    H2 9980   5.704   6.007   6.156
19838TIP3   OH2 9981   5.787   6.117   5.773
19838TIP3    H1 9982   5.837   6.176   5.713
19838TIP3    H2 9983   5.717   6.180   5.803
19839TIP3   OH2 9984   6.802   6.478   6.771
19839TIP3    H1 9985   6.840   6.409   6.712
19839TIP3    H2 9986   6.756   6.425   6.838
19840TIP3   OH2 9987   6.482   6.073   6.252
19840TIP3    H1 9988   6.389   6.076   6.283
19840TIP3    H2 9989   6.531   6.059   6.335
19841TIP3   OH2 9990   5.963   6.231   6.141
19841TIP3    H1 9991   5.874   6.246   6.102
19841TIP3    H2 9992   5.992   6.147   6.100
19842TIP3   OH2 9993   6.329   6.230   5.898
19842TIP3    H1 9994   6.422   6.249   5.922
19842TIP3    H2 9995   6.303   6.303   5.838
19843TIP3   OH2 9996   6.923   5.999   6.578
19843TIP3    H1 9997   6.854   6.004   6.648
19843TIP3    H2 9998   6.872   5.974   6.500
19844TIP3   OH2 9999   6.201   6.349   5.667
19844TIP3    H110000   6.142   6.320   5.594
19844TIP3    H210001   6.278   6.377   5.615
19845TIP3   OH210002   7.238   7.562   7.211
19845TIP3    H110003   7.271   7.603   7.128
19845TIP3    H210004   7.312   7.594   7.269
19846TIP3   OH210005   6.012   6.812   7.165
19846TIP3    H110006   6.081   6.835   7.229
19846TIP3    H210007   5.934   6.820   7.225
19847TIP3   OH210008   6.610   6.351   6.444
19847TIP3    H110009   6.671   6.298   6.391
19847TIP3    H210010   6.596   6.296   6.522
19848TIP3   OH210011   6.111   5.966   6.086
19848TIP3    H110012   6.079   5.874   6.088
19848TIP3    H210013   6.191   5.958   6.033
19849TIP3   OH210014   6.474   6.184   6.685
19849TIP3    H110015   6.392   6.236   6.694
19849TIP3    H210016   6.530   6.219   6.757
19850TIP3   OH210017   6.522   6.818   5.855
19850TIP3    H110018   6.456   6.753   5.821
19850TIP3    H210019   6.518   6.807   5.952
19851TIP3   OH210020   7.252   6.725   6.734
19851TIP3    H110021   7.308   6.775   6.671
19851TIP3    H210022   7.165   6.731   6.688
19852TIP3   OH210023   6.914   6.085   5.678
19852TIP3    H110024   6.822   6.103   5.655
19852TIP3    H210025   6.950   6.172   5.703
19853TIP3   OH210026   6.682   6.832   6.977
19853TIP3    H110027   6.649   6.790   7.058
19853TIP3    H210028   6.658   6.924   6.989
19854TIP3   OH210029   6.992   6.280   5.839
19854TIP3    H110030   7.080   6.266   5.877
19854TIP3    H210031   7.000   6.361   5.787
19855TIP3   OH210032   6.044   6.746   6.435
19855TIP3    H110033   6.113   6.736   6.366
19855TIP3    H210034   6.050   6.659   6.480
19856TIP3   OH210035   6.742   6.952   5.760
19856TIP3    H110036   6.710   7.038   5.795
19856TIP3    H210037   6.668   6.891   5.780
19857TIP3   OH210038   5.744   6.585   6.960
19857TIP3    H110039   5.761   6.542   7.047
19857TIP3    H210040   5.681   6.524   6.918
19858TIP3   OH210041   6.445   6.547   7.176
19858TIP3    H110042   6.413   6.510   7.093
19858TIP3    H210043   6.535   6.511   7.183
19859TIP3   OH210044   6.915   7.081   6.975
19859TIP3    H110045   6.822   7.090   6.948
19859TIP3    H210046   6.907   7.100   7.068
19860TIP3   OH210047   7.480   6.294   5.814
19860TIP3    H110048   7.423   6.264   5.740
19860TIP3    H210049   7.487   6.387   5.786
19861TIP3   OH210050   7.479   6.879   7.093
19861TIP3    H110051   7.391   6.901   7.055
19861TIP3    H210052   7.535   6.876   7.012
19862TIP3   OH210053   7.306   7.175   5.854
19862TIP3    H110054   7.271   7.091   5.885
19862TIP3    H210055   7.339   7.157   5.763
19863TIP3   OH210056   7.029   6.658   6.563
19863TIP3    H110057   6.935   6.637   6.552
19863TIP3    H210058   7.072   6.582   6.520
19864TIP3   OH210059   6.283   7.087   6.156
19864TIP3    H110060   6.330   7.173   6.158
19864TIP3    H210061   6.191   7.118   6.147
19865TIP3   OH210062   5.854   6.576   5.624
19865TIP3    H110063   5.916   6.638   5.666
19865TIP3    H210064   5.769   6.605   5.661
19866TIP3   OH210065   6.419   6.858   6.122
19866TIP3    H110066   6.397   6.949   6.151
19866TIP3    H210067   6.354   6.805   6.174
19867TIP3   OH210068   6.469   7.276   6.765
19867TIP3    H110069   6.514   7.357   6.737
19867TIP3    H210070   6.530   7.242   6.832
19868TIP3   OH210071   6.291   7.355   6.080
19868TIP3    H110072   6.194   7.371   6.092
19868TIP3    H210073   6.327   7.440   6.112
19869TIP3   OH210074   6.821   6.876   6.728
19869TIP3    H110075   6.787   6.856   6.818
19869TIP3    H210076   6.885   6.805   6.711
19870TIP3   OH210077   7.049   6.979   5.636
19870TIP3    H110078   7.082   6.936   5.717
19870TIP3    H210079   6.954   6.965   5.649
19871TIP3   OH210080   7.089   7.342   6.986
19871TIP3    H110081   7.036   7.283   6.927
19871TIP3    H210082   7.122   7.401   6.913
19872TIP3   OH210083   7.500   7.422   5.659
19872TIP3    H110084   7.570   7.486   5.639
19872TIP3    H210085   7.428   7.480   5.690
19873TIP3   OH210086   5.908   6.060   6.917
19873TIP3    H110087   5.818   6.095   6.913
19873TIP3    H210088   5.897   5.975   6.962
19874TIP3   OH210089   7.132   6.846   5.862
19874TIP3    H110090   7.108   6.767   5.915
19874TIP3    H210091   7.227   6.851   5.880
19875TIP3   OH210092   5.870   7.238   6.758
19875TIP3    H110093   5.899   7.146   6.759
19875TIP3    H210094   5.896   7.267   6.847
19876TIP3   OH210095   6.470   7.086   5.484
19876TIP3    H110096   6.479   7.011   5.426
19876TIP3    H210097   6.422   7.050   5.561
19877TIP3   OH210098   6.339   7.046   5.730
19877TIP3    H110099   6.386   6.991   5.791
19877TIP3    H210100   6.354   7.140   5.756
19878TIP3   OH210101   6.000   6.769   5.782
19878TIP3    H110102   5.927   6.808   5.834
19878TIP3    H210103   6.046   6.848   5.748
19879TIP3   OH210104   6.782   6.037   6.811
19879TIP3    H110105   6.853   6.043   6.876
19879TIP3    H210106   6.743   5.949   6.831
19880TIP3   OH210107   6.854   5.996   5.922
19880TIP3    H110108   6.882   6.041   5.839
19880TIP3    H210109   6.915   6.037   5.985
19881TIP3   OH210110   6.622   7.208   5.798
19881TIP3    H110111   6.544   7.265   5.809
19881TIP3    H210112   6.678   7.262   5.740
19882TIP3   OH210113   6.576   6.177   6.005
19882TIP3    H110114   6.659   6.228   6.008
19882TIP3    H210115   6.555   6.159   6.099
19883TIP3   OH210116   6.634   6.272   6.921
19883TIP3    H110117   6.642   6.329   6.999
19883TIP3    H210118   6.700   6.202   6.931
19884TIP3   OH210119   6.663   5.875   6.090
19884TIP3    H110120   6.633   5.939   6.156
19884TIP3    H210121   6.734   5.929   6.046
19885TIP3   OH210122   6.362   7.312   5.808
19885TIP3    H110123   6.377   7.393   5.753
19885TIP3    H210124   6.337   7.352   5.893
19886TIP3   OH210125   6.230   5.989   5.763
19886TIP3    H110126   6.217   6.080   5.798
19886TIP3    H210127   6.309   5.967   5.812
19887TIP3   OH210128   7.252   6.058   7.008
19887TIP3    H110129   7.159   6.089   6.994
19887TIP3    H210130   7.282   6.057   6.915
19888TIP3   OH210131   7.114   6.437   6.407
19888TIP3    H110132   7.031   6.393   6.379
19888TIP3    H210133   7.159   6.368   6.460
19889TIP3   OH210134   6.059   7.023   5.673
19889TIP3    H110135   6.116   7.097   5.694
19889TIP3    H210136   6.104   6.984   5.595
19890TIP3   OH210137   5.891   6.296   5.585
19890TIP3    H110138   5.889   6.393   5.597
19890TIP3    H210139   5.804   6.277   5.548
19891TIP3   OH210140   7.220   7.362   6.574
19891TIP3    H110141   7.210   7.431   6.505
19891TIP3    H210142   7.316   7.368   6.591
19892TIP3   OH210143   5.969   5.775   6.454
19892TIP3    H110144   5.949   5.777   6.358
19892TIP3    H210145   5.927   5.690   6.480
19893TIP3   OH210146   5.866   7.167   6.069
19893TIP3    H110147   5.780   7.211   6.066
19893TIP3    H210148   5.911   7.216   5.999
19894TIP3   OH210149   5.784   7.434   7.199
19894TIP3    H110150   5.847   7.412   7.270
19894TIP3    H210151   5.745   7.348   7.180
19895TIP3   OH210152   6.251   7.324   7.358
19895TIP3    H110153   6.327   7.277   7.389
19895TIP3    H210154   6.247   7.298   7.264
19896TIP3   OH210155   6.665   7.276   5.495
19896TIP3    H110156   6.594   7.213   5.518
19896TIP3    H210157   6.739   7.218   5.477
19897TIP3   OH210158   6.906   7.172   7.238
19897TIP3    H110159   6.870   7.080   7.253
19897TIP3    H210160   6.987   7.160   7.289
19898TIP3   OH210161   7.123   7.253   5.519
19898TIP3    H110162   7.149   7.171   5.565
19898TIP3    H210163   7.200   7.271   5.465
19899TIP3   OH210164   5.780   6.808   7.289
19899TIP3    H110165   5.793   6.715   7.263
19899TIP3    H210166   5.702   6.836   7.239
19900TIP3   OH210167   6.218   6.846   5.506
19900TIP3    H110168   6.224   6.764   5.558
19900TIP3    H210169   6.278   6.829   5.433
19901TIP3   OH210170   6.451   6.808   7.235
19901TIP3    H110171   6.414   6.838   7.150
19901TIP3    H210172   6.455   6.710   7.225
19902TIP3   OH210173   6.749   6.950   5.475
19902TIP3    H110174   6.728   6.968   5.569
19902TIP3    H210175   6.731   6.856   5.469
19903TIP3   OH210176   7.018   6.794   6.976
19903TIP3    H110177   7.096   6.852   6.967
19903TIP3    H210178   6.946   6.859   6.978
19904TIP3   OH210179   5.866   6.532   7.233
19904TIP3    H110180   5.909   6.446   7.224
19904TIP3    H210181   5.846   6.532   7.329
19905TIP3   OH210182   6.334   6.648   5.744
19905TIP3    H110183   6.281   6.592   5.803
19905TIP3    H210184   6.362   6.580   5.677
19906TIP3   OH210185   6.258   6.427   6.970
19906TIP3    H110186   6.198   6.499   6.997
19906TIP3    H210187   6.297   6.464   6.889
19907TIP3   OH210188   6.440   6.472   5.562
19907TIP3    H110189   6.426   6.452   5.468
19907TIP3    H210190   6.537   6.475   5.572
19908TIP3   OH210191   6.765   6.683   7.308
19908TIP3    H110192   6.860   6.682   7.293
19908TIP3    H210193   6.746   6.605   7.363
19909TIP3   OH210194   7.379   6.703   5.503
19909TIP3    H110195   7.347   6.662   5.423
19909TIP3    H210196   7.378   6.797   5.483
19910TIP3   OH210197   6.298   6.164   7.076
19910TIP3    H110198   6.309   6.093   7.010
19910TIP3    H210199   6.294   6.245   7.022
19911TIP3   OH210200   6.339   6.003   6.831
19911TIP3    H110201   6.390   6.049   6.760
19911TIP3    H210202   6.250   5.995   6.791
19912TIP3   OH210203   6.493   6.551   6.855
19912TIP3    H110204   6.569   6.535   6.799
19912TIP3    H210205   6.457   6.635   6.823
19913TIP3   OH210206   6.932   6.326   7.354
19913TIP3    H110207   6.958   6.235   7.343
19913TIP3    H210208   7.019   6.371   7.354
19914TIP3   OH210209   7.066   6.606   7.168
19914TIP3    H110210   7.041   6.678   7.106
19914TIP3    H210211   7.162   6.603   7.150
19915TIP3   OH210212   6.143   6.291   7.267
19915TIP3    H110213   6.067   6.231   7.252
19915TIP3    H210214   6.210   6.253   7.207
19916TIP3   OH210215   6.418   5.746   6.871
19916TIP3    H110216   6.400   5.843   6.861
19916TIP3    H210217   6.343   5.710   6.821
19917TIP3   OH210218   6.546   6.173   7.234
19917TIP3    H110219   6.508   6.162   7.323
19917TIP3    H210220   6.467   6.162   7.177
19918TIP3   OH210221   6.817   6.091   7.139
19918TIP3    H110222   6.721   6.100   7.151
19918TIP3    H210223   6.843   6.029   7.209
19919TIP3   OH210224   6.971   5.959   7.335
19919TIP3    H110225   6.972   5.860   7.331
19919TIP3    H210226   6.949   5.985   7.425
19920TIP3   OH210227   5.951   6.082   7.238
19920TIP3    H110228   5.979   6.008   7.183
19920TIP3    H210229   5.945   6.041   7.327
19921TIP3   OH210230   6.441   5.686   7.140
19921TIP3    H110231   6.506   5.613   7.138
19921TIP3    H210232   6.428   5.701   7.045
19922TIP3   OH210233   6.479   5.847   7.351
19922TIP3    H110234   6.460   5.797   7.267
19922TIP3    H210235   6.416   5.922   7.342
19923TIP3   OH210236   6.423   7.541   5.670
19923TIP3    H110237   6.521   7.546   5.674
19923TIP3    H210238   6.405   7.601   5.597
19924TIP3   OH210239   5.781   6.998   5.617
19924TIP3    H110240   5.876   7.007   5.639
19924TIP3    H210241   5.787   6.936   5.543
19925TIP3   OH210242   5.657   7.534   6.112
19925TIP3    H110243   5.585   7.486   6.066
19925TIP3    H210244   5.684   7.469   6.179
19926TIP3   OH210245   5.738   7.348   6.300
19926TIP3    H110246   5.703   7.260   6.320
19926TIP3    H210247   5.760   7.381   6.389
19927TIP3   OH210248   7.488   7.428   6.593
19927TIP3    H110249   7.493   7.443   6.689
19927TIP3    H210250   7.561   7.484   6.563
19928TIP3   OH210251   7.447   7.387   6.890
19928TIP3    H110252   7.403   7.309   6.850
19928TIP3    H210253   7.502   7.342   6.957
19929TIP3   OH210254   7.425   6.791   5.898
19929TIP3    H110255   7.511   6.832   5.919
19929TIP3    H210256   7.424   6.720   5.965
19930TIP3   OH210257   7.460   6.599   6.087
19930TIP3    H110258   7.386   6.548   6.125
19930TIP3    H210259   7.519   6.614   6.163
19931TIP3   OH210260   7.436   6.870   6.586
19931TIP3    H110261   7.517   6.833   6.548
19931TIP3    H210262   7.451   6.965   6.569
19932TIP3   OH210263   7.292   7.161   6.813
19932TIP3    H110264   7.223   7.193   6.871
19932TIP3    H210265   7.239   7.119   6.741
19933TIP3   OH210266   7.495   6.586   5.722
19933TIP3    H110267   7.433   6.618   5.653
19933TIP3    H210268   7.480   6.652   5.793
19934TIP3   OH210269   7.324   6.304   5.582
19934TIP3    H110270   7.335   6.369   5.512
19934TIP3    H210271   7.310   6.222   5.530
19935TIP3   OH210272   7.243   6.447   6.144
19935TIP3    H110273   7.228   6.351   6.140
19935TIP3    H210274   7.210   6.469   6.233
19936TIP3   OH210275   5.744   6.655   6.550
19936TIP3    H110276   5.762   6.647   6.453
19936TIP3    H210277   5.833   6.638   6.585
19937TIP3   OH210278   7.327   6.645   7.113
19937TIP3    H110279   7.387   6.569   7.129
19937TIP3    H210280   7.389   6.720   7.113
19938TIP3   OH210281   7.478   6.435   7.178
19938TIP3    H110282   7.391   6.394   7.161
19938TIP3    H210283   7.535   6.357   7.169
19939TIP3   OH210284   7.251   6.055   5.496
19939TIP3    H110285   7.311   6.005   5.555
19939TIP3    H210286   7.167   6.008   5.506
19940TIP3   OH210287   7.210   6.205   5.992
19940TIP3    H110288   7.240   6.111   6.003
19940TIP3    H210289   7.289   6.244   5.952
19941TIP3   OH210290   7.274   6.259   6.534
19941TIP3    H110291   7.370   6.283   6.533
19941TIP3    H210292   7.254   6.274   6.628
19942TIP3   OH210293   7.280   6.332   6.812
19942TIP3    H110294   7.192   6.361   6.845
19942TIP3    H210295   7.324   6.418   6.791
19943TIP3   OH210296   5.704   6.185   7.165
19943TIP3    H110297   5.798   6.165   7.183
19943TIP3    H210298   5.660   6.103   7.194
19944TIP3   OH210299   7.502   5.736   7.344
19944TIP3    H110300   7.542   5.671   7.285
19944TIP3    H210301   7.520   5.820   7.298
19945TIP3   OH210302   7.276   5.933   5.994
19945TIP3    H110303   7.298   5.889   6.080
19945TIP3    H210304   7.216   5.869   5.950
19946TIP3   OH210305   5.825   6.014   6.450
19946TIP3    H110306   5.872   5.932   6.476
19946TIP3    H210307   5.880   6.084   6.489
19947TIP3   OH210308   5.654   6.314   6.554
19947TIP3    H110309   5.710   6.290   6.478
19947TIP3    H210310   5.700   6.395   6.581
19948TIP3   OH210311   7.461   5.949   7.183
19948TIP3    H110312   7.367   5.974   7.174
19948TIP3    H210313   7.465   5.893   7.103
19949TIP3   OH210314   7.459   5.938   5.648
19949TIP3    H110315   7.501   5.865   5.600
19949TIP3    H210316   7.531   6.004   5.654
19950TIP3   OH210317   5.690   5.939   5.960
19950TIP3    H110318   5.596   5.960   5.948
19950TIP3    H210319   5.732   5.990   5.888
19951TIP3   OH210320   7.165   7.434   6.156
19951TIP3    H110321   7.233   7.404   6.094
19951TIP3    H210322   7.216   7.485   6.220
19952TIP3   OH210323   5.685   5.806   6.791
19952TIP3    H110324   5.618   5.787   6.859
19952TIP3    H210325   5.639   5.874   6.737
19953TIP3   OH210326   5.909   7.129   7.206
19953TIP3    H110327   5.824   7.147   7.165
19953TIP3    H210328   5.883   7.118   7.298
19954TIP3   OH210329   6.198   7.226   6.833
19954TIP3    H110330   6.165   7.313   6.807
19954TIP3    H210331   6.291   7.235   6.805
19955TIP3   OH210332   6.633   7.368   7.129
19955TIP3    H110333   6.649   7.332   7.216
19955TIP3    H210334   6.719   7.400   7.096
19956TIP3   OH210335   6.855   7.495   7.052
19956TIP3    H110336   6.928   7.446   7.011
19956TIP3    H210337   6.890   7.557   7.120
19957TIP3   OH210338   7.361   5.757   6.966
19957TIP3    H110339   7.278   5.787   6.925
19957TIP3    H210340   7.378   5.675   6.914
19958TIP3   OH210341   5.940   7.546   6.835
19958TIP3    H110342   5.869   7.600   6.795
19958TIP3    H210343   5.909   7.532   6.925
19959TIP3   OH210344   6.188   7.507   6.741
19959TIP3    H110345   6.099   7.524   6.781
19959TIP3    H210346   6.183   7.567   6.664
19960TIP3   OH210347   6.659   7.499   6.659
19960TIP3    H110348   6.613   7.553   6.593
19960TIP3    H210349   6.672   7.565   6.731
19961TIP3   OH210350   6.886   7.382   6.765
19961TIP3    H110351   6.802   7.407   6.723
19961TIP3    H210352   6.935   7.465   6.750
19962TIP3   OH210353   7.144   7.538   6.785
19962TIP3    H110354   7.139   7.634   6.761
19962TIP3    H210355   7.168   7.501   6.697
19963TIP3   OH210356   5.887   7.415   6.529
19963TIP3    H110357   5.879   7.370   6.615
19963TIP3    H210358   5.968   7.378   6.490
19964TIP3   OH210359   6.096   7.285   6.392
19964TIP3    H110360   6.077   7.193   6.419
19964TIP3    H210361   6.180   7.301   6.440
19965TIP3   OH210362   6.356   7.334   6.482
19965TIP3    H110363   6.372   7.242   6.457
19965TIP3    H210364   6.360   7.329   6.578
19966TIP3   OH210365   6.701   5.900   6.395
19966TIP3    H110366   6.632   5.836   6.421
19966TIP3    H210367   6.756   5.847   6.337
19967TIP3   OH210368   7.214   5.705   6.402
19967TIP3    H110369   7.276   5.764   6.352
19967TIP3    H210370   7.126   5.741   6.379
19968TIP3   OH210371   7.382   5.829   6.230
19968TIP3    H110372   7.450   5.771   6.188
19968TIP3    H210373   7.432   5.913   6.240
19969TIP3   OH210374   5.938   5.763   6.180
19969TIP3    H110375   5.858   5.742   6.128
19969TIP3    H210376   5.984   5.677   6.175
19970TIP3   OH210377   5.811   5.738   5.749
19970TIP3    H110378   5.862   5.803   5.697
19970TIP3    H210379   5.758   5.795   5.808
19971TIP3   OH210380   6.386   5.757   6.157
19971TIP3    H110381   6.477   5.791   6.154
19971TIP3    H210382   6.380   5.733   6.250
19972TIP3   OH210383   6.954   5.757   6.320
19972TIP3    H110384   6.950   5.768   6.224
19972TIP3    H210385   6.918   5.666   6.333
19973TIP3   OH210386   7.085   5.758   5.887
19973TIP3    H110387   7.011   5.819   5.872
19973TIP3    H210388   7.039   5.675   5.911
19974TIP3   OH210389   5.807   7.333   5.853
19974TIP3    H110390   5.739   7.333   5.782
19974TIP3    H210391   5.808   7.428   5.870
19975TIP3   OH210392   5.996   5.926   5.606
19975TIP3    H110393   6.052   5.871   5.550
19975TIP3    H210394   6.060   5.967   5.666
19976TIP3   OH210395   6.525   5.962   5.862
19976TIP3    H110396   6.533   5.902   5.939
19976TIP3    H210397   6.514   6.049   5.910
19977TIP3   OH210398   6.692   7.466   5.685
19977TIP3    H110399   6.786   7.485   5.669
19977TIP3    H210400   6.673   7.410   5.607
19978TIP3   OH210401   7.364   7.414   5.960
19978TIP3    H110402   7.343   7.336   5.902
19978TIP3    H210403   7.353   7.487   5.897
19979TIP3   OH210404   5.925   5.816   7.127
19979TIP3    H110405   5.889   5.736   7.167
19979TIP3    H210406   6.018   5.812   7.161
19980TIP3   OH210407   6.127   5.752   7.291
19980TIP3    H110408   6.215   5.719   7.263
19980TIP3    H210409   6.088   5.671   7.330
19981TIP3   OH210410   5.989   7.433   5.549
19981TIP3    H110411   5.960   7.458   5.637
19981TIP3    H210412   6.063   7.374   5.567
19982TIP3   OH210413   6.968   5.686   7.304
19982TIP3    H110414   6.978   5.634   7.386
19982TIP3    H210415   7.058   5.679   7.265
19983TIP3   OH210416   7.283   7.289   7.175
19983TIP3    H110417   7.211   7.273   7.111
19983TIP3    H210418   7.281   7.386   7.187
19984TIP3   OH210419   7.860   6.566   6.663
19984TIP3    H110420   7.859   6.502   6.739
19984TIP3    H210421   7.927   6.628   6.699
19985TIP3   OH210422   7.944   7.010   6.528
19985TIP3    H110423   7.914   6.927   6.489
19985TIP3    H210424   8.042   6.999   6.530
19986TIP3   OH210425   7.611   6.371   6.070
19986TIP3    H110426   7.567   6.458   6.064
19986TIP3    H210427   7.553   6.316   6.014
19987TIP3   OH210428   7.690   6.597   6.288
19987TIP3    H110429   7.701   6.508   6.327
19987TIP3    H210430   7.753   6.600   6.215
19988TIP3   OH210431   8.041   6.112   6.337
19988TIP3    H110432   8.088   6.181   6.284
19988TIP3    H210433   8.040   6.044   6.270
19989TIP3   OH210434   7.759   6.347   6.388
19989TIP3    H110435   7.813   6.279   6.436
19989TIP3    H210436   7.753   6.304   6.300
19990TIP3   OH210437   7.967   5.981   6.720
19990TIP3    H110438   7.947   6.045   6.649
19990TIP3    H210439   7.906   6.014   6.790
19991TIP3   OH210440   7.911   6.183   6.533
19991TIP3    H110441   7.988   6.237   6.566
19991TIP3    H210442   7.967   6.138   6.464
19992TIP3   OH210443   8.049   6.961   6.812
19992TIP3    H110444   8.058   7.056   6.798
19992TIP3    H210445   7.972   6.956   6.872
19993TIP3   OH210446   7.680   6.915   5.905
19993TIP3    H110447   7.651   6.947   5.817
19993TIP3    H210448   7.684   6.998   5.958
19994TIP3   OH210449   8.076   6.682   6.208
19994TIP3    H110450   8.070   6.655   6.114
19994TIP3    H210451   8.160   6.636   6.232
19995TIP3   OH210452   7.920   6.622   6.952
19995TIP3    H110453   7.930   6.690   7.020
19995TIP3    H210454   7.826   6.631   6.931
19996TIP3   OH210455   8.055   7.209   7.114
19996TIP3    H110456   8.051   7.194   7.017
19996TIP3    H210457   7.962   7.194   7.140
19997TIP3   OH210458   8.002   6.588   5.965
19997TIP3    H110459   7.975   6.667   5.913
19997TIP3    H210460   7.932   6.527   5.940
19998TIP3   OH210461   7.609   6.832   6.850
19998TIP3    H110462   7.564   6.824   6.764
19998TIP3    H210463   7.616   6.738   6.874
19999TIP3   OH210464   7.589   7.107   6.530
19999TIP3    H110465   7.685   7.095   6.529
19999TIP3    H210466   7.579   7.188   6.581
20000TIP3   OH210467   7.910   7.393   6.145
20000TIP3    H110468   7.929   7.351   6.232
20000TIP3    H210469   7.827   7.346   6.125
20001TIP3   OH210470   7.831   6.968   6.951
20001TIP3    H110471   7.860   6.927   7.035
20001TIP3    H210472   7.749   6.921   6.925
20002TIP3   OH210473   8.102   5.811   6.541
20002TIP3    H110474   8.013   5.801   6.501
20002TIP3    H210475   8.094   5.899   6.581
20003TIP3   OH210476   8.069   6.273   6.699
20003TIP3    H110477   8.005   6.306   6.763
20003TIP3    H210478   8.103   6.359   6.667
20004TIP3   OH210479   8.081   6.309   6.180
20004TIP3    H110480   7.994   6.286   6.142
20004TIP3    H210481   8.145   6.284   6.112
20005TIP3   OH210482   7.868   6.342   6.842
20005TIP3    H110483   7.885   6.376   6.931
20005TIP3    H210484   7.839   6.251   6.858
20006TIP3   OH210485   7.544   6.045   6.233
20006TIP3    H110486   7.612   6.040   6.303
20006TIP3    H210487   7.591   6.008   6.156
20007TIP3   OH210488   7.675   6.120   5.777
20007TIP3    H110489   7.721   6.176   5.712
20007TIP3    H210490   7.603   6.181   5.803
20008TIP3   OH210491   7.841   6.227   6.143
20008TIP3    H110492   7.755   6.243   6.099
20008TIP3    H210493   7.876   6.144   6.106
20009TIP3   OH210494   8.085   6.352   5.665
20009TIP3    H110495   8.026   6.317   5.595
20009TIP3    H210496   8.163   6.375   5.615
20010TIP3   OH210497   7.902   6.803   7.172
20010TIP3    H110498   7.966   6.846   7.230
20010TIP3    H210499   7.820   6.825   7.223
20011TIP3   OH210500   7.974   5.964   6.080
20011TIP3    H110501   7.955   5.868   6.091
20011TIP3    H210502   8.069   5.963   6.063
20012TIP3   OH210503   7.928   6.746   6.430
20012TIP3    H110504   8.003   6.745   6.366
20012TIP3    H210505   7.942   6.678   6.497
20013TIP3   OH210506   7.629   6.586   6.961
20013TIP3    H110507   7.645   6.541   7.046
20013TIP3    H210508   7.566   6.526   6.917
20014TIP3   OH210509   7.739   6.589   5.613
20014TIP3    H110510   7.802   6.635   5.672
20014TIP3    H210511   7.655   6.601   5.662
20015TIP3   OH210512   7.794   6.059   6.918
20015TIP3    H110513   7.703   6.095   6.913
20015TIP3    H210514   7.780   5.973   6.961
20016TIP3   OH210515   7.757   7.239   6.758
20016TIP3    H110516   7.784   7.145   6.760
20016TIP3    H210517   7.783   7.268   6.846
20017TIP3   OH210518   7.880   6.770   5.771
20017TIP3    H110519   7.815   6.807   5.836
20017TIP3    H210520   7.935   6.848   5.756
20018TIP3   OH210521  -0.047   5.981   5.739
20018TIP3    H110522  -0.046   6.068   5.782
20018TIP3    H210523   0.044   5.956   5.763
20019TIP3   OH210524   7.942   7.024   5.666
20019TIP3    H110525   8.003   7.091   5.698
20019TIP3    H210526   7.998   6.985   5.598
20020TIP3   OH210527   7.779   6.298   5.588
20020TIP3    H110528   7.771   6.394   5.596
20020TIP3    H210529   7.694   6.274   5.550
20021TIP3   OH210530   7.855   5.774   6.452
20021TIP3    H110531   7.834   5.779   6.356
20021TIP3    H210532   7.813   5.690   6.481
20022TIP3   OH210533   7.749   7.166   6.068
20022TIP3    H110534   7.665   7.213   6.064
20022TIP3    H210535   7.801   7.213   6.002
20023TIP3   OH210536   7.678   7.430   7.193
20023TIP3    H110537   7.733   7.410   7.270
20023TIP3    H210538   7.629   7.347   7.179
20024TIP3   OH210539   7.664   6.807   7.298
20024TIP3    H110540   7.679   6.718   7.262
20024TIP3    H210541   7.590   6.840   7.242
20025TIP3   OH210542   8.089   6.833   5.497
20025TIP3    H110543   8.114   6.766   5.562
20025TIP3    H210544   8.165   6.836   5.437
20026TIP3   OH210545   7.764   6.534   7.239
20026TIP3    H110546   7.785   6.441   7.220
20026TIP3    H210547   7.725   6.529   7.327
20027TIP3   OH210548   8.022   6.300   7.276
20027TIP3    H110549   7.952   6.235   7.254
20027TIP3    H210550   8.092   6.262   7.217
20028TIP3   OH210551   7.849   6.085   7.240
20028TIP3    H110552   7.865   6.009   7.181
20028TIP3    H210553   7.835   6.041   7.327
20029TIP3   OH210554   7.671   7.000   5.618
20029TIP3    H110555   7.765   7.008   5.642
20029TIP3    H210556   7.666   6.938   5.545
20030TIP3   OH210557   7.543   7.534   6.111
20030TIP3    H110558   7.469   7.486   6.068
20030TIP3    H210559   7.570   7.469   6.180
20031TIP3   OH210560   7.625   7.348   6.300
20031TIP3    H110561   7.590   7.260   6.319
20031TIP3    H210562   7.648   7.381   6.388
20032TIP3   OH210563   7.626   6.652   6.549
20032TIP3    H110564   7.647   6.648   6.453
20032TIP3    H210565   7.714   6.639   6.587
20033TIP3   OH210566   7.594   6.184   7.163
20033TIP3    H110567   7.687   6.162   7.184
20033TIP3    H210568   7.546   6.103   7.193
20034TIP3   OH210569   7.711   6.014   6.451
20034TIP3    H110570   7.762   5.933   6.472
20034TIP3    H210571   7.767   6.083   6.490
20035TIP3   OH210572   7.540   6.315   6.552
20035TIP3    H110573   7.597   6.289   6.478
20035TIP3    H210574   7.585   6.395   6.581
20036TIP3   OH210575   7.576   5.939   5.960
20036TIP3    H110576   7.482   5.959   5.947
20036TIP3    H210577   7.619   5.990   5.889
20037TIP3   OH210578   7.572   5.806   6.791
20037TIP3    H110579   7.505   5.787   6.859
20037TIP3    H210580   7.526   5.874   6.737
20038TIP3   OH210581   7.791   7.122   7.207
20038TIP3    H110582   7.707   7.149   7.166
20038TIP3    H210583   7.764   7.124   7.300
20039TIP3   OH210584   8.088   7.229   6.840
20039TIP3    H110585   8.050   7.312   6.806
20039TIP3    H210586   8.179   7.236   6.805
20040TIP3   OH210587   7.827   7.546   6.835
20040TIP3    H110588   7.756   7.598   6.794
20040TIP3    H210589   7.793   7.530   6.924
20041TIP3   OH210590   8.056   7.484   6.721
20041TIP3    H110591   7.984   7.516   6.780
20041TIP3    H210592   8.071   7.564   6.666
20042TIP3   OH210593   7.768   7.415   6.530
20042TIP3    H110594   7.766   7.369   6.616
20042TIP3    H210595   7.851   7.380   6.491
20043TIP3   OH210596   7.980   7.288   6.397
20043TIP3    H110597   7.962   7.194   6.417
20043TIP3    H210598   8.065   7.299   6.442
20044TIP3   OH210599   7.821   5.762   6.181
20044TIP3    H110600   7.742   5.741   6.128
20044TIP3    H210601   7.869   5.678   6.178
20045TIP3   OH210602   7.694   5.738   5.747
20045TIP3    H110603   7.749   5.803   5.699
20045TIP3    H210604   7.642   5.794   5.807
20046TIP3   OH210605   7.694   7.335   5.848
20046TIP3    H110606   7.621   7.331   5.783
20046TIP3    H210607   7.686   7.428   5.874
20047TIP3   OH210608   7.879   5.928   5.608
20047TIP3    H110609   7.934   5.874   5.550
20047TIP3    H210610   7.951   5.966   5.664
20048TIP3   OH210611   7.812   5.817   7.125
20048TIP3    H110612   7.775   5.737   7.167
20048TIP3    H210613   7.902   5.813   7.163
20049TIP3   OH210614   8.015   5.750   7.281
20049TIP3    H110615   8.105   5.719   7.264
20049TIP3    H210616   7.972   5.677   7.331
20050TIP3   OH210617   7.882   7.446   5.554
20050TIP3    H110618   7.841   7.447   5.640
20050TIP3    H210619   7.948   7.374   5.560
20051TIP3   OH210620   1.781   7.886   6.639
20051TIP3    H110621   1.791   7.952   6.710
20051TIP3    H210622   1.825   7.936   6.568
20052TIP3   OH210623   0.544   7.985   6.318
20052TIP3    H110624   0.551   8.066   6.266
20052TIP3    H210625   0.502   7.927   6.250
20053TIP3   OH210626   1.313   7.993   6.152
20053TIP3    H110627   1.378   7.963   6.220
20053TIP3    H210628   1.375   8.048   6.102
20054TIP3   OH210629   1.823   8.030   6.861
20054TIP3    H110630   1.761   8.101   6.845
20054TIP3    H210631   1.828   8.024   6.958
20055TIP3   OH210632   0.431   7.872   6.721
20055TIP3    H110633   0.400   7.927   6.646
20055TIP3    H210634   0.363   7.896   6.788
20056TIP3   OH210635   1.494   7.922   6.351
20056TIP3    H110636   1.472   7.848   6.408
20056TIP3    H210637   1.557   7.972   6.405
20057TIP3   OH210638   0.393   8.047   6.531
20057TIP3    H110639   0.442   8.128   6.552
20057TIP3    H210640   0.440   8.017   6.450
20058TIP3   OH210641   1.530   7.798   6.723
20058TIP3    H110642   1.455   7.856   6.709
20058TIP3    H210643   1.600   7.838   6.668
20059TIP3   OH210644   0.826   7.607   6.467
20059TIP3    H110645   0.812   7.511   6.460
20059TIP3    H210646   0.739   7.639   6.497
20060TIP3   OH210647   1.659   7.599   5.767
20060TIP3    H110648   1.565   7.613   5.790
20060TIP3    H210649   1.681   7.683   5.724
20061TIP3   OH210650   0.565   7.698   6.542
20061TIP3    H110651   0.474   7.685   6.505
20061TIP3    H210652   0.551   7.781   6.590
20062TIP3   OH210653   1.028   7.665   6.881
20062TIP3    H110654   1.067   7.620   6.958
20062TIP3    H210655   0.930   7.650   6.892
20063TIP3   OH210656   1.357   8.048   6.967
20063TIP3    H110657   1.304   8.029   7.048
20063TIP3    H210658   1.332   8.138   6.945
20064TIP3   OH210659   0.994   7.919   5.614
20064TIP3    H110660   0.959   7.917   5.705
20064TIP3    H210661   0.965   7.833   5.583
20065TIP3   OH210662   0.676   7.955   5.516
20065TIP3    H110663   0.631   7.919   5.595
20065TIP3    H210664   0.604   8.000   5.470
20066TIP3   OH210665   0.073   7.942   6.185
20066TIP3    H110666   0.074   7.918   6.281
20066TIP3    H210667   0.076   7.856   6.141
20067TIP3   OH210668   0.141   8.004   5.782
20067TIP3    H110669   0.186   8.064   5.718
20067TIP3    H210670   0.073   8.070   5.803
20068TIP3   OH210671   0.825   7.961   6.253
20068TIP3    H110672   0.731   7.959   6.282
20068TIP3    H210673   0.876   7.945   6.335
20069TIP3   OH210674   0.306   8.064   6.132
20069TIP3    H110675   0.225   8.095   6.089
20069TIP3    H210676   0.341   7.994   6.074
20070TIP3   OH210677   0.672  -0.028   5.895
20070TIP3    H110678   0.763  -0.011   5.923
20070TIP3    H210679   0.651   0.047   5.838
20071TIP3   OH210680   1.267   7.877   6.580
20071TIP3    H110681   1.197   7.892   6.647
20071TIP3    H210682   1.216   7.862   6.499
20072TIP3   OH210683   0.454   7.849   6.084
20072TIP3    H110684   0.424   7.757   6.085
20072TIP3    H210685   0.535   7.845   6.032
20073TIP3   OH210686   0.820   8.064   6.679
20073TIP3    H110687   0.741   8.117   6.692
20073TIP3    H210688   0.872   8.098   6.754
20074TIP3   OH210689   1.259   7.976   5.683
20074TIP3    H110690   1.167   7.989   5.655
20074TIP3    H210691   1.294   8.064   5.697
20075TIP3   OH210692   0.249   7.945   6.922
20075TIP3    H110693   0.160   7.980   6.914
20075TIP3    H210694   0.235   7.857   6.960
20076TIP3   OH210695   1.123   7.927   6.805
20076TIP3    H110696   1.192   7.929   6.873
20076TIP3    H210697   1.083   7.839   6.826
20077TIP3   OH210698   1.197   7.882   5.922
20077TIP3    H110699   1.225   7.925   5.839
20077TIP3    H210700   1.257   7.923   5.987
20078TIP3   OH210701   0.925   8.058   6.001
20078TIP3    H110702   1.004   8.113   6.009
20078TIP3    H210703   0.896   8.043   6.093
20079TIP3   OH210704   0.957  -0.051   6.962
20079TIP3    H110705   0.969   0.040   6.996
20079TIP3    H210706   1.044  -0.074   6.925
20080TIP3   OH210707   1.010   7.763   6.095
20080TIP3    H110708   0.976   7.828   6.159
20080TIP3    H210709   1.076   7.817   6.045
20081TIP3   OH210710   0.577   7.873   5.760
20081TIP3    H110711   0.570   7.962   5.800
20081TIP3    H210712   0.665   7.844   5.790
20082TIP3   OH210713   1.597   7.943   7.006
20082TIP3    H110714   1.504   7.974   6.994
20082TIP3    H210715   1.626   7.942   6.914
20083TIP3   OH210716   0.317   7.660   6.451
20083TIP3    H110717   0.290   7.662   6.357
20083TIP3    H210718   0.267   7.581   6.479
20084TIP3   OH210719   0.604   8.036   7.072
20084TIP3    H110720   0.649   7.973   7.012
20084TIP3    H210721   0.631   8.120   7.034
20085TIP3   OH210722   0.680   7.890   6.831
20085TIP3    H110723   0.735   7.933   6.762
20085TIP3    H210724   0.591   7.880   6.788
20086TIP3   OH210725   0.760   7.635   6.873
20086TIP3    H110726   0.743   7.730   6.863
20086TIP3    H210727   0.687   7.598   6.821
20087TIP3   OH210728   0.903   8.022   7.246
20087TIP3    H110729   0.865   8.041   7.335
20087TIP3    H210730   0.821   8.032   7.196
20088TIP3   OH210731   1.164   7.975   7.135
20088TIP3    H110732   1.067   7.984   7.152
20088TIP3    H210733   1.188   7.920   7.210
20089TIP3   OH210734   1.329   7.838   7.343
20089TIP3    H110735   1.307   7.745   7.335
20089TIP3    H210736   1.289   7.870   7.426
20090TIP3   OH210737   0.305   7.971   7.248
20090TIP3    H110738   0.321   7.897   7.185
20090TIP3    H210739   0.289   7.921   7.330
20091TIP3   OH210740   0.784   7.571   7.140
20091TIP3    H110741   0.851   7.499   7.139
20091TIP3    H210742   0.771   7.586   7.045
20092TIP3   OH210743   0.820   7.734   7.351
20092TIP3    H110744   0.803   7.683   7.268
20092TIP3    H210745   0.758   7.809   7.341
20093TIP3   OH210746   1.592   7.933   5.495
20093TIP3    H110747   1.656   7.895   5.557
20093TIP3    H210748   1.507   7.893   5.512
20094TIP3   OH210749   1.561   8.081   6.005
20094TIP3    H110750   1.591   7.987   6.002
20094TIP3    H210751   1.628   8.126   5.952
20095TIP3   OH210752   1.653  -0.029   6.593
20095TIP3    H110753   1.704   0.028   6.533
20095TIP3    H210754   1.588   0.031   6.630
20096TIP3   OH210755   0.049   8.067   7.163
20096TIP3    H110756   0.142   8.047   7.179
20096TIP3    H210757   0.004   7.988   7.196
20097TIP3   OH210758   1.843   7.626   7.343
20097TIP3    H110759   1.886   7.556   7.290
20097TIP3    H210760   1.867   7.705   7.291
20098TIP3   OH210761   1.621   7.819   5.994
20098TIP3    H110762   1.641   7.774   6.079
20098TIP3    H210763   1.558   7.757   5.951
20099TIP3   OH210764   0.168   7.900   6.447
20099TIP3    H110765   0.215   7.819   6.476
20099TIP3    H210766   0.218   7.969   6.490
20100TIP3   OH210767   1.796   7.831   7.188
20100TIP3    H110768   1.707   7.864   7.170
20100TIP3    H210769   1.810   7.779   7.106
20101TIP3   OH210770   1.803   7.822   5.649
20101TIP3    H110771   1.847   7.755   5.596
20101TIP3    H210772   1.872   7.890   5.656
20102TIP3   OH210773   0.051   7.810   5.959
20102TIP3    H110774  -0.042   7.835   5.939
20102TIP3    H210775   0.097   7.876   5.903
20103TIP3   OH210776   8.178   7.710   6.808
20103TIP3    H110777   8.108   7.672   6.860
20103TIP3    H210778   8.126   7.761   6.744
20104TIP3   OH210779   1.703   7.643   6.969
20104TIP3    H110780   1.623   7.673   6.923
20104TIP3    H210781   1.724   7.563   6.914
20105TIP3   OH210782   1.040   7.788   6.392
20105TIP3    H110783   0.977   7.720   6.423
20105TIP3    H210784   1.099   7.735   6.337
20106TIP3   OH210785   1.557   7.591   6.402
20106TIP3    H110786   1.619   7.651   6.352
20106TIP3    H210787   1.469   7.630   6.379
20107TIP3   OH210788   1.724   7.710   6.229
20107TIP3    H110789   1.795   7.658   6.187
20107TIP3    H210790   1.771   7.795   6.242
20108TIP3   OH210791   0.281   7.645   6.179
20108TIP3    H110792   0.199   7.626   6.129
20108TIP3    H210793   0.329   7.560   6.174
20109TIP3   OH210794   0.156   7.624   5.751
20109TIP3    H110795   0.208   7.689   5.700
20109TIP3    H210796   0.103   7.679   5.811
20110TIP3   OH210797   0.729   7.644   6.160
20110TIP3    H110798   0.820   7.676   6.153
20110TIP3    H210799   0.725   7.618   6.252
20111TIP3   OH210800   1.298   7.644   6.322
20111TIP3    H110801   1.295   7.654   6.226
20111TIP3    H210802   1.261   7.553   6.334
20112TIP3   OH210803   1.427   7.650   5.887
20112TIP3    H110804   1.352   7.709   5.872
20112TIP3    H210805   1.385   7.564   5.911
20113TIP3   OH210806   0.341   7.818   5.604
20113TIP3    H110807   0.393   7.757   5.551
20113TIP3    H210808   0.409   7.850   5.666
20114TIP3   OH210809   0.844   7.844   5.844
20114TIP3    H110810   0.869   7.784   5.917
20114TIP3    H210811   0.848   7.930   5.892
20115TIP3   OH210812   0.265   7.702   7.126
20115TIP3    H110813   0.231   7.622   7.170
20115TIP3    H210814   0.358   7.698   7.159
20116TIP3   OH210815   0.469   7.639   7.285
20116TIP3    H110816   0.558   7.605   7.266
20116TIP3    H210817   0.431   7.562   7.331
20117TIP3   OH210818   3.667   7.886   6.639
20117TIP3    H110819   3.676   7.952   6.711
20117TIP3    H210820   3.710   7.937   6.570
20118TIP3   OH210821   2.430   7.985   6.318
20118TIP3    H110822   2.437   8.066   6.266
20118TIP3    H210823   2.387   7.927   6.251
20119TIP3   OH210824   3.200   7.992   6.152
20119TIP3    H110825   3.263   7.963   6.221
20119TIP3    H210826   3.260   8.049   6.102
20120TIP3   OH210827   3.708   8.030   6.863
20120TIP3    H110828   3.647   8.100   6.845
20120TIP3    H210829   3.712   8.024   6.960
20121TIP3   OH210830   2.318   7.871   6.720
20121TIP3    H110831   2.288   7.927   6.646
20121TIP3    H210832   2.251   7.896   6.788
20122TIP3   OH210833   3.386   7.920   6.349
20122TIP3    H110834   3.355   7.850   6.407
20122TIP3    H210835   3.439   7.974   6.410
20123TIP3   OH210836   2.281   8.048   6.530
20123TIP3    H110837   2.331   8.128   6.552
20123TIP3    H210838   2.328   8.017   6.449
20124TIP3   OH210839   3.416   7.798   6.723
20124TIP3    H110840   3.340   7.857   6.709
20124TIP3    H210841   3.487   7.838   6.668
20125TIP3   OH210842   2.712   7.607   6.467
20125TIP3    H110843   2.697   7.511   6.460
20125TIP3    H210844   2.624   7.639   6.497
20126TIP3   OH210845   3.560   7.608   5.795
20126TIP3    H110846   3.462   7.605   5.785
20126TIP3    H210847   3.565   7.674   5.723
20127TIP3   OH210848   2.449   7.697   6.542
20127TIP3    H110849   2.358   7.684   6.506
20127TIP3    H210850   2.436   7.781   6.589
20128TIP3   OH210851   2.913   7.665   6.879
20128TIP3    H110852   2.953   7.621   6.957
20128TIP3    H210853   2.816   7.650   6.892
20129TIP3   OH210854   3.243   8.049   6.965
20129TIP3    H110855   3.191   8.029   7.047
20129TIP3    H210856   3.217   8.138   6.945
20130TIP3   OH210857   2.873   7.923   5.613
20130TIP3    H110858   2.846   7.917   5.706
20130TIP3    H210859   2.855   7.832   5.584
20131TIP3   OH210860   2.562   7.956   5.519
20131TIP3    H110861   2.519   7.917   5.598
20131TIP3    H210862   2.494   7.990   5.467
20132TIP3   OH210863   1.887   7.932   6.234
20132TIP3    H110864   1.954   7.925   6.305
20132TIP3    H210865   1.933   7.895   6.156
20133TIP3   OH210866   2.009   7.990   5.769
20133TIP3    H110867   2.059   8.060   5.720
20133TIP3    H210868   1.945   8.055   5.804
20134TIP3   OH210869   2.711   7.961   6.253
20134TIP3    H110870   2.617   7.960   6.282
20134TIP3    H210871   2.761   7.946   6.335
20135TIP3   OH210872   2.180   8.056   6.137
20135TIP3    H110873   2.112   8.099   6.085
20135TIP3    H210874   2.230   7.999   6.075
20136TIP3   OH210875   2.557  -0.031   5.890
20136TIP3    H110876   2.647  -0.012   5.924
20136TIP3    H210877   2.537   0.049   5.841
20137TIP3   OH210878   3.153   7.877   6.579
20137TIP3    H110879   3.083   7.892   6.646
20137TIP3    H210880   3.101   7.862   6.499
20138TIP3   OH210881   2.344   7.849   6.087
20138TIP3    H110882   2.311   7.757   6.085
20138TIP3    H210883   2.421   7.845   6.031
20139TIP3   OH210884   2.706   8.064   6.679
20139TIP3    H110885   2.627   8.117   6.691
20139TIP3    H210886   2.757   8.098   6.754
20140TIP3   OH210887   3.143   7.978   5.686
20140TIP3    H110888   3.053   7.990   5.654
20140TIP3    H210889   3.180   8.065   5.696
20141TIP3   OH210890   2.136   7.945   6.919
20141TIP3    H110891   2.046   7.981   6.913
20141TIP3    H210892   2.122   7.860   6.963
20142TIP3   OH210893   3.009   7.926   6.806
20142TIP3    H110894   3.078   7.928   6.874
20142TIP3    H210895   2.970   7.839   6.828
20143TIP3   OH210896   3.078   7.886   5.924
20143TIP3    H110897   3.111   7.922   5.838
20143TIP3    H210898   3.142   7.923   5.987
20144TIP3   OH210899   2.810   8.058   6.001
20144TIP3    H110900   2.889   8.113   6.009
20144TIP3    H210901   2.782   8.044   6.094
20145TIP3   OH210902   2.843  -0.051   6.962
20145TIP3    H110903   2.855   0.040   6.997
20145TIP3    H210904   2.930  -0.074   6.926
20146TIP3   OH210905   2.896   7.762   6.095
20146TIP3    H110906   2.861   7.828   6.158
20146TIP3    H210907   2.962   7.817   6.045
20147TIP3   OH210908   2.463   7.874   5.757
20147TIP3    H110909   2.455   7.960   5.803
20147TIP3    H210910   2.550   7.843   5.791
20148TIP3   OH210911   3.483   7.945   7.005
20148TIP3    H110912   3.389   7.973   6.995
20148TIP3    H210913   3.512   7.942   6.913
20149TIP3   OH210914   2.198   7.661   6.454
20149TIP3    H110915   2.178   7.663   6.358
20149TIP3    H210916   2.156   7.577   6.479
20150TIP3   OH210917   2.489   8.035   7.072
20150TIP3    H110918   2.535   7.973   7.012
20150TIP3    H210919   2.516   8.120   7.034
20151TIP3   OH210920   2.565   7.890   6.832
20151TIP3    H110921   2.621   7.932   6.763
20151TIP3    H210922   2.477   7.880   6.789
20152TIP3   OH210923   2.646   7.634   6.873
20152TIP3    H110924   2.629   7.730   6.863
20152TIP3    H210925   2.572   7.598   6.822
20153TIP3   OH210926   2.789   8.022   7.245
20153TIP3    H110927   2.753   8.041   7.335
20153TIP3    H210928   2.706   8.032   7.198
20154TIP3   OH210929   3.049   7.974   7.133
20154TIP3    H110930   2.954   7.984   7.155
20154TIP3    H210931   3.077   7.921   7.210
20155TIP3   OH210932   3.203   7.841   7.333
20155TIP3    H110933   3.194   7.743   7.335
20155TIP3    H210934   3.179   7.872   7.423
20156TIP3   OH210935   2.186   7.973   7.242
20156TIP3    H110936   2.209   7.898   7.184
20156TIP3    H210937   2.175   7.924   7.325
20157TIP3   OH210938   2.669   7.570   7.140
20157TIP3    H110939   2.736   7.499   7.139
20157TIP3    H210940   2.657   7.587   7.045
20158TIP3   OH210941   2.703   7.732   7.352
20158TIP3    H110942   2.687   7.683   7.268
20158TIP3    H210943   2.644   7.810   7.344
20159TIP3   OH210944   3.476   7.939   5.499
20159TIP3    H110945   3.540   7.893   5.554
20159TIP3    H210946   3.395   7.887   5.510
20160TIP3   OH210947   3.453   8.080   6.010
20160TIP3    H110948   3.470   7.985   5.996
20160TIP3    H210949   3.509   8.129   5.947
20161TIP3   OH210950   3.538  -0.028   6.593
20161TIP3    H110951   3.590   0.029   6.535
20161TIP3    H210952   3.474   0.032   6.631
20162TIP3   OH210953   1.933   8.063   7.154
20162TIP3    H110954   2.027   8.050   7.180
20162TIP3    H210955   1.889   7.986   7.194
20163TIP3   OH210956   3.733   7.625   7.346
20163TIP3    H110957   3.771   7.557   7.289
20163TIP3    H210958   3.748   7.706   7.293
20164TIP3   OH210959   3.510   7.822   5.997
20164TIP3    H110960   3.521   7.770   6.079
20164TIP3    H210961   3.447   7.761   5.950
20165TIP3   OH210962   2.055   7.901   6.449
20165TIP3    H110963   2.101   7.818   6.475
20165TIP3    H210964   2.109   7.969   6.492
20166TIP3   OH210965   3.685   7.833   7.184
20166TIP3    H110966   3.592   7.862   7.176
20166TIP3    H210967   3.692   7.777   7.104
20167TIP3   OH210968   3.696   7.820   5.657
20167TIP3    H110969   3.726   7.754   5.593
20167TIP3    H210970   3.761   7.891   5.647
20168TIP3   OH210971   1.919   7.821   5.958
20168TIP3    H110972   1.826   7.843   5.947
20168TIP3    H210973   1.962   7.875   5.889
20169TIP3   OH210974   1.914   7.693   6.792
20169TIP3    H110975   1.846   7.674   6.859
20169TIP3    H210976   1.868   7.760   6.737
20170TIP3   OH210977   3.591   7.643   6.966
20170TIP3    H110978   3.508   7.673   6.924
20170TIP3    H210979   3.608   7.561   6.915
20171TIP3   OH210980   2.927   7.788   6.393
20171TIP3    H110981   2.863   7.721   6.423
20171TIP3    H210982   2.984   7.735   6.337
20172TIP3   OH210983   3.442   7.591   6.402
20172TIP3    H110984   3.504   7.650   6.353
20172TIP3    H210985   3.355   7.630   6.379
20173TIP3   OH210986   3.609   7.710   6.226
20173TIP3    H110987   3.679   7.654   6.188
20173TIP3    H210988   3.657   7.793   6.248
20174TIP3   OH210989   2.166   7.647   6.179
20174TIP3    H110990   2.086   7.627   6.128
20174TIP3    H210991   2.213   7.561   6.174
20175TIP3   OH210992   2.041   7.625   5.749
20175TIP3    H110993   2.091   7.691   5.699
20175TIP3    H210994   1.987   7.681   5.808
20176TIP3   OH210995   2.615   7.644   6.160
20176TIP3    H110996   2.706   7.676   6.152
20176TIP3    H210997   2.610   7.619   6.252
20177TIP3   OH210998   3.183   7.644   6.322
20177TIP3    H110999   3.181   7.654   6.226
20177TIP3    H211000   3.146   7.553   6.335
20178TIP3   OH211001   3.312   7.654   5.904
20178TIP3    H111002   3.241   7.706   5.864
20178TIP3    H211003   3.271   7.565   5.909
20179TIP3   OH211004   2.232   7.827   5.596
20179TIP3    H111005   2.277   7.753   5.555
20179TIP3    H211006   2.292   7.847   5.671
20180TIP3   OH211007   2.730   7.843   5.845
20180TIP3    H111008   2.755   7.785   5.917
20180TIP3    H211009   2.733   7.930   5.892
20181TIP3   OH211010   2.154   7.703   7.127
20181TIP3    H111011   2.119   7.623   7.168
20181TIP3    H211012   2.246   7.698   7.164
20182TIP3   OH211013   2.355   7.636   7.281
20182TIP3    H111014   2.446   7.604   7.269
20182TIP3    H211015   2.319   7.563   7.335
20183TIP3   OH211016   3.197   7.572   7.304
20183TIP3    H111017   3.207   7.521   7.386
20183TIP3    H211018   3.287   7.566   7.266
20184TIP3   OH211019   5.552   7.886   6.638
20184TIP3    H111020   5.562   7.952   6.710
20184TIP3    H211021   5.596   7.936   6.568
20185TIP3   OH211022   4.316   7.986   6.319
20185TIP3    H111023   4.323   8.066   6.266
20185TIP3    H211024   4.275   7.927   6.252
20186TIP3   OH211025   5.084   7.993   6.152
20186TIP3    H111026   5.149   7.963   6.220
20186TIP3    H211027   5.146   8.048   6.102
20187TIP3   OH211028   5.595   8.029   6.863
20187TIP3    H111029   5.533   8.100   6.845
20187TIP3    H211030   5.597   8.024   6.960
20188TIP3   OH211031   4.204   7.871   6.721
20188TIP3    H111032   4.175   7.928   6.647
20188TIP3    H211033   4.135   7.897   6.788
20189TIP3   OH211034   5.265   7.922   6.351
20189TIP3    H111035   5.243   7.848   6.408
20189TIP3    H211036   5.328   7.972   6.405
20190TIP3   OH211037   4.167   8.047   6.530
20190TIP3    H111038   4.216   8.128   6.552
20190TIP3    H211039   4.214   8.017   6.449
20191TIP3   OH211040   5.301   7.798   6.723
20191TIP3    H111041   5.226   7.857   6.709
20191TIP3    H211042   5.372   7.838   6.668
20192TIP3   OH211043   4.597   7.607   6.466
20192TIP3    H111044   4.583   7.511   6.460
20192TIP3    H211045   4.510   7.639   6.497
20193TIP3   OH211046   5.430   7.599   5.767
20193TIP3    H111047   5.336   7.613   5.790
20193TIP3    H211048   5.452   7.683   5.724
20194TIP3   OH211049   4.335   7.696   6.543
20194TIP3    H111050   4.244   7.684   6.507
20194TIP3    H211051   4.322   7.781   6.590
20195TIP3   OH211052   4.799   7.665   6.880
20195TIP3    H111053   4.838   7.621   6.957
20195TIP3    H211054   4.702   7.650   6.893
20196TIP3   OH211055   5.128   8.049   6.966
20196TIP3    H111056   5.076   8.029   7.048
20196TIP3    H211057   5.103   8.138   6.944
20197TIP3   OH211058   4.765   7.919   5.614
20197TIP3    H111059   4.730   7.917   5.705
20197TIP3    H211060   4.736   7.833   5.583
20198TIP3   OH211061   4.446   7.956   5.516
20198TIP3    H111062   4.402   7.920   5.595
20198TIP3    H211063   4.374   8.000   5.470
20199TIP3   OH211064   3.778   7.932   6.236
20199TIP3    H111065   3.838   7.927   6.315
20199TIP3    H211066   3.832   7.885   6.171
20200TIP3   OH211067   3.892   7.993   5.779
20200TIP3    H111068   3.946   8.052   5.720
20200TIP3    H211069   3.831   8.066   5.794
20201TIP3   OH211070   4.596   7.961   6.254
20201TIP3    H111071   4.503   7.960   6.282
20201TIP3    H211072   4.647   7.946   6.335
20202TIP3   OH211073   4.054   8.047   6.136
20202TIP3    H111074   4.005   8.110   6.083
20202TIP3    H211075   4.120   8.007   6.075
20203TIP3   OH211076   4.442  -0.029   5.894
20203TIP3    H111077   4.534  -0.011   5.923
20203TIP3    H211078   4.422   0.047   5.838
20204TIP3   OH211079   5.038   7.877   6.580
20204TIP3    H111080   4.968   7.892   6.647
20204TIP3    H211081   4.987   7.862   6.500
20205TIP3   OH211082   4.225   7.851   6.081
20205TIP3    H111083   4.203   7.757   6.091
20205TIP3    H211084   4.308   7.847   6.032
20206TIP3   OH211085   4.591   8.064   6.679
20206TIP3    H111086   4.513   8.117   6.692
20206TIP3    H211087   4.643   8.098   6.754
20207TIP3   OH211088   5.031   7.976   5.683
20207TIP3    H111089   4.939   7.989   5.655
20207TIP3    H211090   5.065   8.064   5.697
20208TIP3   OH211091   4.021   7.943   6.917
20208TIP3    H111092   3.932   7.981   6.913
20208TIP3    H211093   4.008   7.860   6.965
20209TIP3   OH211094   4.894   7.927   6.808
20209TIP3    H111095   4.965   7.928   6.874
20209TIP3    H211096   4.855   7.839   6.828
20210TIP3   OH211097   4.969   7.882   5.922
20210TIP3    H111098   4.996   7.925   5.839
20210TIP3    H211099   5.028   7.923   5.987
20211TIP3   OH211100   4.696   8.058   6.001
20211TIP3    H111101   4.775   8.113   6.009
20211TIP3    H211102   4.668   8.043   6.094
20212TIP3   OH211103   4.729  -0.051   6.963
20212TIP3    H111104   4.740   0.041   6.994
20212TIP3    H211105   4.816  -0.074   6.925
20213TIP3   OH211106   4.781   7.763   6.095
20213TIP3    H111107   4.747   7.828   6.159
20213TIP3    H211108   4.847   7.817   6.045
20214TIP3   OH211109   4.346   7.871   5.764
20214TIP3    H111110   4.341   7.961   5.800
20214TIP3    H211111   4.437   7.846   5.788
20215TIP3   OH211112   5.369   7.944   7.005
20215TIP3    H111113   5.275   7.972   6.996
20215TIP3    H211114   5.397   7.942   6.913
20216TIP3   OH211115   4.085   7.660   6.453
20216TIP3    H111116   4.064   7.662   6.358
20216TIP3    H211117   4.041   7.577   6.481
20217TIP3   OH211118   4.377   8.035   7.072
20217TIP3    H111119   4.421   7.973   7.012
20217TIP3    H211120   4.402   8.120   7.033
20218TIP3   OH211121   4.451   7.890   6.832
20218TIP3    H111122   4.507   7.932   6.763
20218TIP3    H211123   4.363   7.880   6.790
20219TIP3   OH211124   4.533   7.635   6.871
20219TIP3    H111125   4.514   7.731   6.862
20219TIP3    H211126   4.458   7.598   6.821
20220TIP3   OH211127   4.672   8.019   7.246
20220TIP3    H111128   4.642   8.043   7.335
20220TIP3    H211129   4.592   8.033   7.195
20221TIP3   OH211130   4.936   7.982   7.143
20221TIP3    H111131   4.839   7.981   7.154
20221TIP3    H211132   4.963   7.917   7.210
20222TIP3   OH211133   5.101   7.834   7.327
20222TIP3    H111134   5.079   7.739   7.332
20222TIP3    H211135   5.064   7.865   7.413
20223TIP3   OH211136   4.075   7.971   7.249
20223TIP3    H111137   4.093   7.901   7.182
20223TIP3    H211138   4.059   7.916   7.325
20224TIP3   OH211139   4.551   7.570   7.141
20224TIP3    H111140   4.620   7.500   7.142
20224TIP3    H211141   4.543   7.586   7.045
20225TIP3   OH211142   4.582   7.735   7.352
20225TIP3    H111143   4.577   7.682   7.268
20225TIP3    H211144   4.528   7.810   7.333
20226TIP3   OH211145   5.363   7.933   5.495
20226TIP3    H111146   5.427   7.895   5.557
20226TIP3    H211147   5.278   7.893   5.512
20227TIP3   OH211148   5.332   8.081   6.005
20227TIP3    H111149   5.362   7.987   6.002
20227TIP3    H211150   5.399   8.126   5.952
20228TIP3   OH211151   5.424  -0.029   6.593
20228TIP3    H111152   5.475   0.028   6.533
20228TIP3    H211153   5.360   0.032   6.630
20229TIP3   OH211154   3.818   8.065   7.158
20229TIP3    H111155   3.912   8.049   7.179
20229TIP3    H211156   3.774   7.985   7.194
20230TIP3   OH211157   5.621   7.623   7.344
20230TIP3    H111158   5.655   7.555   7.283
20230TIP3    H211159   5.633   7.705   7.293
20231TIP3   OH211160   5.392   7.819   5.994
20231TIP3    H111161   5.412   7.774   6.079
20231TIP3    H211162   5.329   7.757   5.951
20232TIP3   OH211163   3.942   7.901   6.448
20232TIP3    H111164   3.986   7.819   6.477
20232TIP3    H211165   3.994   7.969   6.494
20233TIP3   OH211166   5.573   7.833   7.184
20233TIP3    H111167   5.479   7.860   7.175
20233TIP3    H211168   5.578   7.777   7.105
20234TIP3   OH211169   5.575   7.822   5.649
20234TIP3    H111170   5.618   7.755   5.596
20234TIP3    H211171   5.644   7.890   5.655
20235TIP3   OH211172   3.814   7.799   5.942
20235TIP3    H111173   3.717   7.806   5.929
20235TIP3    H211174   3.854   7.863   5.878
20236TIP3   OH211175   3.800   7.694   6.792
20236TIP3    H111176   3.732   7.674   6.859
20236TIP3    H211177   3.754   7.761   6.737
20237TIP3   OH211178   5.476   7.643   6.964
20237TIP3    H111179   5.393   7.673   6.924
20237TIP3    H211180   5.493   7.560   6.914
20238TIP3   OH211181   4.812   7.787   6.392
20238TIP3    H111182   4.748   7.720   6.423
20238TIP3    H211183   4.870   7.734   6.337
20239TIP3   OH211184   5.328   7.592   6.402
20239TIP3    H111185   5.390   7.651   6.352
20239TIP3    H211186   5.241   7.630   6.379
20240TIP3   OH211187   5.495   7.710   6.229
20240TIP3    H111188   5.567   7.658   6.186
20240TIP3    H211189   5.542   7.795   6.242
20241TIP3   OH211190   4.056   7.647   6.167
20241TIP3    H111191   3.965   7.624   6.139
20241TIP3    H211192   4.098   7.561   6.187
20242TIP3   OH211193   3.943   7.627   5.761
20242TIP3    H111194   3.976   7.691   5.693
20242TIP3    H211195   3.867   7.677   5.799
20243TIP3   OH211196   4.498   7.645   6.160
20243TIP3    H111197   4.590   7.676   6.152
20243TIP3    H211198   4.497   7.619   6.252
20244TIP3   OH211199   5.069   7.644   6.322
20244TIP3    H111200   5.066   7.654   6.226
20244TIP3    H211201   5.032   7.553   6.334
20245TIP3   OH211202   5.198   7.650   5.888
20245TIP3    H111203   5.123   7.709   5.872
20245TIP3    H211204   5.156   7.564   5.911
20246TIP3   OH211205   4.110   7.812   5.609
20246TIP3    H111206   4.164   7.760   5.549
20246TIP3    H211207   4.181   7.851   5.665
20247TIP3   OH211208   4.616   7.844   5.844
20247TIP3    H111209   4.640   7.785   5.917
20247TIP3    H211210   4.619   7.930   5.893
20248TIP3   OH211211   4.038   7.706   7.132
20248TIP3    H111212   4.004   7.622   7.168
20248TIP3    H211213   4.132   7.698   7.159
20249TIP3   OH211214   4.243   7.640   7.291
20249TIP3    H111215   4.331   7.605   7.267
20249TIP3    H211216   4.205   7.560   7.332
20250TIP3   OH211217   5.083   7.567   7.303
20250TIP3    H111218   5.090   7.523   7.389
20250TIP3    H211219   5.174   7.567   7.269
20251TIP3   OH211220   7.436   7.887   6.637
20251TIP3    H111221   7.448   7.950   6.712
20251TIP3    H211222   7.484   7.936   6.570
20252TIP3   OH211223   6.201   7.985   6.318
20252TIP3    H111224   6.209   8.066   6.266
20252TIP3    H211225   6.159   7.927   6.251
20253TIP3   OH211226   6.969   8.001   6.157
20253TIP3    H111227   7.032   7.957   6.220
20253TIP3    H211228   7.031   8.042   6.095
20254TIP3   OH211229   7.479   8.029   6.862
20254TIP3    H111230   7.419   8.101   6.843
20254TIP3    H211231   7.483   8.024   6.959
20255TIP3   OH211232   6.089   7.871   6.721
20255TIP3    H111233   6.060   7.927   6.646
20255TIP3    H211234   6.021   7.896   6.788
20256TIP3   OH211235   7.157   7.928   6.348
20256TIP3    H111236   7.126   7.851   6.400
20256TIP3    H211237   7.213   7.967   6.416
20257TIP3   OH211238   6.052   8.047   6.530
20257TIP3    H111239   6.102   8.128   6.552
20257TIP3    H211240   6.100   8.017   6.449
20258TIP3   OH211241   7.186   7.798   6.724
20258TIP3    H111242   7.111   7.857   6.710
20258TIP3    H211243   7.257   7.838   6.670
20259TIP3   OH211244   6.483   7.607   6.467
20259TIP3    H111245   6.469   7.511   6.460
20259TIP3    H211246   6.395   7.639   6.497
20260TIP3   OH211247   7.317   7.598   5.766
20260TIP3    H111248   7.222   7.612   5.790
20260TIP3    H211249   7.336   7.683   5.723
20261TIP3   OH211250   6.220   7.697   6.542
20261TIP3    H111251   6.129   7.684   6.506
20261TIP3    H211252   6.207   7.781   6.589
20262TIP3   OH211253   6.685   7.665   6.879
20262TIP3    H111254   6.723   7.623   6.958
20262TIP3    H211255   6.587   7.651   6.892
20263TIP3   OH211256   7.014   8.049   6.965
20263TIP3    H111257   6.962   8.029   7.047
20263TIP3    H211258   6.988   8.138   6.945
20264TIP3   OH211259   6.651   7.920   5.615
20264TIP3    H111260   6.615   7.917   5.705
20264TIP3    H211261   6.621   7.834   5.583
20265TIP3   OH211262   6.331   7.955   5.516
20265TIP3    H111263   6.286   7.919   5.595
20265TIP3    H211264   6.260   8.000   5.470
20266TIP3   OH211265   5.658   7.932   6.234
20266TIP3    H111266   5.726   7.925   6.306
20266TIP3    H211267   5.704   7.896   6.156
20267TIP3   OH211268   5.780   7.990   5.770
20267TIP3    H111269   5.832   8.057   5.720
20267TIP3    H211270   5.717   8.057   5.803
20268TIP3   OH211271   6.483   7.962   6.254
20268TIP3    H111272   6.389   7.960   6.281
20268TIP3    H211273   6.532   7.944   6.336
20269TIP3   OH211274   5.952   8.056   6.137
20269TIP3    H111275   5.883   8.099   6.085
20269TIP3    H211276   6.001   7.999   6.075
20270TIP3   OH211277   6.327  -0.029   5.894
20270TIP3    H111278   6.419  -0.012   5.922
20270TIP3    H211279   6.307   0.046   5.838
20271TIP3   OH211280   6.924   7.879   6.578
20271TIP3    H111281   6.855   7.894   6.645
20271TIP3    H211282   6.871   7.860   6.500
20272TIP3   OH211283   6.115   7.849   6.087
20272TIP3    H111284   6.082   7.758   6.085
20272TIP3    H211285   6.192   7.845   6.030
20273TIP3   OH211286   6.477   8.064   6.679
20273TIP3    H111287   6.398   8.117   6.692
20273TIP3    H211288   6.529   8.098   6.754
20274TIP3   OH211289   6.916   7.975   5.683
20274TIP3    H111290   6.824   7.989   5.655
20274TIP3    H211291   6.951   8.064   5.695
20275TIP3   OH211292   5.907   7.944   6.919
20275TIP3    H111293   5.818   7.981   6.913
20275TIP3    H211294   5.893   7.860   6.964
20276TIP3   OH211295   6.779   7.925   6.808
20276TIP3    H111296   6.850   7.928   6.874
20276TIP3    H211297   6.741   7.838   6.828
20277TIP3   OH211298   6.853   7.885   5.924
20277TIP3    H111299   6.881   7.923   5.837
20277TIP3    H211300   6.915   7.922   5.986
20278TIP3   OH211301   6.581   8.059   6.001
20278TIP3    H111302   6.661   8.112   6.008
20278TIP3    H211303   6.552   8.042   6.093
20279TIP3   OH211304   6.614  -0.051   6.964
20279TIP3    H111305   6.626   0.041   6.995
20279TIP3    H211306   6.700  -0.074   6.925
20280TIP3   OH211307   6.667   7.762   6.095
20280TIP3    H111308   6.632   7.827   6.158
20280TIP3    H211309   6.733   7.816   6.044
20281TIP3   OH211310   6.233   7.873   5.760
20281TIP3    H111311   6.226   7.961   5.801
20281TIP3    H211312   6.322   7.844   5.789
20282TIP3   OH211313   7.253   7.943   7.003
20282TIP3    H111314   7.160   7.973   6.995
20282TIP3    H211315   7.283   7.943   6.912
20283TIP3   OH211316   5.970   7.661   6.454
20283TIP3    H111317   5.950   7.663   6.358
20283TIP3    H211318   5.927   7.577   6.479
20284TIP3   OH211319   6.262   8.036   7.070
20284TIP3    H111320   6.307   7.972   7.010
20284TIP3    H211321   6.288   8.121   7.033
20285TIP3   OH211322   6.337   7.889   6.831
20285TIP3    H111323   6.392   7.932   6.763
20285TIP3    H211324   6.248   7.880   6.788
20286TIP3   OH211325   6.418   7.635   6.873
20286TIP3    H111326   6.399   7.731   6.863
20286TIP3    H211327   6.344   7.598   6.821
20287TIP3   OH211328   6.560   8.022   7.247
20287TIP3    H111329   6.519   8.040   7.334
20287TIP3    H211330   6.479   8.031   7.196
20288TIP3   OH211331   6.821   7.976   7.134
20288TIP3    H111332   6.725   7.983   7.152
20288TIP3    H211333   6.847   7.922   7.210
20289TIP3   OH211334   6.974   7.846   7.339
20289TIP3    H111335   6.969   7.750   7.335
20289TIP3    H211336   6.948   7.869   7.427
20290TIP3   OH211337   5.957   7.973   7.247
20290TIP3    H111338   5.979   7.901   7.184
20290TIP3    H211339   5.948   7.920   7.327
20291TIP3   OH211340   6.442   7.569   7.140
20291TIP3    H111341   6.507   7.497   7.135
20291TIP3    H211342   6.427   7.588   7.045
20292TIP3   OH211343   6.473   7.732   7.351
20292TIP3    H111344   6.459   7.684   7.267
20292TIP3    H211345   6.416   7.811   7.342
20293TIP3   OH211346   7.247   7.935   5.495
20293TIP3    H111347   7.312   7.896   5.556
20293TIP3    H211348   7.163   7.893   5.511
20294TIP3   OH211349   7.223   8.079   6.005
20294TIP3    H111350   7.245   7.984   5.990
20294TIP3    H211351   7.283   8.122   5.940
20295TIP3   OH211352   7.310  -0.030   6.593
20295TIP3    H111353   7.364   0.029   6.540
20295TIP3    H211354   7.247   0.028   6.635
20296TIP3   OH211355   5.706   8.068   7.160
20296TIP3    H111356   5.799   8.048   7.179
20296TIP3    H211357   5.659   7.988   7.192
20297TIP3   OH211358   7.498   7.620   7.339
20297TIP3    H111359   7.547   7.556   7.286
20297TIP3    H211360   7.517   7.705   7.295
20298TIP3   OH211361   7.274   7.822   5.998
20298TIP3    H111362   7.299   7.769   6.077
20298TIP3    H211363   7.217   7.758   5.949
20299TIP3   OH211364   5.826   7.901   6.449
20299TIP3    H111365   5.872   7.818   6.475
20299TIP3    H211366   5.880   7.969   6.492
20300TIP3   OH211367   7.459   7.835   7.180
20300TIP3    H111368   7.365   7.861   7.178
20300TIP3    H211369   7.463   7.775   7.104
20301TIP3   OH211370   7.460   7.821   5.652
20301TIP3    H111371   7.500   7.756   5.594
20301TIP3    H211372   7.527   7.892   5.653
20302TIP3   OH211373   5.690   7.820   5.958
20302TIP3    H111374   5.597   7.843   5.947
20302TIP3    H211375   5.733   7.874   5.889
20303TIP3   OH211376   5.685   7.693   6.792
20303TIP3    H111377   5.617   7.674   6.859
20303TIP3    H211378   5.639   7.761   6.737
20304TIP3   OH211379   7.359   7.642   6.969
20304TIP3    H111380   7.280   7.674   6.923
20304TIP3    H211381   7.381   7.562   6.915
20305TIP3   OH211382   6.697   7.787   6.393
20305TIP3    H111383   6.633   7.720   6.423
20305TIP3    H211384   6.756   7.734   6.337
20306TIP3   OH211385   7.214   7.593   6.403
20306TIP3    H111386   7.276   7.650   6.352
20306TIP3    H211387   7.126   7.628   6.379
20307TIP3   OH211388   7.381   7.712   6.227
20307TIP3    H111389   7.452   7.656   6.187
20307TIP3    H211390   7.432   7.794   6.243
20308TIP3   OH211391   5.938   7.647   6.179
20308TIP3    H111392   5.857   7.627   6.127
20308TIP3    H211393   5.984   7.561   6.174
20309TIP3   OH211394   5.812   7.626   5.748
20309TIP3    H111395   5.864   7.692   5.699
20309TIP3    H211396   5.758   7.681   5.808
20310TIP3   OH211397   6.386   7.644   6.160
20310TIP3    H111398   6.477   7.676   6.153
20310TIP3    H211399   6.381   7.619   6.252
20311TIP3   OH211400   6.957   7.643   6.320
20311TIP3    H111401   6.950   7.652   6.225
20311TIP3    H211402   6.918   7.553   6.335
20312TIP3   OH211403   7.084   7.651   5.889
20312TIP3    H111404   7.008   7.708   5.871
20312TIP3    H211405   7.042   7.565   5.911
20313TIP3   OH211406   5.997   7.817   5.604
20313TIP3    H111407   6.050   7.757   5.552
20313TIP3    H211408   6.064   7.850   5.667
20314TIP3   OH211409   6.502   7.844   5.845
20314TIP3    H111410   6.526   7.785   5.917
20314TIP3    H211411   6.505   7.930   5.893
20315TIP3   OH211412   5.924   7.706   7.131
20315TIP3    H111413   5.889   7.622   7.166
20315TIP3    H211414   6.018   7.699   7.162
20316TIP3   OH211415   6.124   7.638   7.285
20316TIP3    H111416   6.214   7.606   7.265
20316TIP3    H211417   6.088   7.562   7.335
20317TIP3   OH211418   6.970   7.575   7.310
20317TIP3    H111419   6.980   7.536   7.398
20317TIP3    H211420   7.062   7.589   7.278
20318TIP3   OH211421   8.033   8.009   6.332
20318TIP3    H111422   8.096   8.066   6.285
20318TIP3    H211423   8.039   7.934   6.272
20319TIP3   OH211424   7.970   7.866   6.721
20319TIP3    H111425   7.945   7.929   6.649
20319TIP3    H211426   7.906   7.898   6.790
20320TIP3   OH211427   7.926   8.055   6.551
20320TIP3    H111428   7.988   8.129   6.561
20320TIP3    H211429   7.968   8.021   6.468
20321TIP3   OH211430   8.102   7.696   6.541
20321TIP3    H111431   8.012   7.686   6.502
20321TIP3    H211432   8.094   7.783   6.581
20322TIP3   OH211433   7.541   7.933   6.236
20322TIP3    H111434   7.610   7.923   6.305
20322TIP3    H211435   7.588   7.896   6.158
20323TIP3   OH211436   7.667   7.989   5.773
20323TIP3    H111437   7.716   8.057   5.720
20323TIP3    H211438   7.603   8.056   5.801
20324TIP3   OH211439   7.836   8.058   6.134
20324TIP3    H111440   7.767   8.101   6.082
20324TIP3    H211441   7.884   7.996   6.076
20325TIP3   OH211442   7.975   7.846   6.069
20325TIP3    H111443   7.959   7.753   6.095
20325TIP3    H211444   8.073   7.848   6.063
20326TIP3   OH211445   7.793   7.943   6.918
20326TIP3    H111446   7.705   7.982   6.913
20326TIP3    H211447   7.778   7.860   6.965
20327TIP3   OH211448  -0.057   7.860   5.745
20327TIP3    H111449  -0.047   7.950   5.780
20327TIP3    H211450   0.040   7.842   5.757
20328TIP3   OH211451   7.855   7.661   6.451
20328TIP3    H111452   7.834   7.665   6.356
20328TIP3    H211453   7.813   7.578   6.480
20329TIP3   OH211454   7.849   7.971   7.244
20329TIP3    H111455   7.864   7.897   7.183
20329TIP3    H211456   7.836   7.923   7.328
20330TIP3   OH211457   7.593   8.064   7.156
20330TIP3    H111458   7.685   8.047   7.182
20330TIP3    H211459   7.546   7.986   7.194
20331TIP3   OH211460   7.710   7.901   6.450
20331TIP3    H111461   7.760   7.819   6.471
20331TIP3    H211462   7.768   7.968   6.491
20332TIP3   OH211463   7.578   7.820   5.956
20332TIP3    H111464   7.483   7.841   5.947
20332TIP3    H211465   7.619   7.877   5.889
20333TIP3   OH211466   7.572   7.694   6.792
20333TIP3    H111467   7.504   7.674   6.859
20333TIP3    H211468   7.526   7.760   6.737
20334TIP3   OH211469   7.823   7.648   6.174
20334TIP3    H111470   7.740   7.625   6.130
20334TIP3    H211471   7.868   7.562   6.180
20335TIP3   OH211472   7.679   7.625   5.755
20335TIP3    H111473   7.708   7.690   5.690
20335TIP3    H211474   7.627   7.682   5.817
20336TIP3   OH211475   7.884   7.828   5.596
20336TIP3    H111476   7.938   7.775   5.534
20336TIP3    H211477   7.956   7.863   5.655
20337TIP3   OH211478   7.810   7.705   7.127
20337TIP3    H111479   7.776   7.623   7.167
20337TIP3    H211480   7.902   7.698   7.160
20338TIP3   OH211481   8.014   7.636   7.277
20338TIP3    H111482   8.104   7.604   7.264
20338TIP3    H211483   7.975   7.564   7.331
20339TIP3   OH211484   1.321   1.773   7.553
20339TIP3    H111485   1.352   1.693   7.507
20339TIP3    H211486   1.306   1.743   7.645
20340TIP3   OH211487   0.993   0.372   7.499
20340TIP3    H111488   0.959   0.374   7.589
20340TIP3    H211489   0.958   0.289   7.464
20341TIP3   OH211490   0.678   0.414   7.407
20341TIP3    H111491   0.629   0.376   7.484
20341TIP3    H211492   0.606   0.457   7.358
20342TIP3   OH211493   0.548   0.687   7.543
20342TIP3    H111494   0.485   0.658   7.475
20342TIP3    H211495   0.622   0.717   7.493
20343TIP3   OH211496   1.259   0.425   7.555
20343TIP3    H111497   1.166   0.447   7.541
20343TIP3    H211498   1.294   0.510   7.593
20344TIP3   OH211499   1.333   0.617   7.708
20344TIP3    H111500   1.418   0.605   7.756
20344TIP3    H211501   1.345   0.705   7.669
20345TIP3   OH211502   1.082   1.298   7.640
20345TIP3    H111503   1.055   1.380   7.684
20345TIP3    H211504   1.014   1.236   7.665
20346TIP3   OH211505   0.194   0.926   7.506
20346TIP3    H111506   0.260   0.976   7.560
20346TIP3    H211507   0.113   0.949   7.552
20347TIP3   OH211508   1.398   1.323   7.522
20347TIP3    H111509   1.427   1.277   7.604
20347TIP3    H211510   1.302   1.308   7.530
20348TIP3   OH211511   0.809   1.431   7.369
20348TIP3    H111512   0.820   1.354   7.312
20348TIP3    H211513   0.768   1.391   7.448
20349TIP3   OH211514   0.700   1.389   7.615
20349TIP3    H111515   0.706   1.333   7.695
20349TIP3    H211516   0.701   1.478   7.651
20350TIP3   OH211517   0.332   1.111   7.656
20350TIP3    H111518   0.274   1.145   7.726
20350TIP3    H211519   0.392   1.186   7.643
20351TIP3   OH211520   0.573   0.333   7.641
20351TIP3    H111521   0.564   0.418   7.688
20351TIP3    H211522   0.654   0.299   7.681
20352TIP3   OH211523   0.397   1.376   7.547
20352TIP3    H111524   0.465   1.434   7.581
20352TIP3    H211525   0.449   1.324   7.482
20353TIP3   OH211526   0.233   0.643   7.458
20353TIP3    H111527   0.230   0.735   7.490
20353TIP3    H211528   0.142   0.614   7.444
20354TIP3   OH211529   1.008   1.618   7.382
20354TIP3    H111530   0.941   1.553   7.409
20354TIP3    H211531   1.083   1.562   7.361
20355TIP3   OH211532   1.466   1.596   7.401
20355TIP3    H111533   1.495   1.520   7.453
20355TIP3    H211534   1.541   1.618   7.344
20356TIP3   OH211535   0.554   1.189   7.387
20356TIP3    H111536   0.565   1.112   7.444
20356TIP3    H211537   0.627   1.176   7.323
20357TIP3   OH211538   1.098   1.298   7.363
20357TIP3    H111539   1.073   1.310   7.456
20357TIP3    H211540   1.078   1.203   7.347
20358TIP3   OH211541   1.729   1.044   7.388
20358TIP3    H111542   1.691   1.005   7.309
20358TIP3    H211543   1.724   1.140   7.372
20359TIP3   OH211544   0.130   1.347   7.492
20359TIP3    H111545   0.221   1.347   7.527
20359TIP3    H211546   0.133   1.272   7.432
20360TIP3   OH211547   0.161   0.096   7.627
20360TIP3    H111548   0.208   0.164   7.582
20360TIP3    H211549   0.103   0.141   7.690
20361TIP3   OH211550   0.345   0.281   7.480
20361TIP3    H111551   0.395   0.211   7.435
20361TIP3    H211552   0.405   0.305   7.554
20362TIP3   OH211553   0.331   1.776   7.437
20362TIP3    H111554   0.311   1.800   7.525
20362TIP3    H211555   0.408   1.716   7.443
20363TIP3   OH211556   2.946   0.794   7.503
20363TIP3    H111557   3.013   0.793   7.571
20363TIP3    H211558   2.982   0.728   7.442
20364TIP3   OH211559   3.547   0.062   7.609
20364TIP3    H111560   3.474   0.059   7.677
20364TIP3    H211561   3.570   0.155   7.607
20365TIP3   OH211562   3.657   1.495   7.481
20365TIP3    H111563   3.671   1.589   7.506
20365TIP3    H211564   3.749   1.466   7.483
20366TIP3   OH211565   3.313   0.999   7.434
20366TIP3    H111566   3.319   0.962   7.343
20366TIP3    H211567   3.406   1.024   7.447
20367TIP3   OH211568   2.561   0.411   7.399
20367TIP3    H111569   2.526   0.379   7.483
20367TIP3    H211570   2.488   0.461   7.359
20368TIP3   OH211571   2.422   0.694   7.547
20368TIP3    H111572   2.372   0.657   7.473
20368TIP3    H211573   2.508   0.717   7.506
20369TIP3   OH211574   3.145   0.434   7.544
20369TIP3    H111575   3.050   0.444   7.552
20369TIP3    H211576   3.178   0.511   7.596
20370TIP3   OH211577   3.220   0.619   7.713
20370TIP3    H111578   3.304   0.611   7.759
20370TIP3    H211579   3.229   0.706   7.674
20371TIP3   OH211580   2.084   0.916   7.516
20371TIP3    H111581   2.142   0.979   7.558
20371TIP3    H211582   1.997   0.951   7.539
20372TIP3   OH211583   3.728   1.762   7.543
20372TIP3    H111584   3.803   1.822   7.531
20372TIP3    H211585   3.662   1.821   7.578
20373TIP3   OH211586   2.118   0.641   7.454
20373TIP3    H111587   2.115   0.732   7.489
20373TIP3    H211588   2.026   0.614   7.448
20374TIP3   OH211589   2.896   1.617   7.384
20374TIP3    H111590   2.826   1.554   7.413
20374TIP3    H211591   2.965   1.557   7.355
20375TIP3   OH211592   3.350   1.594   7.404
20375TIP3    H111593   3.385   1.519   7.453
20375TIP3    H211594   3.424   1.615   7.345
20376TIP3   OH211595   2.999   1.293   7.374
20376TIP3    H111596   2.940   1.310   7.448
20376TIP3    H211597   2.960   1.206   7.345
20377TIP3   OH211598   2.669   0.796   7.446
20377TIP3    H111599   2.651   0.803   7.351
20377TIP3    H211600   2.762   0.823   7.454
20378TIP3   OH211601   3.599   1.044   7.395
20378TIP3    H111602   3.584   1.005   7.307
20378TIP3    H211603   3.613   1.138   7.373
20379TIP3   OH211604   2.653   1.881   7.550
20379TIP3    H111605   2.749   1.889   7.566
20379TIP3    H211606   2.636   1.944   7.481
20380TIP3   OH211607   3.714   0.921   7.613
20380TIP3    H111608   3.668   0.961   7.537
20380TIP3    H211609   3.712   0.992   7.677
20381TIP3   OH211610   3.556   0.650   7.467
20381TIP3    H111611   3.565   0.716   7.398
20381TIP3    H211612   3.540   0.567   7.418
20382TIP3   OH211613   3.478   0.397   7.380
20382TIP3    H111614   3.543   0.350   7.437
20382TIP3    H211615   3.397   0.346   7.395
20383TIP3   OH211616   3.687   0.286   7.531
20383TIP3    H111617   3.729   0.209   7.486
20383TIP3    H211618   3.762   0.346   7.543
20384TIP3   OH211619   2.237   0.280   7.482
20384TIP3    H111620   2.284   0.211   7.432
20384TIP3    H211621   2.296   0.307   7.553
20385TIP3   OH211622   2.916   1.803   7.576
20385TIP3    H111623   3.001   1.835   7.553
20385TIP3    H211624   2.892   1.752   7.496
20386TIP3   OH211625   2.220   1.775   7.434
20386TIP3    H111626   2.190   1.801   7.523
20386TIP3    H211627   2.292   1.712   7.452
20387TIP3   OH211628   5.550   1.490   7.494
20387TIP3    H111629   5.544   1.586   7.490
20387TIP3    H211630   5.638   1.464   7.474
20388TIP3   OH211631   5.205   0.982   7.431
20388TIP3    H111632   5.205   0.967   7.336
20388TIP3    H211633   5.286   1.031   7.452
20389TIP3   OH211634   4.768   0.373   7.491
20389TIP3    H111635   4.735   0.383   7.583
20389TIP3    H211636   4.728   0.288   7.464
20390TIP3   OH211637   4.451   0.416   7.403
20390TIP3    H111638   4.406   0.376   7.481
20390TIP3    H211639   4.376   0.460   7.361
20391TIP3   OH211640   4.312   0.692   7.536
20391TIP3    H111641   4.258   0.654   7.466
20391TIP3    H211642   4.397   0.714   7.494
20392TIP3   OH211643   5.032   0.425   7.554
20392TIP3    H111644   4.936   0.448   7.549
20392TIP3    H211645   5.062   0.509   7.600
20393TIP3   OH211646   5.109   0.620   7.706
20393TIP3    H111647   5.188   0.606   7.760
20393TIP3    H211648   5.112   0.710   7.675
20394TIP3   OH211649   4.850   1.300   7.636
20394TIP3    H111650   4.820   1.376   7.686
20394TIP3    H211651   4.789   1.230   7.662
20395TIP3   OH211652   5.602   0.640   7.691
20395TIP3    H111653   5.538   0.599   7.629
20395TIP3    H211654   5.601   0.728   7.659
20396TIP3   OH211655   5.167   1.324   7.522
20396TIP3    H111656   5.201   1.272   7.598
20396TIP3    H211657   5.073   1.306   7.532
20397TIP3   OH211658   4.581   1.432   7.370
20397TIP3    H111659   4.591   1.354   7.313
20397TIP3    H211660   4.536   1.391   7.448
20398TIP3   OH211661   4.471   1.384   7.616
20398TIP3    H111662   4.477   1.334   7.697
20398TIP3    H211663   4.463   1.475   7.649
20399TIP3   OH211664   4.346   0.331   7.641
20399TIP3    H111665   4.333   0.416   7.686
20399TIP3    H211666   4.430   0.301   7.676
20400TIP3   OH211667   4.007   0.643   7.456
20400TIP3    H111668   4.001   0.732   7.492
20400TIP3    H211669   3.915   0.616   7.446
20401TIP3   OH211670   4.779   1.619   7.377
20401TIP3    H111671   4.712   1.553   7.405
20401TIP3    H211672   4.855   1.562   7.361
20402TIP3   OH211673   5.237   1.597   7.399
20402TIP3    H111674   5.262   1.520   7.452
20402TIP3    H211675   5.312   1.617   7.344
20403TIP3   OH211676   4.326   1.186   7.384
20403TIP3    H111677   4.339   1.112   7.446
20403TIP3    H211678   4.402   1.175   7.325
20404TIP3   OH211679   4.865   1.299   7.361
20404TIP3    H111680   4.843   1.307   7.456
20404TIP3    H211681   4.852   1.202   7.351
20405TIP3   OH211682   4.441   0.987   7.622
20405TIP3    H111683   4.399   0.928   7.683
20405TIP3    H211684   4.477   0.921   7.558
20406TIP3   OH211685   4.553   0.810   7.447
20406TIP3    H111686   4.537   0.800   7.351
20406TIP3    H211687   4.649   0.817   7.453
20407TIP3   OH211688   5.498   1.043   7.391
20407TIP3    H111689   5.469   1.005   7.306
20407TIP3    H211690   5.494   1.139   7.371
20408TIP3   OH211691   4.543   1.875   7.549
20408TIP3    H111692   4.636   1.893   7.563
20408TIP3    H211693   4.520   1.942   7.484
20409TIP3   OH211694   5.449   0.651   7.466
20409TIP3    H111695   5.447   0.715   7.394
20409TIP3    H211696   5.424   0.569   7.418
20410TIP3   OH211697   5.368   0.396   7.376
20410TIP3    H111698   5.429   0.351   7.438
20410TIP3    H211699   5.283   0.352   7.392
20411TIP3   OH211700   5.574   0.279   7.538
20411TIP3    H111701   5.613   0.207   7.483
20411TIP3    H211702   5.642   0.347   7.541
20412TIP3   OH211703   4.119   0.284   7.478
20412TIP3    H111704   4.167   0.214   7.434
20412TIP3    H211705   4.174   0.303   7.556
20413TIP3   OH211706   4.099   1.776   7.434
20413TIP3    H111707   4.079   1.798   7.525
20413TIP3    H211708   4.178   1.718   7.447
20414TIP3   OH211709   7.085   0.984   7.434
20414TIP3    H111710   7.089   0.966   7.338
20414TIP3    H211711   7.172   1.023   7.450
20415TIP3   OH211712   6.641   0.375   7.496
20415TIP3    H111713   6.621   0.373   7.589
20415TIP3    H211714   6.616   0.286   7.466
20416TIP3   OH211715   6.203   0.689   7.543
20416TIP3    H111716   6.144   0.662   7.471
20416TIP3    H211717   6.282   0.719   7.496
20417TIP3   OH211718   6.918   0.430   7.562
20417TIP3    H111719   6.824   0.447   7.545
20417TIP3    H211720   6.950   0.516   7.593
20418TIP3   OH211721   7.482   0.642   7.695
20418TIP3    H111722   7.420   0.605   7.629
20418TIP3    H211723   7.486   0.733   7.666
20419TIP3   OH211724   5.849   0.921   7.512
20419TIP3    H111725   5.916   0.976   7.556
20419TIP3    H211726   5.765   0.958   7.538
20420TIP3   OH211727   7.494   1.763   7.543
20420TIP3    H111728   7.572   1.818   7.530
20420TIP3    H211729   7.429   1.821   7.579
20421TIP3   OH211730   6.452   1.432   7.363
20421TIP3    H111731   6.487   1.355   7.316
20421TIP3    H211732   6.434   1.392   7.450
20422TIP3   OH211733   6.619   1.545   7.680
20422TIP3    H111734   6.542   1.603   7.695
20422TIP3    H211735   6.679   1.605   7.634
20423TIP3   OH211736   6.354   1.657   7.684
20423TIP3    H111737   6.373   1.740   7.634
20423TIP3    H211738   6.343   1.693   7.773
20424TIP3   OH211739   5.886   0.645   7.459
20424TIP3    H111740   5.885   0.739   7.484
20424TIP3    H211741   5.795   0.621   7.440
20425TIP3   OH211742   6.663   1.618   7.378
20425TIP3    H111743   6.599   1.554   7.415
20425TIP3    H211744   6.738   1.558   7.366
20426TIP3   OH211745   6.220   1.177   7.403
20426TIP3    H111746   6.227   1.095   7.455
20426TIP3    H211747   6.295   1.161   7.341
20427TIP3   OH211748   6.746   1.298   7.364
20427TIP3    H111749   6.730   1.309   7.458
20427TIP3    H211750   6.737   1.201   7.350
20428TIP3   OH211751   6.331   0.987   7.619
20428TIP3    H111752   6.283   0.939   7.689
20428TIP3    H211753   6.356   0.915   7.559
20429TIP3   OH211754   6.438   0.806   7.446
20429TIP3    H111755   6.422   0.800   7.350
20429TIP3    H211756   6.534   0.817   7.445
20430TIP3   OH211757   7.374   1.043   7.390
20430TIP3    H111758   7.353   1.005   7.304
20430TIP3    H211759   7.384   1.139   7.373
20431TIP3   OH211760   6.423   1.879   7.547
20431TIP3    H111761   6.519   1.890   7.564
20431TIP3    H211762   6.407   1.946   7.481
20432TIP3   OH211763   7.336   0.647   7.463
20432TIP3    H111764   7.333   0.717   7.396
20432TIP3    H211765   7.310   0.567   7.417
20433TIP3   OH211766   5.816   0.082   7.643
20433TIP3    H111767   5.857   0.143   7.582
20433TIP3    H211768   5.753   0.139   7.689
20434TIP3   OH211769   6.689   1.812   7.567
20434TIP3    H111770   6.781   1.833   7.554
20434TIP3    H211771   6.668   1.755   7.490
20435TIP3   OH211772   5.978   1.758   7.438
20435TIP3    H111773   5.963   1.807   7.521
20435TIP3    H211774   6.068   1.721   7.450
20436TIP3   OH211775   7.670   0.461   7.649
20436TIP3    H111776   7.724   0.524   7.599
20436TIP3    H211777   7.602   0.518   7.690
20437TIP3   OH211778   8.095   0.631   7.497
20437TIP3    H111779   8.016   0.657   7.447
20437TIP3    H211780   8.149   0.712   7.494
20438TIP3   OH211781   7.739   0.916   7.520
20438TIP3    H111782   7.799   0.982   7.558
20438TIP3    H211783   7.654   0.957   7.541
20439TIP3   OH211784  -0.032   0.330   7.626
20439TIP3    H111785  -0.042   0.413   7.677
20439TIP3    H211786   0.053   0.307   7.669
20440TIP3   OH211787   7.942   1.382   7.543
20440TIP3    H111788   8.009   1.432   7.588
20440TIP3    H211789   7.992   1.320   7.487
20441TIP3   OH211790   7.777   0.640   7.463
20441TIP3    H111791   7.773   0.735   7.485
20441TIP3    H211792   7.686   0.616   7.442
20442TIP3   OH211793   8.068   1.181   7.397
20442TIP3    H111794   8.095   1.112   7.458
20442TIP3    H211795   8.149   1.182   7.345
20443TIP3   OH211796   7.705   0.094   7.640
20443TIP3    H111797   7.750   0.159   7.584
20443TIP3    H211798   7.643   0.149   7.690
20444TIP3   OH211799   7.890   0.277   7.484
20444TIP3    H111800   7.942   0.212   7.435
20444TIP3    H211801   7.955   0.304   7.553
20445TIP3   OH211802   7.881   1.778   7.433
20445TIP3    H111803   7.846   1.800   7.521
20445TIP3    H211804   7.947   1.710   7.453
20446TIP3   OH211805   1.773   3.390   7.481
20446TIP3    H111806   1.789   3.481   7.508
20446TIP3    H211807   1.860   3.348   7.490
20447TIP3   OH211808   1.440   2.857   7.437
20447TIP3    H111809   1.430   2.861   7.340
20447TIP3    H211810   1.508   2.924   7.447
20448TIP3   OH211811   0.987   2.261   7.495
20448TIP3    H111812   0.961   2.256   7.587
20448TIP3    H211813   0.962   2.171   7.464
20449TIP3   OH211814   0.679   2.302   7.408
20449TIP3    H111815   0.633   2.261   7.482
20449TIP3    H211816   0.608   2.345   7.357
20450TIP3   OH211817   1.267   2.320   7.560
20450TIP3    H111818   1.171   2.326   7.543
20450TIP3    H211819   1.290   2.408   7.593
20451TIP3   OH211820   1.078   3.180   7.635
20451TIP3    H111821   1.060   3.264   7.681
20451TIP3    H211822   1.011   3.121   7.667
20452TIP3   OH211823   1.829   2.525   7.690
20452TIP3    H111824   1.762   2.495   7.628
20452TIP3    H211825   1.829   2.618   7.676
20453TIP3   OH211826   0.198   2.808   7.510
20453TIP3    H111827   0.260   2.863   7.561
20453TIP3    H211828   0.114   2.837   7.549
20454TIP3   OH211829   1.841   3.648   7.536
20454TIP3    H111830   1.919   3.705   7.536
20454TIP3    H211831   1.775   3.706   7.579
20455TIP3   OH211832   0.802   3.319   7.370
20455TIP3    H111833   0.823   3.242   7.313
20455TIP3    H211834   0.775   3.271   7.450
20456TIP3   OH211835   0.965   3.437   7.687
20456TIP3    H111836   0.885   3.490   7.691
20456TIP3    H211837   1.024   3.489   7.629
20457TIP3   OH211838   0.702   3.546   7.682
20457TIP3    H111839   0.719   3.625   7.631
20457TIP3    H211840   0.682   3.572   7.773
20458TIP3   OH211841   0.224   2.520   7.474
20458TIP3    H111842   0.233   2.618   7.485
20458TIP3    H211843   0.141   2.505   7.432
20459TIP3   OH211844   1.008   3.505   7.382
20459TIP3    H111845   0.943   3.437   7.409
20459TIP3    H211846   1.083   3.447   7.361
20460TIP3   OH211847   1.466   3.482   7.394
20460TIP3    H111848   1.491   3.409   7.453
20460TIP3    H211849   1.547   3.499   7.345
20461TIP3   OH211850   1.090   3.184   7.361
20461TIP3    H111851   1.080   3.190   7.458
20461TIP3    H211852   1.081   3.087   7.349
20462TIP3   OH211853   0.783   2.692   7.448
20462TIP3    H111854   0.761   2.686   7.354
20462TIP3    H211855   0.877   2.707   7.446
20463TIP3   OH211856   0.135   3.237   7.495
20463TIP3    H111857   0.225   3.234   7.528
20463TIP3    H211858   0.132   3.164   7.433
20464TIP3   OH211859   1.686   2.533   7.460
20464TIP3    H111860   1.667   2.605   7.397
20464TIP3    H211861   1.645   2.456   7.420
20465TIP3   OH211862   1.029   3.698   7.568
20465TIP3    H111863   1.122   3.717   7.552
20465TIP3    H211864   1.013   3.640   7.491
20466TIP3   OH211865   0.331   3.661   7.438
20466TIP3    H111866   0.305   3.686   7.527
20466TIP3    H211867   0.407   3.601   7.448
20467TIP3   OH211868   2.943   2.665   7.505
20467TIP3    H111869   3.016   2.687   7.567
20467TIP3    H211870   2.990   2.617   7.436
20468TIP3   OH211871   3.659   3.372   7.473
20468TIP3    H111872   3.662   3.464   7.498
20468TIP3    H211873   3.752   3.342   7.482
20469TIP3   OH211874   3.198   3.653   7.550
20469TIP3    H111875   3.243   3.578   7.506
20469TIP3    H211876   3.205   3.632   7.645
20470TIP3   OH211877   3.321   2.872   7.433
20470TIP3    H111878   3.318   2.854   7.336
20470TIP3    H211879   3.405   2.915   7.447
20471TIP3   OH211880   2.009   2.345   7.644
20471TIP3    H111881   2.069   2.408   7.601
20471TIP3    H211882   1.951   2.405   7.696
20472TIP3   OH211883   3.145   2.317   7.560
20472TIP3    H111884   3.052   2.336   7.552
20472TIP3    H211885   3.181   2.401   7.593
20473TIP3   OH211886   3.285   3.210   7.525
20473TIP3    H111887   3.312   3.165   7.606
20473TIP3    H211888   3.190   3.191   7.526
20474TIP3   OH211889   2.685   3.322   7.372
20474TIP3    H111890   2.710   3.247   7.314
20474TIP3    H211891   2.660   3.269   7.449
20475TIP3   OH211892   2.230   3.003   7.660
20475TIP3    H111893   2.167   3.033   7.728
20475TIP3    H211894   2.283   3.081   7.640
20476TIP3   OH211895   2.283   3.256   7.553
20476TIP3    H111896   2.343   3.326   7.582
20476TIP3    H211897   2.335   3.211   7.484
20477TIP3   OH211898   2.114   2.527   7.459
20477TIP3    H111899   2.119   2.619   7.488
20477TIP3    H211900   2.025   2.502   7.439
20478TIP3   OH211901   2.894   3.505   7.385
20478TIP3    H111902   2.827   3.437   7.404
20478TIP3    H211903   2.968   3.448   7.357
20479TIP3   OH211904   3.354   3.482   7.406
20479TIP3    H111905   3.380   3.400   7.450
20479TIP3    H211906   3.426   3.499   7.343
20480TIP3   OH211907   2.442   3.076   7.390
20480TIP3    H111908   2.456   2.997   7.446
20480TIP3    H211909   2.515   3.062   7.325
20481TIP3   OH211910   2.926   3.182   7.385
20481TIP3    H111911   2.956   3.184   7.475
20481TIP3    H211912   2.963   3.096   7.353
20482TIP3   OH211913   2.553   2.870   7.618
20482TIP3    H111914   2.515   2.822   7.693
20482TIP3    H211915   2.589   2.803   7.559
20483TIP3   OH211916   2.672   2.678   7.448
20483TIP3    H111917   2.649   2.692   7.354
20483TIP3    H211918   2.765   2.707   7.453
20484TIP3   OH211919   3.611   2.927   7.393
20484TIP3    H111920   3.578   2.891   7.309
20484TIP3    H211921   3.608   3.024   7.374
20485TIP3   OH211922   2.659   3.757   7.547
20485TIP3    H111923   2.749   3.788   7.560
20485TIP3    H211924   2.634   3.828   7.485
20486TIP3   OH211925   2.009   3.226   7.495
20486TIP3    H111926   2.104   3.234   7.521
20486TIP3    H211927   2.014   3.162   7.422
20487TIP3   OH211928   3.564   2.537   7.466
20487TIP3    H111929   3.564   2.602   7.395
20487TIP3    H211930   3.538   2.456   7.419
20488TIP3   OH211931   3.479   2.279   7.379
20488TIP3    H111932   3.541   2.240   7.443
20488TIP3    H211933   3.395   2.236   7.398
20489TIP3   OH211934   3.687   2.165   7.531
20489TIP3    H111935   3.731   2.093   7.482
20489TIP3    H211936   3.755   2.233   7.537
20490TIP3   OH211937   2.235   2.168   7.479
20490TIP3    H111938   2.282   2.096   7.435
20490TIP3    H211939   2.287   2.191   7.556
20491TIP3   OH211940   4.835   2.685   7.493
20491TIP3    H111941   4.895   2.685   7.572
20491TIP3    H211942   4.869   2.609   7.446
20492TIP3   OH211943   5.060   2.764   7.664
20492TIP3    H111944   5.118   2.783   7.740
20492TIP3    H211945   5.101   2.815   7.592
20493TIP3   OH211946   5.542   3.381   7.479
20493TIP3    H111947   5.557   3.473   7.509
20493TIP3    H211948   5.635   3.350   7.486
20494TIP3   OH211949   5.200   2.875   7.438
20494TIP3    H111950   5.208   2.848   7.344
20494TIP3    H211951   5.290   2.913   7.450
20495TIP3   OH211952   4.770   2.254   7.492
20495TIP3    H111953   4.732   2.265   7.580
20495TIP3    H211954   4.725   2.172   7.463
20496TIP3   OH211955   4.447   2.297   7.404
20496TIP3    H111956   4.404   2.263   7.485
20496TIP3    H211957   4.376   2.345   7.359
20497TIP3   OH211958   4.860   3.180   7.643
20497TIP3    H111959   4.832   3.268   7.673
20497TIP3    H211960   4.784   3.123   7.664
20498TIP3   OH211961   3.967   2.802   7.530
20498TIP3    H111962   4.028   2.873   7.554
20498TIP3    H211963   3.881   2.844   7.537
20499TIP3   OH211964   5.165   3.205   7.520
20499TIP3    H111965   5.200   3.168   7.602
20499TIP3    H211966   5.069   3.197   7.533
20500TIP3   OH211967   5.594   3.641   7.586
20500TIP3    H111968   5.668   3.683   7.538
20500TIP3    H211969   5.530   3.713   7.586
20501TIP3   OH211970   4.580   3.315   7.369
20501TIP3    H111971   4.590   3.238   7.312
20501TIP3    H211972   4.539   3.276   7.450
20502TIP3   OH211973   4.471   3.270   7.615
20502TIP3    H111974   4.479   3.224   7.699
20502TIP3    H211975   4.468   3.361   7.647
20503TIP3   OH211976   4.165   3.263   7.543
20503TIP3    H111977   4.231   3.318   7.588
20503TIP3    H211978   4.222   3.212   7.484
20504TIP3   OH211979   4.002   2.525   7.471
20504TIP3    H111980   4.002   2.622   7.485
20504TIP3    H211981   3.915   2.504   7.437
20505TIP3   OH211982   4.776   3.505   7.370
20505TIP3    H111983   4.715   3.441   7.412
20505TIP3    H211984   4.855   3.450   7.368
20506TIP3   OH211985   5.233   3.476   7.394
20506TIP3    H111986   5.267   3.407   7.454
20506TIP3    H211987   5.315   3.502   7.349
20507TIP3   OH211988   4.327   3.076   7.387
20507TIP3    H111989   4.339   2.996   7.439
20507TIP3    H211990   4.398   3.065   7.323
20508TIP3   OH211991   4.867   3.181   7.358
20508TIP3    H111992   4.846   3.198   7.451
20508TIP3    H211993   4.850   3.085   7.353
20509TIP3   OH211994   4.550   2.704   7.446
20509TIP3    H111995   4.537   2.681   7.353
20509TIP3    H211996   4.647   2.700   7.459
20510TIP3   OH211997   5.486   2.931   7.390
20510TIP3    H111998   5.468   2.891   7.304
20510TIP3    H211999   5.499   3.026   7.371
20511TIP3   OH212000   4.537   3.767   7.550
20511TIP3    H112001   4.632   3.772   7.563
20511TIP3    H212002   4.523   3.830   7.480
20512TIP3   OH212003   3.894   3.231   7.494
20512TIP3    H112004   3.989   3.235   7.523
20512TIP3    H212005   3.899   3.158   7.428
20513TIP3   OH212006   5.367   2.280   7.381
20513TIP3    H112007   5.430   2.237   7.443
20513TIP3    H212008   5.284   2.234   7.393
20514TIP3   OH212009   5.572   2.169   7.527
20514TIP3    H112010   5.615   2.093   7.483
20514TIP3    H212011   5.643   2.232   7.543
20515TIP3   OH212012   4.100   3.659   7.435
20515TIP3    H112013   4.078   3.685   7.525
20515TIP3    H212014   4.180   3.603   7.451
20516TIP3   OH212015   6.719   2.681   7.504
20516TIP3    H112016   6.789   2.684   7.571
20516TIP3    H212017   6.752   2.614   7.443
20517TIP3   OH212018   7.428   3.383   7.476
20517TIP3    H112019   7.442   3.473   7.509
20517TIP3    H212020   7.518   3.349   7.488
20518TIP3   OH212021   7.087   2.869   7.434
20518TIP3    H112022   7.093   2.855   7.338
20518TIP3    H212023   7.172   2.913   7.453
20519TIP3   OH212024   6.652   2.259   7.499
20519TIP3    H112025   6.618   2.255   7.588
20519TIP3    H212026   6.617   2.175   7.463
20520TIP3   OH212027   6.330   2.299   7.406
20520TIP3    H112028   6.285   2.258   7.481
20520TIP3    H212029   6.262   2.346   7.355
20521TIP3   OH212030   5.787   2.352   7.654
20521TIP3    H112031   5.830   2.413   7.595
20521TIP3    H212032   5.712   2.406   7.685
20522TIP3   OH212033   7.487   2.522   7.688
20522TIP3    H112034   7.423   2.495   7.622
20522TIP3    H212035   7.486   2.619   7.675
20523TIP3   OH212036   7.051   3.213   7.525
20523TIP3    H112037   7.090   3.164   7.598
20523TIP3    H212038   6.959   3.186   7.529
20524TIP3   OH212039   7.494   3.648   7.537
20524TIP3    H112040   7.570   3.706   7.532
20524TIP3    H212041   7.430   3.705   7.581
20525TIP3   OH212042   6.474   3.312   7.377
20525TIP3    H112043   6.474   3.243   7.309
20525TIP3    H212044   6.420   3.274   7.447
20526TIP3   OH212045   6.057   3.261   7.549
20526TIP3    H112046   6.122   3.324   7.583
20526TIP3    H212047   6.105   3.209   7.484
20527TIP3   OH212048   6.670   3.504   7.383
20527TIP3    H112049   6.596   3.442   7.406
20527TIP3    H212050   6.738   3.444   7.351
20528TIP3   OH212051   6.221   3.081   7.393
20528TIP3    H112052   6.218   2.996   7.441
20528TIP3    H212053   6.285   3.059   7.323
20529TIP3   OH212054   6.762   3.178   7.366
20529TIP3    H112055   6.724   3.193   7.450
20529TIP3    H212056   6.734   3.086   7.346
20530TIP3   OH212057   6.441   2.686   7.449
20530TIP3    H112058   6.419   2.687   7.354
20530TIP3    H212059   6.536   2.705   7.452
20531TIP3   OH212060   7.378   2.929   7.390
20531TIP3    H112061   7.353   2.893   7.304
20531TIP3    H212062   7.380   3.026   7.371
20532TIP3   OH212063   6.423   3.764   7.548
20532TIP3    H112064   6.517   3.775   7.569
20532TIP3    H212065   6.409   3.831   7.482
20533TIP3   OH212066   5.781   3.230   7.490
20533TIP3    H112067   5.873   3.233   7.525
20533TIP3    H212068   5.786   3.153   7.430
20534TIP3   OH212069   7.491   2.810   7.608
20534TIP3    H112070   7.434   2.849   7.537
20534TIP3    H212071   7.478   2.876   7.678
20535TIP3   OH212072   7.323   2.532   7.466
20535TIP3    H112073   7.338   2.602   7.400
20535TIP3    H212074   7.314   2.453   7.410
20536TIP3   OH212075   7.246   2.287   7.387
20536TIP3    H112076   7.312   2.237   7.435
20536TIP3    H212077   7.168   2.230   7.385
20537TIP3   OH212078   5.819   1.976   7.631
20537TIP3    H112079   5.864   2.046   7.582
20537TIP3    H212080   5.756   2.028   7.685
20538TIP3   OH212081   6.006   2.166   7.484
20538TIP3    H112082   6.052   2.097   7.434
20538TIP3    H212083   6.065   2.187   7.556
20539TIP3   OH212084   6.699   3.690   7.574
20539TIP3    H112085   6.781   3.726   7.545
20539TIP3    H212086   6.668   3.639   7.496
20540TIP3   OH212087   6.028   3.675   7.448
20540TIP3    H112088   5.960   3.672   7.519
20540TIP3    H212089   6.074   3.591   7.456
20541TIP3   OH212090   8.075   2.586   7.542
20541TIP3    H112091   8.029   2.541   7.470
20541TIP3    H212092   8.162   2.604   7.506
20542TIP3   OH212093  -0.057   2.217   7.644
20542TIP3    H112094  -0.055   2.308   7.678
20542TIP3    H212095   0.023   2.185   7.684
20543TIP3   OH212096   7.940   3.267   7.545
20543TIP3    H112097   8.009   3.320   7.586
20543TIP3    H212098   7.990   3.208   7.487
20544TIP3   OH212099   8.067   3.067   7.402
20544TIP3    H112100   8.102   2.997   7.457
20544TIP3    H212101   8.145   3.072   7.344
20545TIP3   OH212102   7.667   3.228   7.497
20545TIP3    H112103   7.761   3.237   7.523
20545TIP3    H212104   7.669   3.159   7.428
20546TIP3   OH212105   7.888   2.168   7.482
20546TIP3    H112106   7.937   2.100   7.433
20546TIP3    H212107   7.950   2.191   7.555
20547TIP3   OH212108   7.897   3.677   7.431
20547TIP3    H112109   7.843   3.684   7.512
20547TIP3    H212110   7.944   3.594   7.447
20548TIP3   OH212111   1.059   4.557   7.504
20548TIP3    H112112   1.123   4.549   7.579
20548TIP3    H212113   1.090   4.486   7.446
20549TIP3   OH212114   1.279   4.663   7.660
20549TIP3    H112115   1.336   4.667   7.742
20549TIP3    H212116   1.342   4.704   7.600
20550TIP3   OH212117   1.656   3.829   7.650
20550TIP3    H112118   1.566   3.843   7.677
20550TIP3    H212119   1.683   3.911   7.605
20551TIP3   OH212120   1.771   5.266   7.477
20551TIP3    H112121   1.785   5.358   7.505
20551TIP3    H212122   1.861   5.232   7.488
20552TIP3   OH212123   1.318   5.546   7.557
20552TIP3    H112124   1.352   5.470   7.505
20552TIP3    H212125   1.315   5.508   7.644
20553TIP3   OH212126   0.994   4.143   7.492
20553TIP3    H112127   0.965   4.150   7.585
20553TIP3    H212128   0.960   4.058   7.464
20554TIP3   OH212129   0.673   4.179   7.403
20554TIP3    H112130   0.633   4.155   7.487
20554TIP3    H212131   0.606   4.232   7.358
20555TIP3   OH212132   0.539   4.474   7.545
20555TIP3    H112133   0.485   4.427   7.480
20555TIP3    H212134   0.621   4.481   7.499
20556TIP3   OH212135   1.842   5.533   7.540
20556TIP3    H112136   1.917   5.595   7.534
20556TIP3    H212137   1.775   5.590   7.577
20557TIP3   OH212138   0.806   5.201   7.371
20557TIP3    H112139   0.821   5.127   7.311
20557TIP3    H212140   0.767   5.164   7.450
20558TIP3   OH212141   0.342   4.883   7.663
20558TIP3    H112142   0.274   4.915   7.721
20558TIP3    H212143   0.389   4.963   7.640
20559TIP3   OH212144   0.713   5.428   7.688
20559TIP3    H112145   0.714   5.510   7.633
20559TIP3    H212146   0.681   5.464   7.771
20560TIP3   OH212147   0.234   4.419   7.448
20560TIP3    H112148   0.229   4.502   7.498
20560TIP3    H212149   0.144   4.386   7.446
20561TIP3   OH212150   1.009   5.389   7.383
20561TIP3    H112151   0.940   5.325   7.410
20561TIP3    H212152   1.082   5.332   7.357
20562TIP3   OH212153   1.463   5.364   7.402
20562TIP3    H112154   1.502   5.288   7.448
20562TIP3    H212155   1.540   5.388   7.348
20563TIP3   OH212156   0.546   4.951   7.370
20563TIP3    H112157   0.555   4.883   7.438
20563TIP3    H212158   0.632   4.947   7.324
20564TIP3   OH212159   1.104   5.066   7.368
20564TIP3    H112160   1.065   5.085   7.453
20564TIP3    H212161   1.075   4.976   7.344
20565TIP3   OH212162   1.712   4.818   7.391
20565TIP3    H112163   1.697   4.777   7.304
20565TIP3    H212164   1.728   4.911   7.372
20566TIP3   OH212165   0.770   5.648   7.548
20566TIP3    H112166   0.863   5.669   7.564
20566TIP3    H212167   0.750   5.716   7.483
20567TIP3   OH212168   1.820   4.690   7.613
20567TIP3    H112169   1.781   4.737   7.538
20567TIP3    H212170   1.836   4.762   7.677
20568TIP3   OH212171   1.800   4.049   7.532
20568TIP3    H112172   1.846   3.978   7.484
20568TIP3    H212173   1.869   4.116   7.540
20569TIP3   OH212174   0.184   3.865   7.651
20569TIP3    H112175   0.211   3.929   7.584
20569TIP3    H212176   0.109   3.912   7.696
20570TIP3   OH212177   0.344   4.041   7.493
20570TIP3    H112178   0.395   3.988   7.430
20570TIP3    H212179   0.407   4.084   7.552
20571TIP3   OH212180   2.943   4.564   7.503
20571TIP3    H112181   3.014   4.575   7.570
20571TIP3    H212182   2.984   4.501   7.444
20572TIP3   OH212183   3.170   4.651   7.664
20572TIP3    H112184   3.231   4.668   7.737
20572TIP3    H212185   3.215   4.699   7.592
20573TIP3   OH212186   3.195   5.538   7.551
20573TIP3    H112187   3.243   5.466   7.505
20573TIP3    H212188   3.205   5.510   7.643
20574TIP3   OH212189   3.319   4.760   7.435
20574TIP3    H112190   3.320   4.736   7.339
20574TIP3    H212191   3.407   4.797   7.449
20575TIP3   OH212192   2.561   4.185   7.401
20575TIP3    H112193   2.523   4.153   7.485
20575TIP3    H212194   2.487   4.230   7.359
20576TIP3   OH212195   2.430   4.460   7.547
20576TIP3    H112196   2.375   4.429   7.476
20576TIP3    H212197   2.510   4.491   7.502
20577TIP3   OH212198   3.147   4.203   7.566
20577TIP3    H112199   3.053   4.217   7.547
20577TIP3    H212200   3.182   4.291   7.586
20578TIP3   OH212201   3.285   5.099   7.523
20578TIP3    H112202   3.313   5.049   7.601
20578TIP3    H212203   3.191   5.073   7.529
20579TIP3   OH212204   2.697   5.203   7.372
20579TIP3    H112205   2.704   5.127   7.312
20579TIP3    H212206   2.654   5.160   7.448
20580TIP3   OH212207   2.578   5.158   7.615
20580TIP3    H112208   2.593   5.103   7.693
20580TIP3    H212209   2.589   5.246   7.652
20581TIP3   OH212210   2.893   5.391   7.382
20581TIP3    H112211   2.826   5.324   7.408
20581TIP3    H212212   2.968   5.334   7.358
20582TIP3   OH212213   3.351   5.365   7.403
20582TIP3    H112214   3.380   5.287   7.451
20582TIP3    H212215   3.426   5.390   7.346
20583TIP3   OH212216   2.446   4.963   7.387
20583TIP3    H112217   2.454   4.884   7.443
20583TIP3    H212218   2.517   4.947   7.323
20584TIP3   OH212219   2.665   4.579   7.445
20584TIP3    H112220   2.652   4.574   7.349
20584TIP3    H212221   2.762   4.589   7.455
20585TIP3   OH212222   3.605   4.814   7.393
20585TIP3    H112223   3.582   4.774   7.307
20585TIP3    H212224   3.611   4.909   7.371
20586TIP3   OH212225   2.650   5.650   7.549
20586TIP3    H112226   2.746   5.658   7.563
20586TIP3    H212227   2.638   5.715   7.479
20587TIP3   OH212228   2.015   5.123   7.489
20587TIP3    H112229   2.104   5.112   7.525
20587TIP3    H212230   2.011   5.043   7.431
20588TIP3   OH212231   3.562   4.420   7.463
20588TIP3    H112232   3.563   4.488   7.396
20588TIP3    H212233   3.540   4.338   7.416
20589TIP3   OH212234   3.481   4.163   7.377
20589TIP3    H112235   3.541   4.124   7.444
20589TIP3    H212236   3.396   4.123   7.397
20590TIP3   OH212237   3.688   4.052   7.536
20590TIP3    H112238   3.726   3.981   7.482
20590TIP3    H212239   3.756   4.120   7.541
20591TIP3   OH212240   2.235   4.057   7.479
20591TIP3    H112241   2.280   3.982   7.439
20591TIP3    H212242   2.291   4.073   7.557
20592TIP3   OH212243   2.916   5.577   7.571
20592TIP3    H112244   3.009   5.599   7.550
20592TIP3    H212245   2.897   5.521   7.493
20593TIP3   OH212246   4.834   4.569   7.496
20593TIP3    H112247   4.895   4.565   7.572
20593TIP3    H212248   4.869   4.495   7.445
20594TIP3   OH212249   5.427   3.836   7.651
20594TIP3    H112250   5.336   3.839   7.676
20594TIP3    H212251   5.450   3.917   7.605
20595TIP3   OH212252   5.539   5.268   7.479
20595TIP3    H112253   5.562   5.359   7.506
20595TIP3    H212254   5.631   5.233   7.485
20596TIP3   OH212255   5.202   4.761   7.431
20596TIP3    H112256   5.205   4.734   7.337
20596TIP3    H212257   5.290   4.796   7.447
20597TIP3   OH212258   4.767   4.142   7.497
20597TIP3    H112259   4.729   4.147   7.587
20597TIP3    H212260   4.728   4.059   7.465
20598TIP3   OH212261   3.894   4.232   7.649
20598TIP3    H112262   3.950   4.293   7.597
20598TIP3    H212263   3.826   4.289   7.687
20599TIP3   OH212264   4.305   4.468   7.540
20599TIP3    H112265   4.260   4.424   7.469
20599TIP3    H212266   4.395   4.487   7.509
20600TIP3   OH212267   5.604   4.405   7.688
20600TIP3    H112268   5.534   4.378   7.626
20600TIP3    H212269   5.602   4.501   7.673
20601TIP3   OH212270   3.968   4.685   7.526
20601TIP3    H112271   4.031   4.756   7.554
20601TIP3    H212272   3.882   4.727   7.534
20602TIP3   OH212273   5.614   5.533   7.546
20602TIP3    H112274   5.687   5.593   7.526
20602TIP3    H212275   5.546   5.593   7.579
20603TIP3   OH212276   4.578   5.202   7.373
20603TIP3    H112277   4.592   5.128   7.312
20603TIP3    H212278   4.542   5.157   7.450
20604TIP3   OH212279   4.105   4.881   7.663
20604TIP3    H112280   4.043   4.922   7.722
20604TIP3    H212281   4.162   4.956   7.638
20605TIP3   OH212282   4.163   5.145   7.550
20605TIP3    H112283   4.231   5.208   7.582
20605TIP3    H212284   4.216   5.100   7.482
20606TIP3   OH212285   4.002   4.410   7.466
20606TIP3    H112286   4.006   4.506   7.483
20606TIP3    H212287   3.911   4.394   7.439
20607TIP3   OH212288   4.786   5.391   7.387
20607TIP3    H112289   4.711   5.328   7.407
20607TIP3    H212290   4.850   5.328   7.355
20608TIP3   OH212291   4.326   4.958   7.387
20608TIP3    H112292   4.339   4.882   7.446
20608TIP3    H212293   4.401   4.947   7.325
20609TIP3   OH212294   4.876   5.069   7.369
20609TIP3    H112295   4.834   5.079   7.454
20609TIP3    H212296   4.849   4.976   7.348
20610TIP3   OH212297   4.552   4.579   7.445
20610TIP3    H112298   4.543   4.570   7.350
20610TIP3    H212299   4.649   4.588   7.461
20611TIP3   OH212300   5.491   4.816   7.388
20611TIP3    H112301   5.467   4.777   7.302
20611TIP3    H212302   5.498   4.912   7.369
20612TIP3   OH212303   3.891   5.108   7.502
20612TIP3    H112304   3.987   5.123   7.519
20612TIP3    H212305   3.899   5.045   7.426
20613TIP3   OH212306   5.608   4.695   7.608
20613TIP3    H112307   5.549   4.735   7.542
20613TIP3    H212308   5.602   4.759   7.681
20614TIP3   OH212309   5.444   4.421   7.464
20614TIP3    H112310   5.450   4.488   7.395
20614TIP3    H212311   5.423   4.340   7.414
20615TIP3   OH212312   5.366   4.166   7.380
20615TIP3    H112313   5.428   4.121   7.440
20615TIP3    H212314   5.282   4.121   7.393
20616TIP3   OH212315   5.570   4.053   7.535
20616TIP3    H112316   5.607   3.981   7.479
20616TIP3    H212317   5.638   4.122   7.536
20617TIP3   OH212318   3.932   3.857   7.641
20617TIP3    H112319   3.981   3.918   7.585
20617TIP3    H212320   3.872   3.915   7.689
20618TIP3   OH212321   4.104   5.542   7.437
20618TIP3    H112322   4.077   5.572   7.525
20618TIP3    H212323   4.182   5.488   7.451
20619TIP3   OH212324   6.712   4.559   7.505
20619TIP3    H112325   6.785   4.573   7.568
20619TIP3    H212326   6.759   4.505   7.439
20620TIP3   OH212327   7.173   4.924   7.846
20620TIP3    H112328   7.133   4.851   7.902
20620TIP3    H212329   7.135   4.885   7.771
20621TIP3   OH212330   7.308   3.827   7.639
20621TIP3    H112331   7.225   3.846   7.684
20621TIP3    H212332   7.338   3.914   7.607
20622TIP3   OH212333   7.427   5.269   7.473
20622TIP3    H112334   7.445   5.360   7.505
20622TIP3    H212335   7.518   5.236   7.486
20623TIP3   OH212336   6.964   5.533   7.545
20623TIP3    H112337   7.017   5.464   7.502
20623TIP3    H212338   6.971   5.514   7.641
20624TIP3   OH212339   7.086   4.768   7.435
20624TIP3    H112340   7.091   4.730   7.344
20624TIP3    H212341   7.179   4.792   7.447
20625TIP3   OH212342   6.335   4.192   7.406
20625TIP3    H112343   6.289   4.145   7.478
20625TIP3    H212344   6.261   4.229   7.354
20626TIP3   OH212345   7.055   5.091   7.536
20626TIP3    H112346   7.093   5.043   7.610
20626TIP3    H212347   6.961   5.066   7.547
20627TIP3   OH212348   7.495   5.531   7.542
20627TIP3    H112349   7.570   5.591   7.530
20627TIP3    H212350   7.429   5.594   7.577
20628TIP3   OH212351   6.477   5.198   7.377
20628TIP3    H112352   6.472   5.128   7.309
20628TIP3    H212353   6.418   5.160   7.442
20629TIP3   OH212354   6.233   4.103   7.644
20629TIP3    H112355   6.224   4.188   7.688
20629TIP3    H212356   6.318   4.070   7.676
20630TIP3   OH212357   5.889   4.408   7.451
20630TIP3    H112358   5.886   4.498   7.486
20630TIP3    H212359   5.796   4.387   7.440
20631TIP3   OH212360   6.667   5.389   7.389
20631TIP3    H112361   6.595   5.325   7.408
20631TIP3    H212362   6.737   5.335   7.355
20632TIP3   OH212363   7.116   5.355   7.398
20632TIP3    H112364   7.162   5.291   7.453
20632TIP3    H212365   7.193   5.391   7.347
20633TIP3   OH212366   6.225   4.955   7.374
20633TIP3    H112367   6.228   4.880   7.433
20633TIP3    H212368   6.300   4.939   7.314
20634TIP3   OH212369   6.742   5.062   7.369
20634TIP3    H112370   6.709   5.069   7.457
20634TIP3    H212371   6.725   4.966   7.346
20635TIP3   OH212372   6.437   4.573   7.448
20635TIP3    H112373   6.419   4.571   7.352
20635TIP3    H212374   6.533   4.593   7.448
20636TIP3   OH212375   7.368   4.817   7.391
20636TIP3    H112376   7.355   4.775   7.305
20636TIP3    H212377   7.386   4.911   7.369
20637TIP3   OH212378   6.422   5.653   7.553
20637TIP3    H112379   6.517   5.660   7.564
20637TIP3    H212380   6.409   5.714   7.480
20638TIP3   OH212381   5.783   5.118   7.489
20638TIP3    H112382   5.873   5.119   7.525
20638TIP3    H212383   5.785   5.043   7.428
20639TIP3   OH212384   7.499   4.706   7.611
20639TIP3    H112385   7.437   4.730   7.538
20639TIP3    H212386   7.479   4.768   7.681
20640TIP3   OH212387   7.333   4.421   7.461
20640TIP3    H112388   7.337   4.488   7.393
20640TIP3    H212389   7.310   4.339   7.417
20641TIP3   OH212390   7.253   4.165   7.375
20641TIP3    H112391   7.314   4.127   7.442
20641TIP3    H212392   7.168   4.123   7.396
20642TIP3   OH212393   7.453   4.039   7.514
20642TIP3    H112394   7.505   3.969   7.472
20642TIP3    H212395   7.516   4.112   7.531
20643TIP3   OH212396   5.991   5.551   7.434
20643TIP3    H112397   5.958   5.564   7.523
20643TIP3    H212398   6.062   5.484   7.448
20644TIP3   OH212399   8.065   4.465   7.529
20644TIP3    H112400   8.024   4.423   7.454
20644TIP3    H212401   8.157   4.487   7.507
20645TIP3   OH212402   7.746   4.689   7.516
20645TIP3    H112403   7.801   4.759   7.556
20645TIP3    H212404   7.655   4.719   7.538
20646TIP3   OH212405   7.864   4.895   7.631
20646TIP3    H112406   7.800   4.928   7.697
20646TIP3    H212407   7.924   4.971   7.623
20647TIP3   OH212408  -0.019   4.093   7.638
20647TIP3    H112409  -0.033   4.181   7.678
20647TIP3    H212410   0.068   4.080   7.673
20648TIP3   OH212411   7.946   5.143   7.551
20648TIP3    H112412   8.003   5.213   7.584
20648TIP3    H212413   7.991   5.097   7.478
20649TIP3   OH212414   7.778   4.410   7.462
20649TIP3    H112415   7.773   4.505   7.487
20649TIP3    H212416   7.687   4.391   7.441
20650TIP3   OH212417   8.077   4.960   7.404
20650TIP3    H112418   8.097   4.881   7.454
20650TIP3    H212419   8.154   4.955   7.347
20651TIP3   OH212420   7.768   3.917   7.667
20651TIP3    H112421   7.758   3.928   7.574
20651TIP3    H212422   7.681   3.907   7.699
20652TIP3   OH212423   7.890   4.052   7.481
20652TIP3    H112424   7.942   3.989   7.432
20652TIP3    H212425   7.954   4.078   7.552
20653TIP3   OH212426   7.879   5.544   7.430
20653TIP3    H112427   7.847   5.572   7.518
20653TIP3    H212428   7.951   5.485   7.455
20654TIP3   OH212429   1.064   6.456   7.502
20654TIP3    H112430   1.128   6.455   7.573
20654TIP3    H212431   1.096   6.386   7.445
20655TIP3   OH212432   1.774   7.148   7.482
20655TIP3    H112433   1.786   7.242   7.507
20655TIP3    H212434   1.866   7.120   7.488
20656TIP3   OH212435   1.437   6.643   7.434
20656TIP3    H112436   1.434   6.623   7.338
20656TIP3    H212437   1.521   6.689   7.442
20657TIP3   OH212438   0.677   6.073   7.403
20657TIP3    H112439   0.635   6.035   7.483
20657TIP3    H212440   0.603   6.115   7.358
20658TIP3   OH212441   0.151   6.138   7.667
20658TIP3    H112442   0.186   6.192   7.595
20658TIP3    H212443   0.069   6.183   7.691
20659TIP3   OH212444   0.538   6.349   7.542
20659TIP3    H112445   0.487   6.311   7.469
20659TIP3    H212446   0.624   6.368   7.501
20660TIP3   OH212447   1.262   6.089   7.564
20660TIP3    H112448   1.167   6.099   7.547
20660TIP3    H212449   1.290   6.178   7.587
20661TIP3   OH212450   0.195   6.584   7.506
20661TIP3    H112451   0.259   6.630   7.562
20661TIP3    H212452   0.113   6.604   7.553
20662TIP3   OH212453   1.397   6.974   7.521
20662TIP3    H112454   1.426   6.938   7.605
20662TIP3    H212455   1.301   6.965   7.532
20663TIP3   OH212456   1.836   7.419   7.525
20663TIP3    H112457   1.916   7.474   7.529
20663TIP3    H212458   1.775   7.474   7.578
20664TIP3   OH212459   0.806   7.087   7.371
20664TIP3    H112460   0.821   7.012   7.312
20664TIP3    H212461   0.772   7.046   7.451
20665TIP3   OH212462   0.571   5.991   7.642
20665TIP3    H112463   0.568   6.076   7.688
20665TIP3    H212464   0.657   5.958   7.676
20666TIP3   OH212465   0.231   6.296   7.459
20666TIP3    H112466   0.230   6.389   7.487
20666TIP3    H212467   0.142   6.269   7.436
20667TIP3   OH212468   1.007   7.276   7.379
20667TIP3    H112469   0.942   7.212   7.413
20667TIP3    H212470   1.082   7.218   7.364
20668TIP3   OH212471   1.465   7.250   7.400
20668TIP3    H112472   1.495   7.174   7.452
20668TIP3    H212473   1.541   7.272   7.345
20669TIP3   OH212474   1.101   6.954   7.364
20669TIP3    H112475   1.068   6.965   7.453
20669TIP3    H212476   1.080   6.859   7.349
20670TIP3   OH212477   0.781   6.466   7.446
20670TIP3    H112478   0.767   6.457   7.350
20670TIP3    H212479   0.878   6.474   7.455
20671TIP3   OH212480   1.718   6.700   7.393
20671TIP3    H112481   1.698   6.662   7.306
20671TIP3    H212482   1.725   6.795   7.372
20672TIP3   OH212483   0.771   7.536   7.552
20672TIP3    H112484   0.866   7.549   7.561
20672TIP3    H212485   0.749   7.599   7.482
20673TIP3   OH212486   0.132   7.004   7.493
20673TIP3    H112487   0.221   7.009   7.527
20673TIP3    H212488   0.136   6.933   7.429
20674TIP3   OH212489   1.829   6.580   7.617
20674TIP3    H112490   1.784   6.618   7.538
20674TIP3    H212491   1.829   6.653   7.678
20675TIP3   OH212492   1.660   6.310   7.466
20675TIP3    H112493   1.684   6.372   7.397
20675TIP3    H212494   1.657   6.226   7.417
20676TIP3   OH212495   1.595   6.053   7.380
20676TIP3    H112496   1.657   6.009   7.437
20676TIP3    H212497   1.510   6.008   7.393
20677TIP3   OH212498   0.346   5.941   7.482
20677TIP3    H112499   0.396   5.871   7.438
20677TIP3    H212500   0.408   5.962   7.554
20678TIP3   OH212501   0.331   7.433   7.435
20678TIP3    H112502   0.300   7.461   7.521
20678TIP3    H212503   0.410   7.378   7.452
20679TIP3   OH212504   2.941   6.440   7.508
20679TIP3    H112505   3.014   6.460   7.567
20679TIP3    H212506   2.985   6.387   7.441
20680TIP3   OH212507   3.657   7.149   7.479
20680TIP3    H112508   3.673   7.241   7.507
20680TIP3    H212509   3.749   7.117   7.489
20681TIP3   OH212510   3.325   6.640   7.436
20681TIP3    H112511   3.317   6.622   7.340
20681TIP3    H212512   3.408   6.686   7.447
20682TIP3   OH212513   2.874   6.029   7.495
20682TIP3    H112514   2.849   6.036   7.588
20682TIP3    H212515   2.843   5.942   7.465
20683TIP3   OH212516   2.561   6.065   7.403
20683TIP3    H112517   2.517   6.034   7.485
20683TIP3    H212518   2.493   6.118   7.359
20684TIP3   OH212519   2.085   6.578   7.510
20684TIP3    H112520   2.146   6.639   7.558
20684TIP3    H212521   1.998   6.603   7.545
20685TIP3   OH212522   3.726   7.422   7.540
20685TIP3    H112523   3.804   7.480   7.533
20685TIP3    H212524   3.660   7.478   7.579
20686TIP3   OH212525   2.692   7.088   7.370
20686TIP3    H112526   2.710   7.010   7.316
20686TIP3    H212527   2.657   7.044   7.450
20687TIP3   OH212528   2.215   6.770   7.655
20687TIP3    H112529   2.161   6.808   7.723
20687TIP3    H212530   2.281   6.840   7.641
20688TIP3   OH212531   2.469   5.982   7.633
20688TIP3    H112532   2.451   6.067   7.678
20688TIP3    H212533   2.552   5.958   7.675
20689TIP3   OH212534   2.119   6.297   7.463
20689TIP3    H112535   2.116   6.391   7.488
20689TIP3    H212536   2.028   6.276   7.443
20690TIP3   OH212537   2.894   7.276   7.381
20690TIP3    H112538   2.827   7.209   7.410
20690TIP3    H212539   2.968   7.217   7.361
20691TIP3   OH212540   3.348   7.245   7.388
20691TIP3    H112541   3.381   7.180   7.451
20691TIP3    H212542   3.430   7.275   7.346
20692TIP3   OH212543   2.441   6.842   7.385
20692TIP3    H112544   2.451   6.766   7.445
20692TIP3    H212545   2.516   6.831   7.325
20693TIP3   OH212546   3.614   6.700   7.387
20693TIP3    H112547   3.581   6.662   7.304
20693TIP3    H212548   3.608   6.797   7.373
20694TIP3   OH212549   2.658   7.533   7.552
20694TIP3    H112550   2.752   7.551   7.560
20694TIP3    H212551   2.632   7.598   7.487
20695TIP3   OH212552   2.008   6.998   7.494
20695TIP3    H112553   2.100   7.006   7.524
20695TIP3    H212554   2.015   6.929   7.425
20696TIP3   OH212555   3.718   6.587   7.611
20696TIP3    H112556   3.664   6.622   7.538
20696TIP3    H212557   3.713   6.651   7.682
20697TIP3   OH212558   3.548   6.310   7.465
20697TIP3    H112559   3.568   6.374   7.397
20697TIP3    H212560   3.542   6.226   7.418
20698TIP3   OH212561   3.479   6.053   7.378
20698TIP3    H112562   3.541   6.009   7.440
20698TIP3    H212563   3.397   6.006   7.396
20699TIP3   OH212564   3.685   5.942   7.533
20699TIP3    H112565   3.725   5.867   7.485
20699TIP3    H212566   3.758   6.004   7.546
20700TIP3   OH212567   2.044   5.740   7.638
20700TIP3    H112568   2.090   5.807   7.586
20700TIP3    H212569   1.989   5.800   7.691
20701TIP3   OH212570   2.229   5.937   7.488
20701TIP3    H112571   2.278   5.874   7.434
20701TIP3    H212572   2.296   5.963   7.554
20702TIP3   OH212573   2.922   7.466   7.575
20702TIP3    H112574   3.010   7.491   7.550
20702TIP3    H212575   2.897   7.411   7.497
20703TIP3   OH212576   2.215   7.433   7.433
20703TIP3    H112577   2.193   7.456   7.525
20703TIP3    H212578   2.291   7.373   7.452
20704TIP3   OH212579   5.543   7.153   7.479
20704TIP3    H112580   5.557   7.245   7.508
20704TIP3    H212581   5.633   7.120   7.490
20705TIP3   OH212582   5.203   6.647   7.433
20705TIP3    H112583   5.204   6.621   7.339
20705TIP3    H212584   5.290   6.685   7.447
20706TIP3   OH212585   4.764   6.027   7.497
20706TIP3    H112586   4.734   6.030   7.588
20706TIP3    H212587   4.724   5.946   7.461
20707TIP3   OH212588   4.449   6.078   7.408
20707TIP3    H112589   4.402   6.030   7.481
20707TIP3    H212590   4.375   6.112   7.358
20708TIP3   OH212591   4.320   6.343   7.549
20708TIP3    H112592   4.256   6.317   7.480
20708TIP3    H212593   4.391   6.373   7.493
20709TIP3   OH212594   5.033   6.086   7.557
20709TIP3    H112595   4.939   6.105   7.545
20709TIP3    H212596   5.065   6.170   7.594
20710TIP3   OH212597   4.854   6.957   7.634
20710TIP3    H112598   4.829   7.037   7.681
20710TIP3    H212599   4.790   6.893   7.669
20711TIP3   OH212600   3.972   6.584   7.506
20711TIP3    H112601   4.030   6.637   7.563
20711TIP3    H212602   3.884   6.601   7.545
20712TIP3   OH212603   5.166   6.980   7.517
20712TIP3    H112604   5.198   6.940   7.600
20712TIP3    H212605   5.071   6.968   7.531
20713TIP3   OH212606   5.611   7.418   7.543
20713TIP3    H112607   5.685   7.478   7.529
20713TIP3    H212608   5.542   7.476   7.580
20714TIP3   OH212609   4.578   7.087   7.369
20714TIP3    H112610   4.590   7.010   7.312
20714TIP3    H212611   4.538   7.048   7.449
20715TIP3   OH212612   4.470   7.042   7.610
20715TIP3    H112613   4.482   6.995   7.693
20715TIP3    H212614   4.462   7.135   7.642
20716TIP3   OH212615   4.117   6.768   7.664
20716TIP3    H112616   4.043   6.799   7.718
20716TIP3    H212617   4.160   6.851   7.635
20717TIP3   OH212618   4.348   5.995   7.641
20717TIP3    H112619   4.336   6.077   7.691
20717TIP3    H212620   4.427   5.956   7.680
20718TIP3   OH212621   4.169   7.024   7.551
20718TIP3    H112622   4.229   7.095   7.579
20718TIP3    H212623   4.223   6.984   7.480
20719TIP3   OH212624   4.781   7.276   7.379
20719TIP3    H112625   4.713   7.212   7.409
20719TIP3    H212626   4.855   7.218   7.360
20720TIP3   OH212627   5.234   7.250   7.401
20720TIP3    H112628   5.267   7.177   7.456
20720TIP3    H212629   5.311   7.276   7.349
20721TIP3   OH212630   4.328   6.846   7.388
20721TIP3    H112631   4.338   6.769   7.444
20721TIP3    H212632   4.400   6.834   7.324
20722TIP3   OH212633   4.867   6.955   7.362
20722TIP3    H112634   4.845   6.965   7.456
20722TIP3    H212635   4.850   6.858   7.351
20723TIP3   OH212636   5.486   6.699   7.391
20723TIP3    H112637   5.468   6.662   7.304
20723TIP3    H212638   5.498   6.795   7.373
20724TIP3   OH212639   3.893   7.001   7.494
20724TIP3    H112640   3.987   7.007   7.522
20724TIP3    H212641   3.899   6.927   7.429
20725TIP3   OH212642   5.603   6.579   7.611
20725TIP3    H112643   5.555   6.621   7.537
20725TIP3    H212644   5.606   6.653   7.673
20726TIP3   OH212645   5.449   6.304   7.465
20726TIP3    H112646   5.449   6.375   7.400
20726TIP3    H212647   5.421   6.226   7.414
20727TIP3   OH212648   5.365   6.052   7.376
20727TIP3    H112649   5.425   6.011   7.438
20727TIP3    H212650   5.279   6.011   7.393
20728TIP3   OH212651   6.718   6.452   7.503
20728TIP3    H112652   6.786   6.453   7.572
20728TIP3    H212653   6.753   6.386   7.443
20729TIP3   OH212654   6.944   6.538   7.665
20729TIP3    H112655   6.998   6.559   7.741
20729TIP3    H212656   6.984   6.587   7.591
20730TIP3   OH212657   7.314   5.716   7.647
20730TIP3    H112658   7.226   5.728   7.682
20730TIP3    H212659   7.337   5.800   7.608
20731TIP3   OH212660   7.426   7.155   7.478
20731TIP3    H112661   7.450   7.245   7.505
20731TIP3    H212662   7.516   7.118   7.486
20732TIP3   OH212663   7.089   6.638   7.434
20732TIP3    H112664   7.088   6.619   7.338
20732TIP3    H212665   7.174   6.682   7.444
20733TIP3   OH212666   6.329   6.061   7.401
20733TIP3    H112667   6.290   6.040   7.486
20733TIP3    H212668   6.263   6.120   7.361
20734TIP3   OH212669   5.780   6.117   7.650
20734TIP3    H112670   5.837   6.179   7.599
20734TIP3    H212671   5.715   6.177   7.688
20735TIP3   OH212672   6.996   6.268   7.714
20735TIP3    H112673   7.080   6.269   7.760
20735TIP3    H212674   6.991   6.355   7.671
20736TIP3   OH212675   5.858   6.576   7.515
20736TIP3    H112676   5.914   6.641   7.558
20736TIP3    H212677   5.769   6.608   7.542
20737TIP3   OH212678   7.489   7.422   7.535
20737TIP3    H112679   7.571   7.477   7.532
20737TIP3    H212680   7.435   7.486   7.582
20738TIP3   OH212681   6.055   7.036   7.546
20738TIP3    H112682   6.119   7.093   7.589
20738TIP3    H212683   6.107   6.981   7.485
20739TIP3   OH212684   5.887   6.297   7.467
20739TIP3    H112685   5.886   6.393   7.487
20739TIP3    H212686   5.797   6.278   7.438
20740TIP3   OH212687   6.214   6.844   7.386
20740TIP3    H112688   6.225   6.769   7.448
20740TIP3    H212689   6.288   6.830   7.324
20741TIP3   OH212690   6.760   6.954   7.366
20741TIP3    H112691   6.723   6.956   7.453
20741TIP3    H212692   6.735   6.860   7.344
20742TIP3   OH212693   6.332   6.643   7.621
20742TIP3    H112694   6.286   6.591   7.688
20742TIP3    H212695   6.361   6.573   7.561
20743TIP3   OH212696   6.428   7.532   7.547
20743TIP3    H112697   6.520   7.554   7.566
20743TIP3    H212698   6.406   7.602   7.484
20744TIP3   OH212699   7.495   6.584   7.609
20744TIP3    H112700   7.436   6.617   7.541
20744TIP3    H212701   7.478   6.648   7.681
20745TIP3   OH212702   7.333   6.308   7.469
20745TIP3    H112703   7.335   6.373   7.398
20745TIP3    H212704   7.311   6.227   7.418
20746TIP3   OH212705   7.251   6.055   7.385
20746TIP3    H112706   7.313   6.005   7.439
20746TIP3    H212707   7.168   6.007   7.392
20747TIP3   OH212708   6.001   5.928   7.495
20747TIP3    H112709   6.053   5.874   7.432
20747TIP3    H212710   6.067   5.971   7.551
20748TIP3   OH212711   6.706   7.449   7.573
20748TIP3    H112712   6.780   7.504   7.551
20748TIP3    H212713   6.667   7.421   7.490
20749TIP3   OH212714   5.988   7.431   7.435
20749TIP3    H112715   5.961   7.454   7.525
20749TIP3    H212716   6.064   7.373   7.452
20750TIP3   OH212717   8.081   6.362   7.541
20750TIP3    H112718   8.030   6.309   7.478
20750TIP3    H212719   8.168   6.367   7.503
20751TIP3   OH212720   7.744   6.577   7.522
20751TIP3    H112721   7.802   6.647   7.555
20751TIP3    H212722   7.653   6.608   7.541
20752TIP3   OH212723  -0.040   5.969   7.650
20752TIP3    H112724  -0.045   6.060   7.680
20752TIP3    H212725   0.055   5.959   7.664
20753TIP3   OH212726   7.776   6.300   7.467
20753TIP3    H112727   7.768   6.394   7.488
20753TIP3    H212728   7.689   6.274   7.435
20754TIP3   OH212729   8.064   6.820   7.390
20754TIP3    H112730   8.103   6.779   7.468
20754TIP3    H212731   8.147   6.848   7.347
20755TIP3   OH212732   7.669   7.002   7.493
20755TIP3    H112733   7.761   7.008   7.526
20755TIP3    H212734   7.670   6.931   7.427
20756TIP3   OH212735   7.890   5.939   7.484
20756TIP3    H112736   7.940   5.873   7.435
20756TIP3    H212737   7.954   5.961   7.556
20757TIP3   OH212738   7.881   7.438   7.430
20757TIP3    H112739   7.847   7.457   7.520
20757TIP3    H212740   7.947   7.370   7.452
20758TIP3   OH212741   1.654   7.606   7.622
20758TIP3    H112742   1.579   7.608   7.684
20758TIP3    H212743   1.692   7.694   7.634
20759TIP3   OH212744   1.001   7.915   7.505
20759TIP3    H112745   0.958   7.911   7.590
20759TIP3    H212746   0.960   7.837   7.462
20760TIP3   OH212747   0.675   7.962   7.410
20760TIP3    H112748   0.629   7.918   7.483
20760TIP3    H212749   0.602   7.999   7.359
20761TIP3   OH212750   1.261   7.978   7.564
20761TIP3    H112751   1.168   7.989   7.531
20761TIP3    H212752   1.296   8.065   7.585
20762TIP3   OH212753   1.593   7.935   7.373
20762TIP3    H112754   1.656   7.925   7.446
20762TIP3    H212755   1.504   7.905   7.396
20763TIP3   OH212756   1.811   7.821   7.538
20763TIP3    H112757   1.863   7.755   7.489
20763TIP3    H212758   1.880   7.893   7.546
20764TIP3   OH212759   2.887   7.909   7.499
20764TIP3    H112760   2.847   7.919   7.586
20764TIP3    H212761   2.841   7.830   7.463
20765TIP3   OH212762   2.560   7.957   7.405
20765TIP3    H112763   2.518   7.920   7.487
20765TIP3    H212764   2.487   7.997   7.358
20766TIP3   OH212765   1.997   7.991   7.588
20766TIP3    H112766   2.066   8.058   7.586
20766TIP3    H212767   1.956   8.035   7.668
20767TIP3   OH212768   3.150   7.979   7.554
20767TIP3    H112769   3.053   7.990   7.545
20767TIP3    H212770   3.174   8.062   7.597
20768TIP3   OH212771   3.479   7.934   7.378
20768TIP3    H112772   3.538   7.896   7.440
20768TIP3    H212773   3.392   7.896   7.394
20769TIP3   OH212774   5.428   7.603   7.650
20769TIP3    H112775   5.335   7.609   7.680
20769TIP3    H212776   5.443   7.683   7.603
20770TIP3   OH212777   4.756   7.919   7.498
20770TIP3    H112778   4.735   7.910   7.592
20770TIP3    H212779   4.734   7.828   7.466
20771TIP3   OH212780   3.895   8.003   7.652
20771TIP3    H112781   3.945   8.068   7.598
20771TIP3    H212782   3.830   8.064   7.691
20772TIP3   OH212783   5.015   7.963   7.520
20772TIP3    H112784   4.920   7.975   7.538
20772TIP3    H212785   5.051   8.043   7.554
20773TIP3   OH212786   5.363   7.938   7.381
20773TIP3    H112787   5.424   7.894   7.438
20773TIP3    H212788   5.277   7.892   7.391
20774TIP3   OH212789   3.922   7.629   7.635
20774TIP3    H112790   3.980   7.686   7.585
20774TIP3    H212791   3.871   7.685   7.692
20775TIP3   OH212792   6.333   7.965   7.407
20775TIP3    H112793   6.291   7.917   7.483
20775TIP3    H212794   6.258   7.995   7.355
20776TIP3   OH212795   6.233   7.874   7.641
20776TIP3    H112796   6.226   7.957   7.689
20776TIP3    H212797   6.316   7.841   7.680
20777TIP3   OH212798   7.253   7.933   7.375
20777TIP3    H112799   7.315   7.897   7.442
20777TIP3    H212800   7.168   7.895   7.397
20778TIP3   OH212801   7.457   7.822   7.533
20778TIP3    H112802   7.503   7.752   7.484
20778TIP3    H212803   7.529   7.888   7.546
20779TIP3   OH212804   7.663   7.989   7.649
20779TIP3    H112805   7.715   8.061   7.606
20779TIP3    H212806   7.603   8.053   7.691
20780TIP3   OH212807  -0.050   7.880   7.614
20780TIP3    H112808  -0.036   7.959   7.671
20780TIP3    H212809   0.028   7.840   7.658
20781TIP3   OH212810   7.671   7.627   7.578
20781TIP3    H112811   7.749   7.683   7.573
20781TIP3    H212812   7.641   7.664   7.664
20782TIP3   OH212813   7.885   7.820   7.483
20782TIP3    H112814   7.940   7.758   7.434
20782TIP3    H212815   7.953   7.849   7.552
20783TIP3   OH212816   1.061   0.794   5.253
20783TIP3    H112817   1.131   0.798   5.319
20783TIP3    H212818   1.092   0.725   5.194
20784TIP3   OH212819   1.658   0.065   5.406
20784TIP3    H112820   1.564   0.068   5.426
20784TIP3    H212821   1.676   0.145   5.357
20785TIP3   OH212822   1.760   1.486   5.292
20785TIP3    H112823   1.772   1.582   5.279
20785TIP3    H212824   1.848   1.458   5.260
20786TIP3   OH212825   1.315   1.768   5.308
20786TIP3    H112826   1.356   1.695   5.259
20786TIP3    H212827   1.320   1.738   5.399
20787TIP3   OH212828   1.428   0.974   5.193
20787TIP3    H112829   1.427   0.974   5.096
20787TIP3    H212830   1.514   1.020   5.196
20788TIP3   OH212831   0.997   0.371   5.249
20788TIP3    H112832   0.960   0.378   5.338
20788TIP3    H212833   0.963   0.287   5.219
20789TIP3   OH212834   0.536   0.698   5.300
20789TIP3    H112835   0.489   0.653   5.229
20789TIP3    H212836   0.621   0.714   5.257
20790TIP3   OH212837   1.261   0.435   5.292
20790TIP3    H112838   1.164   0.443   5.297
20790TIP3    H212839   1.293   0.509   5.348
20791TIP3   OH212840   1.332   0.629   5.476
20791TIP3    H112841   1.423   0.606   5.502
20791TIP3    H212842   1.347   0.702   5.417
20792TIP3   OH212843   0.194   0.919   5.260
20792TIP3    H112844   0.257   0.975   5.307
20792TIP3    H212845   0.110   0.952   5.295
20793TIP3   OH212846   1.390   1.318   5.272
20793TIP3    H112847   1.424   1.283   5.353
20793TIP3    H212848   1.295   1.307   5.283
20794TIP3   OH212849   1.837   1.764   5.289
20794TIP3    H112850   1.916   1.818   5.287
20794TIP3    H212851   1.770   1.826   5.323
20795TIP3   OH212852   0.398   1.368   5.306
20795TIP3    H112853   0.458   1.438   5.336
20795TIP3    H212854   0.449   1.331   5.234
20796TIP3   OH212855   0.231   0.641   5.211
20796TIP3    H112856   0.228   0.736   5.234
20796TIP3    H212857   0.143   0.613   5.187
20797TIP3   OH212858   0.783   0.813   5.201
20797TIP3    H112859   0.765   0.796   5.106
20797TIP3    H212860   0.879   0.822   5.206
20798TIP3   OH212861   0.771   1.885   5.311
20798TIP3    H112862   0.867   1.891   5.309
20798TIP3    H212863   0.746   1.941   5.236
20799TIP3   OH212864   0.128   1.329   5.258
20799TIP3    H112865   0.222   1.354   5.274
20799TIP3    H212866   0.134   1.279   5.177
20800TIP3   OH212867   1.667   0.651   5.218
20800TIP3    H112868   1.670   0.716   5.149
20800TIP3    H212869   1.654   0.567   5.171
20801TIP3   OH212870   1.808   0.279   5.286
20801TIP3    H112871   1.842   0.208   5.231
20801TIP3    H212872   1.876   0.346   5.289
20802TIP3   OH212873   0.170   0.107   5.400
20802TIP3    H112874   0.203   0.165   5.331
20802TIP3    H212875   0.092   0.147   5.438
20803TIP3   OH212876   0.363   0.310   5.252
20803TIP3    H112877   0.400   0.248   5.189
20803TIP3    H212878   0.429   0.315   5.321
20804TIP3   OH212879   0.328   1.760   5.189
20804TIP3    H112880   0.303   1.795   5.276
20804TIP3    H212881   0.413   1.716   5.201
20805TIP3   OH212882   2.946   0.794   5.253
20805TIP3    H112883   3.016   0.798   5.319
20805TIP3    H212884   2.977   0.725   5.194
20806TIP3   OH212885   3.544   0.066   5.406
20806TIP3    H112886   3.450   0.067   5.426
20806TIP3    H212887   3.562   0.147   5.357
20807TIP3   OH212888   3.645   1.487   5.291
20807TIP3    H112889   3.658   1.583   5.281
20807TIP3    H212890   3.733   1.457   5.261
20808TIP3   OH212891   3.201   1.767   5.308
20808TIP3    H112892   3.242   1.694   5.260
20808TIP3    H212893   3.206   1.737   5.399
20809TIP3   OH212894   3.313   0.972   5.192
20809TIP3    H112895   3.314   0.975   5.095
20809TIP3    H212896   3.398   1.021   5.198
20810TIP3   OH212897   2.882   0.372   5.249
20810TIP3    H112898   2.846   0.378   5.338
20810TIP3    H212899   2.849   0.287   5.219
20811TIP3   OH212900   2.421   0.698   5.301
20811TIP3    H112901   2.375   0.653   5.229
20811TIP3    H212902   2.506   0.714   5.258
20812TIP3   OH212903   3.146   0.436   5.292
20812TIP3    H112904   3.049   0.443   5.298
20812TIP3    H212905   3.179   0.509   5.348
20813TIP3   OH212906   3.218   0.629   5.475
20813TIP3    H112907   3.309   0.607   5.502
20813TIP3    H212908   3.233   0.704   5.418
20814TIP3   OH212909   2.082   0.925   5.254
20814TIP3    H112910   2.145   0.975   5.309
20814TIP3    H212911   1.999   0.953   5.293
20815TIP3   OH212912   3.275   1.318   5.271
20815TIP3    H112913   3.313   1.286   5.354
20815TIP3    H212914   3.181   1.306   5.286
20816TIP3   OH212915   3.722   1.764   5.289
20816TIP3    H112916   3.802   1.818   5.287
20816TIP3    H212917   3.655   1.826   5.323
20817TIP3   OH212918   2.286   1.371   5.306
20817TIP3    H112919   2.350   1.437   5.337
20817TIP3    H212920   2.335   1.330   5.235
20818TIP3   OH212921   2.117   0.643   5.213
20818TIP3    H112922   2.111   0.737   5.237
20818TIP3    H212923   2.028   0.617   5.190
20819TIP3   OH212924   2.669   0.813   5.201
20819TIP3    H112925   2.651   0.796   5.106
20819TIP3    H212926   2.765   0.822   5.206
20820TIP3   OH212927   2.657   1.885   5.311
20820TIP3    H112928   2.752   1.891   5.309
20820TIP3    H212929   2.631   1.941   5.237
20821TIP3   OH212930   2.016   1.338   5.258
20821TIP3    H112931   2.110   1.352   5.275
20821TIP3    H212932   2.015   1.278   5.183
20822TIP3   OH212933   3.553   0.651   5.218
20822TIP3    H112934   3.555   0.716   5.149
20822TIP3    H212935   3.540   0.567   5.170
20823TIP3   OH212936   3.693   0.280   5.286
20823TIP3    H112937   3.728   0.208   5.232
20823TIP3    H212938   3.761   0.346   5.288
20824TIP3   OH212939   2.062   0.096   5.396
20824TIP3    H112940   2.087   0.164   5.332
20824TIP3    H212941   1.985   0.138   5.439
20825TIP3   OH212942   2.248   0.301   5.258
20825TIP3    H112943   2.291   0.253   5.186
20825TIP3    H212944   2.318   0.321   5.318
20826TIP3   OH212945   2.217   1.760   5.187
20826TIP3    H112946   2.190   1.794   5.273
20826TIP3    H212947   2.301   1.715   5.201
20827TIP3   OH212948   4.832   0.794   5.253
20827TIP3    H112949   4.902   0.798   5.319
20827TIP3    H212950   4.863   0.725   5.194
20828TIP3   OH212951   5.429   0.065   5.406
20828TIP3    H112952   5.335   0.068   5.427
20828TIP3    H212953   5.448   0.145   5.357
20829TIP3   OH212954   5.531   1.487   5.290
20829TIP3    H112955   5.543   1.584   5.280
20829TIP3    H212956   5.619   1.459   5.261
20830TIP3   OH212957   5.087   1.767   5.309
20830TIP3    H112958   5.128   1.694   5.260
20830TIP3    H212959   5.092   1.735   5.400
20831TIP3   OH212960   5.199   0.969   5.192
20831TIP3    H112961   5.198   0.976   5.096
20831TIP3    H212962   5.280   1.023   5.198
20832TIP3   OH212963   4.768   0.371   5.249
20832TIP3    H112964   4.731   0.377   5.338
20832TIP3    H212965   4.734   0.287   5.219
20833TIP3   OH212966   4.306   0.699   5.301
20833TIP3    H112967   4.260   0.653   5.229
20833TIP3    H212968   4.392   0.714   5.257
20834TIP3   OH212969   5.032   0.435   5.292
20834TIP3    H112970   4.935   0.444   5.297
20834TIP3    H212971   5.064   0.509   5.348
20835TIP3   OH212972   5.103   0.629   5.475
20835TIP3    H112973   5.194   0.607   5.502
20835TIP3    H212974   5.117   0.704   5.418
20836TIP3   OH212975   3.967   0.926   5.255
20836TIP3    H112976   4.030   0.975   5.309
20836TIP3    H212977   3.884   0.954   5.294
20837TIP3   OH212978   5.160   1.318   5.271
20837TIP3    H112979   5.200   1.286   5.354
20837TIP3    H212980   5.067   1.307   5.286
20838TIP3   OH212981   5.608   1.763   5.289
20838TIP3    H112982   5.688   1.818   5.287
20838TIP3    H212983   5.541   1.826   5.323
20839TIP3   OH212984   4.171   1.371   5.306
20839TIP3    H112985   4.235   1.437   5.337
20839TIP3    H212986   4.222   1.330   5.236
20840TIP3   OH212987   4.002   0.643   5.213
20840TIP3    H112988   3.996   0.737   5.237
20840TIP3    H212989   3.914   0.617   5.190
20841TIP3   OH212990   4.554   0.813   5.201
20841TIP3    H112991   4.537   0.796   5.107
20841TIP3    H212992   4.650   0.822   5.207
20842TIP3   OH212993   4.543   1.885   5.311
20842TIP3    H112994   4.639   1.891   5.308
20842TIP3    H212995   4.518   1.941   5.236
20843TIP3   OH212996   3.903   1.342   5.256
20843TIP3    H112997   3.998   1.351   5.275
20843TIP3    H212998   3.897   1.276   5.187
20844TIP3   OH212999   5.447   0.655   5.216
20844TIP3    H113000   5.432   0.713   5.141
20844TIP3    H213001   5.424   0.568   5.176
20845TIP3   OH213002   5.578   0.279   5.286
20845TIP3    H113003   5.614   0.208   5.231
20845TIP3    H213004   5.647   0.345   5.290
20846TIP3   OH213005   3.941   0.096   5.394
20846TIP3    H113006   3.976   0.163   5.334
20846TIP3    H213007   3.869   0.141   5.440
20847TIP3   OH213008   4.135   0.308   5.253
20847TIP3    H113009   4.175   0.249   5.189
20847TIP3    H213010   4.202   0.316   5.320
20848TIP3   OH213011   4.102   1.762   5.188
20848TIP3    H113012   4.075   1.794   5.275
20848TIP3    H213013   4.186   1.716   5.202
20849TIP3   OH213014   6.715   0.790   5.255
20849TIP3    H113015   6.787   0.798   5.319
20849TIP3    H213016   6.750   0.726   5.193
20850TIP3   OH213017   7.315   0.065   5.407
20850TIP3    H113018   7.221   0.068   5.426
20850TIP3    H213019   7.333   0.145   5.357
20851TIP3   OH213020   7.417   1.487   5.290
20851TIP3    H113021   7.429   1.583   5.280
20851TIP3    H213022   7.505   1.457   5.261
20852TIP3   OH213023   6.975   1.768   5.308
20852TIP3    H113024   7.011   1.692   5.259
20852TIP3    H213025   6.977   1.734   5.398
20853TIP3   OH213026   7.086   0.969   5.190
20853TIP3    H113027   7.085   0.977   5.094
20853TIP3    H213028   7.168   1.022   5.197
20854TIP3   OH213029   6.654   0.371   5.249
20854TIP3    H113030   6.617   0.378   5.338
20854TIP3    H213031   6.621   0.286   5.219
20855TIP3   OH213032   6.190   0.701   5.300
20855TIP3    H113033   6.147   0.652   5.229
20855TIP3    H213034   6.277   0.715   5.258
20856TIP3   OH213035   6.917   0.435   5.293
20856TIP3    H113036   6.820   0.443   5.297
20856TIP3    H213037   6.950   0.509   5.348
20857TIP3   OH213038   6.989   0.629   5.476
20857TIP3    H113039   7.080   0.607   5.502
20857TIP3    H213040   7.004   0.703   5.418
20858TIP3   OH213041   5.849   0.929   5.256
20858TIP3    H113042   5.922   0.971   5.307
20858TIP3    H213043   5.778   0.963   5.310
20859TIP3   OH213044   7.062   1.352   5.336
20859TIP3    H113045   7.091   1.269   5.368
20859TIP3    H213046   6.982   1.322   5.287
20860TIP3   OH213047   7.494   1.765   5.289
20860TIP3    H113048   7.574   1.819   5.288
20860TIP3    H213049   7.426   1.825   5.323
20861TIP3   OH213050   6.057   1.371   5.306
20861TIP3    H113051   6.121   1.437   5.337
20861TIP3    H213052   6.107   1.330   5.235
20862TIP3   OH213053   5.888   0.643   5.212
20862TIP3    H113054   5.884   0.736   5.238
20862TIP3    H213055   5.801   0.612   5.188
20863TIP3   OH213056   6.440   0.813   5.201
20863TIP3    H113057   6.422   0.796   5.107
20863TIP3    H213058   6.536   0.823   5.206
20864TIP3   OH213059   6.428   1.885   5.310
20864TIP3    H113060   6.524   1.891   5.309
20864TIP3    H213061   6.402   1.941   5.237
20865TIP3   OH213062   5.787   1.336   5.258
20865TIP3    H113063   5.882   1.353   5.275
20865TIP3    H213064   5.788   1.279   5.181
20866TIP3   OH213065   7.325   0.650   5.220
20866TIP3    H113066   7.327   0.715   5.150
20866TIP3    H213067   7.311   0.567   5.171
20867TIP3   OH213068   7.465   0.280   5.287
20867TIP3    H113069   7.499   0.208   5.232
20867TIP3    H213070   7.534   0.346   5.288
20868TIP3   OH213071   5.827   0.096   5.394
20868TIP3    H113072   5.862   0.162   5.334
20868TIP3    H213073   5.755   0.140   5.440
20869TIP3   OH213074   6.021   0.308   5.253
20869TIP3    H113075   6.061   0.249   5.189
20869TIP3    H213076   6.088   0.316   5.320
20870TIP3   OH213077   5.988   1.760   5.187
20870TIP3    H113078   5.961   1.794   5.273
20870TIP3    H213079   6.072   1.715   5.201
20871TIP3   OH213080   8.082   0.697   5.296
20871TIP3    H113081   8.025   0.656   5.229
20871TIP3    H213082   8.164   0.713   5.252
20872TIP3   OH213083   7.738   0.925   5.256
20872TIP3    H113084   7.802   0.976   5.308
20872TIP3    H213085   7.655   0.954   5.294
20873TIP3   OH213086  -0.026   0.325   5.406
20873TIP3    H113087  -0.035   0.419   5.431
20873TIP3    H213088   0.066   0.309   5.422
20874TIP3   OH213089   7.942   1.369   5.305
20874TIP3    H113090   8.006   1.437   5.333
20874TIP3    H213091   7.994   1.331   5.234
20875TIP3   OH213092   7.775   0.642   5.217
20875TIP3    H113093   7.768   0.737   5.236
20875TIP3    H213094   7.687   0.615   5.191
20876TIP3   OH213095   7.673   1.340   5.257
20876TIP3    H113096   7.768   1.352   5.274
20876TIP3    H213097   7.670   1.277   5.185
20877TIP3   OH213098   7.712   0.094   5.393
20877TIP3    H113099   7.749   0.161   5.334
20877TIP3    H213100   7.643   0.142   5.442
20878TIP3   OH213101   7.907   0.310   5.252
20878TIP3    H113102   7.948   0.248   5.192
20878TIP3    H213103   7.975   0.314   5.322
20879TIP3   OH213104   7.872   1.762   5.187
20879TIP3    H113105   7.846   1.793   5.274
20879TIP3    H213106   7.957   1.716   5.200
20880TIP3   OH213107   1.061   2.680   5.253
20880TIP3    H113108   1.131   2.683   5.319
20880TIP3    H213109   1.092   2.611   5.194
20881TIP3   OH213110   1.660   1.948   5.409
20881TIP3    H113111   1.564   1.953   5.425
20881TIP3    H213112   1.675   2.028   5.357
20882TIP3   OH213113   1.760   3.373   5.291
20882TIP3    H113114   1.772   3.469   5.280
20882TIP3    H213115   1.848   3.343   5.261
20883TIP3   OH213116   1.315   3.652   5.308
20883TIP3    H113117   1.357   3.579   5.260
20883TIP3    H213118   1.321   3.622   5.400
20884TIP3   OH213119   1.428   2.857   5.192
20884TIP3    H113120   1.429   2.860   5.095
20884TIP3    H213121   1.512   2.906   5.198
20885TIP3   OH213122   0.992   2.261   5.250
20885TIP3    H113123   0.959   2.261   5.340
20885TIP3    H213124   0.965   2.175   5.217
20886TIP3   OH213125   0.536   2.585   5.301
20886TIP3    H113126   0.489   2.539   5.229
20886TIP3    H213127   0.621   2.599   5.257
20887TIP3   OH213128   1.261   2.324   5.293
20887TIP3    H113129   1.164   2.326   5.297
20887TIP3    H213130   1.292   2.398   5.350
20888TIP3   OH213131   1.332   2.515   5.476
20888TIP3    H113132   1.423   2.493   5.502
20888TIP3    H213133   1.347   2.589   5.418
20889TIP3   OH213134   0.194   2.804   5.260
20889TIP3    H113135   0.257   2.860   5.307
20889TIP3    H213136   0.111   2.837   5.295
20890TIP3   OH213137   1.390   3.203   5.271
20890TIP3    H113138   1.428   3.172   5.354
20890TIP3    H213139   1.296   3.192   5.286
20891TIP3   OH213140   1.836   3.649   5.289
20891TIP3    H113141   1.916   3.704   5.287
20891TIP3    H213142   1.770   3.711   5.323
20892TIP3   OH213143   0.397   3.256   5.304
20892TIP3    H113144   0.459   3.324   5.337
20892TIP3    H213145   0.449   3.216   5.236
20893TIP3   OH213146   0.231   2.527   5.211
20893TIP3    H113147   0.228   2.621   5.235
20893TIP3    H213148   0.143   2.499   5.187
20894TIP3   OH213149   0.783   2.699   5.201
20894TIP3    H113150   0.765   2.682   5.106
20894TIP3    H213151   0.879   2.708   5.206
20895TIP3   OH213152   0.771   3.770   5.310
20895TIP3    H113153   0.867   3.777   5.309
20895TIP3    H213154   0.746   3.827   5.237
20896TIP3   OH213155   0.129   3.216   5.257
20896TIP3    H113156   0.223   3.240   5.273
20896TIP3    H213157   0.134   3.164   5.176
20897TIP3   OH213158   1.667   2.537   5.219
20897TIP3    H113159   1.670   2.602   5.149
20897TIP3    H213160   1.654   2.453   5.171
20898TIP3   OH213161   1.806   2.161   5.287
20898TIP3    H113162   1.845   2.094   5.230
20898TIP3    H213163   1.872   2.230   5.290
20899TIP3   OH213164   0.165   1.973   5.395
20899TIP3    H113165   0.202   2.039   5.336
20899TIP3    H213166   0.095   2.021   5.441
20900TIP3   OH213167   0.363   2.194   5.256
20900TIP3    H113168   0.401   2.137   5.189
20900TIP3    H213169   0.431   2.200   5.321
20901TIP3   OH213170   0.329   3.646   5.187
20901TIP3    H113171   0.303   3.681   5.274
20901TIP3    H213172   0.413   3.602   5.202
20902TIP3   OH213173   2.945   2.684   5.251
20902TIP3    H113174   3.015   2.682   5.319
20902TIP3    H213175   2.977   2.612   5.195
20903TIP3   OH213176   3.545   1.947   5.409
20903TIP3    H113177   3.450   1.953   5.425
20903TIP3    H213178   3.561   2.028   5.357
20904TIP3   OH213179   3.645   3.373   5.291
20904TIP3    H113180   3.658   3.469   5.280
20904TIP3    H213181   3.733   3.343   5.261
20905TIP3   OH213182   3.201   3.652   5.308
20905TIP3    H113183   3.242   3.579   5.260
20905TIP3    H213184   3.206   3.622   5.399
20906TIP3   OH213185   3.311   2.858   5.191
20906TIP3    H113186   3.315   2.860   5.095
20906TIP3    H213187   3.396   2.906   5.199
20907TIP3   OH213188   2.878   2.261   5.250
20907TIP3    H113189   2.845   2.261   5.340
20907TIP3    H213190   2.850   2.175   5.217
20908TIP3   OH213191   2.422   2.588   5.300
20908TIP3    H113192   2.374   2.538   5.231
20908TIP3    H213193   2.507   2.596   5.256
20909TIP3   OH213194   3.147   2.324   5.293
20909TIP3    H113195   3.049   2.326   5.297
20909TIP3    H213196   3.177   2.398   5.350
20910TIP3   OH213197   3.218   2.515   5.476
20910TIP3    H113198   3.309   2.493   5.502
20910TIP3    H213199   3.233   2.589   5.418
20911TIP3   OH213200   2.081   2.811   5.255
20911TIP3    H113201   2.145   2.860   5.309
20911TIP3    H213202   1.998   2.840   5.295
20912TIP3   OH213203   3.276   3.203   5.271
20912TIP3    H113204   3.313   3.171   5.354
20912TIP3    H213205   3.182   3.193   5.286
20913TIP3   OH213206   3.722   3.649   5.289
20913TIP3    H113207   3.802   3.704   5.288
20913TIP3    H213208   3.655   3.711   5.323
20914TIP3   OH213209   2.288   3.255   5.307
20914TIP3    H113210   2.349   3.324   5.337
20914TIP3    H213211   2.335   3.218   5.233
20915TIP3   OH213212   2.117   2.528   5.214
20915TIP3    H113213   2.111   2.623   5.237
20915TIP3    H213214   2.028   2.502   5.191
20916TIP3   OH213215   2.674   2.717   5.196
20916TIP3    H113216   2.649   2.677   5.109
20916TIP3    H213217   2.768   2.694   5.205
20917TIP3   OH213218   2.657   3.770   5.310
20917TIP3    H113219   2.753   3.777   5.309
20917TIP3    H213220   2.631   3.827   5.237
20918TIP3   OH213221   2.018   3.227   5.255
20918TIP3    H113222   2.112   3.237   5.275
20918TIP3    H213223   2.014   3.163   5.184
20919TIP3   OH213224   3.553   2.537   5.219
20919TIP3    H113225   3.556   2.601   5.149
20919TIP3    H213226   3.539   2.453   5.171
20920TIP3   OH213227   3.692   2.161   5.287
20920TIP3    H113228   3.731   2.094   5.230
20920TIP3    H213229   3.758   2.230   5.290
20921TIP3   OH213230   2.051   1.972   5.392
20921TIP3    H113231   2.092   2.042   5.339
20921TIP3    H213232   1.987   2.023   5.442
20922TIP3   OH213233   2.253   2.194   5.253
20922TIP3    H113234   2.289   2.133   5.190
20922TIP3    H213235   2.319   2.201   5.321
20923TIP3   OH213236   2.216   3.645   5.187
20923TIP3    H113237   2.190   3.680   5.273
20923TIP3    H213238   2.301   3.601   5.201
20924TIP3   OH213239   4.835   2.680   5.249
20924TIP3    H113240   4.900   2.683   5.320
20924TIP3    H213241   4.860   2.607   5.193
20925TIP3   OH213242   5.431   1.948   5.409
20925TIP3    H113243   5.336   1.953   5.425
20925TIP3    H213244   5.446   2.028   5.357
20926TIP3   OH213245   5.531   3.373   5.291
20926TIP3    H113246   5.544   3.469   5.280
20926TIP3    H213247   5.619   3.343   5.261
20927TIP3   OH213248   5.087   3.652   5.308
20927TIP3    H113249   5.128   3.579   5.260
20927TIP3    H213250   5.092   3.622   5.399
20928TIP3   OH213251   5.201   2.850   5.190
20928TIP3    H113252   5.199   2.865   5.094
20928TIP3    H213253   5.281   2.906   5.199
20929TIP3   OH213254   4.770   2.261   5.253
20929TIP3    H113255   4.728   2.260   5.340
20929TIP3    H213256   4.734   2.180   5.213
20930TIP3   OH213257   4.306   2.584   5.301
20930TIP3    H113258   4.260   2.539   5.229
20930TIP3    H213259   4.392   2.600   5.258
20931TIP3   OH213260   5.034   2.336   5.284
20931TIP3    H113261   4.937   2.322   5.296
20931TIP3    H213262   5.060   2.395   5.358
20932TIP3   OH213263   5.105   2.512   5.472
20932TIP3    H113264   5.194   2.493   5.506
20932TIP3    H213265   5.117   2.593   5.425
20933TIP3   OH213266   3.966   2.811   5.255
20933TIP3    H113267   4.030   2.860   5.309
20933TIP3    H213268   3.883   2.840   5.295
20934TIP3   OH213269   5.161   3.203   5.271
20934TIP3    H113270   5.199   3.172   5.354
20934TIP3    H213271   5.067   3.192   5.286
20935TIP3   OH213272   5.608   3.650   5.289
20935TIP3    H113273   5.688   3.704   5.287
20935TIP3    H213274   5.541   3.711   5.324
20936TIP3   OH213275   4.172   3.257   5.306
20936TIP3    H113276   4.235   3.323   5.337
20936TIP3    H213277   4.221   3.216   5.235
20937TIP3   OH213278   4.003   2.528   5.212
20937TIP3    H113279   3.997   2.622   5.237
20937TIP3    H213280   3.914   2.503   5.190
20938TIP3   OH213281   4.554   2.701   5.201
20938TIP3    H113282   4.537   2.680   5.107
20938TIP3    H213283   4.650   2.707   5.206
20939TIP3   OH213284   4.543   3.770   5.310
20939TIP3    H113285   4.638   3.777   5.309
20939TIP3    H213286   4.517   3.826   5.237
20940TIP3   OH213287   3.903   3.227   5.255
20940TIP3    H113288   3.998   3.237   5.275
20940TIP3    H213289   3.900   3.163   5.184
20941TIP3   OH213290   5.418   2.537   5.213
20941TIP3    H113291   5.452   2.601   5.149
20941TIP3    H213292   5.435   2.450   5.171
20942TIP3   OH213293   5.576   2.164   5.286
20942TIP3    H113294   5.615   2.094   5.231
20942TIP3    H213295   5.646   2.229   5.291
20943TIP3   OH213296   3.937   1.973   5.391
20943TIP3    H113297   3.978   2.042   5.339
20943TIP3    H213298   3.872   2.023   5.442
20944TIP3   OH213299   4.138   2.194   5.254
20944TIP3    H113300   4.175   2.134   5.189
20944TIP3    H213301   4.204   2.201   5.321
20945TIP3   OH213302   4.102   3.646   5.187
20945TIP3    H113303   4.075   3.680   5.273
20945TIP3    H213304   4.186   3.601   5.201
20946TIP3   OH213305   6.718   2.680   5.252
20946TIP3    H113306   6.788   2.683   5.319
20946TIP3    H213307   6.749   2.611   5.194
20947TIP3   OH213308   7.317   1.947   5.409
20947TIP3    H113309   7.221   1.953   5.425
20947TIP3    H213310   7.332   2.028   5.357
20948TIP3   OH213311   7.416   3.373   5.290
20948TIP3    H113312   7.430   3.468   5.282
20948TIP3    H213313   7.504   3.340   5.262
20949TIP3   OH213314   6.978   3.653   5.307
20949TIP3    H113315   7.012   3.577   5.260
20949TIP3    H213316   6.978   3.623   5.399
20950TIP3   OH213317   7.085   2.857   5.192
20950TIP3    H113318   7.086   2.860   5.095
20950TIP3    H213319   7.169   2.906   5.198
20951TIP3   OH213320   6.652   2.258   5.251
20951TIP3    H113321   6.616   2.261   5.340
20951TIP3    H213322   6.621   2.174   5.217
20952TIP3   OH213323   6.191   2.587   5.300
20952TIP3    H113324   6.145   2.537   5.231
20952TIP3    H213325   6.278   2.599   5.259
20953TIP3   OH213326   6.918   2.325   5.293
20953TIP3    H113327   6.821   2.325   5.297
20953TIP3    H213328   6.949   2.398   5.350
20954TIP3   OH213329   6.989   2.515   5.476
20954TIP3    H113330   7.080   2.493   5.502
20954TIP3    H213331   7.004   2.589   5.418
20955TIP3   OH213332   5.854   2.812   5.253
20955TIP3    H113333   5.916   2.861   5.310
20955TIP3    H213334   5.771   2.838   5.293
20956TIP3   OH213335   7.046   3.203   5.271
20956TIP3    H113336   7.084   3.172   5.354
20956TIP3    H213337   6.953   3.192   5.286
20957TIP3   OH213338   7.494   3.657   5.278
20957TIP3    H113339   7.577   3.703   5.300
20957TIP3    H213340   7.428   3.709   5.331
20958TIP3   OH213341   6.057   3.257   5.306
20958TIP3    H113342   6.121   3.323   5.337
20958TIP3    H213343   6.106   3.216   5.235
20959TIP3   OH213344   5.890   2.530   5.209
20959TIP3    H113345   5.881   2.622   5.240
20959TIP3    H213346   5.800   2.501   5.192
20960TIP3   OH213347   6.445   2.703   5.207
20960TIP3    H113348   6.425   2.680   5.115
20960TIP3    H213349   6.541   2.708   5.210
20961TIP3   OH213350   6.428   3.770   5.310
20961TIP3    H113351   6.524   3.777   5.309
20961TIP3    H213352   6.401   3.827   5.237
20962TIP3   OH213353   5.789   3.227   5.255
20962TIP3    H113354   5.883   3.236   5.276
20962TIP3    H213355   5.786   3.162   5.184
20963TIP3   OH213356   7.323   2.537   5.219
20963TIP3    H113357   7.327   2.602   5.149
20963TIP3    H213358   7.311   2.453   5.171
20964TIP3   OH213359   7.464   2.161   5.287
20964TIP3    H113360   7.502   2.094   5.230
20964TIP3    H213361   7.531   2.230   5.290
20965TIP3   OH213362   5.823   1.973   5.392
20965TIP3    H113363   5.864   2.042   5.339
20965TIP3    H213364   5.758   2.023   5.442
20966TIP3   OH213365   6.024   2.195   5.253
20966TIP3    H113366   6.060   2.134   5.189
20966TIP3    H213367   6.090   2.201   5.321
20967TIP3   OH213368   5.988   3.647   5.185
20967TIP3    H113369   5.960   3.679   5.271
20967TIP3    H213370   6.071   3.601   5.200
20968TIP3   OH213371   8.081   2.584   5.296
20968TIP3    H113372   8.025   2.540   5.230
20968TIP3    H213373   8.164   2.599   5.252
20969TIP3   OH213374   7.738   2.811   5.256
20969TIP3    H113375   7.802   2.861   5.308
20969TIP3    H213376   7.655   2.840   5.295
20970TIP3   OH213377  -0.026   2.213   5.403
20970TIP3    H113378  -0.036   2.305   5.432
20970TIP3    H213379   0.065   2.194   5.423
20971TIP3   OH213380   7.942   3.256   5.305
20971TIP3    H113381   8.006   3.323   5.333
20971TIP3    H213382   7.994   3.217   5.234
20972TIP3   OH213383   7.775   2.528   5.216
20972TIP3    H113384   7.768   2.623   5.236
20972TIP3    H213385   7.687   2.500   5.191
20973TIP3   OH213386   7.673   3.231   5.253
20973TIP3    H113387   7.768   3.238   5.274
20973TIP3    H213388   7.670   3.163   5.185
20974TIP3   OH213389   7.703   1.972   5.389
20974TIP3    H113390   7.748   2.042   5.340
20974TIP3    H213391   7.645   2.024   5.444
20975TIP3   OH213392   7.907   2.199   5.251
20975TIP3    H113393   7.946   2.134   5.192
20975TIP3    H213394   7.974   2.201   5.321
20976TIP3   OH213395   7.869   3.647   5.187
20976TIP3    H113396   7.849   3.679   5.275
20976TIP3    H213397   7.956   3.603   5.197
20977TIP3   OH213398   1.058   4.562   5.250
20977TIP3    H113399   1.128   4.571   5.318
20977TIP3    H213400   1.097   4.496   5.194
20978TIP3   OH213401   1.660   3.833   5.409
20978TIP3    H113402   1.565   3.839   5.425
20978TIP3    H213403   1.675   3.913   5.357
20979TIP3   OH213404   1.760   5.258   5.291
20979TIP3    H113405   1.772   5.354   5.280
20979TIP3    H213406   1.848   5.228   5.261
20980TIP3   OH213407   1.315   5.538   5.308
20980TIP3    H113408   1.357   5.465   5.260
20980TIP3    H213409   1.321   5.508   5.399
20981TIP3   OH213410   1.428   4.743   5.192
20981TIP3    H113411   1.430   4.746   5.096
20981TIP3    H213412   1.512   4.792   5.198
20982TIP3   OH213413   0.986   4.150   5.248
20982TIP3    H113414   0.962   4.145   5.341
20982TIP3    H213415   0.967   4.060   5.218
20983TIP3   OH213416   0.536   4.468   5.301
20983TIP3    H113417   0.485   4.425   5.230
20983TIP3    H213418   0.620   4.488   5.260
20984TIP3   OH213419   1.261   4.211   5.292
20984TIP3    H113420   1.164   4.211   5.298
20984TIP3    H213421   1.292   4.283   5.350
20985TIP3   OH213422   1.332   4.401   5.476
20985TIP3    H113423   1.423   4.378   5.502
20985TIP3    H213424   1.347   4.475   5.418
20986TIP3   OH213425   0.195   4.690   5.259
20986TIP3    H113426   0.258   4.746   5.307
20986TIP3    H213427   0.111   4.722   5.294
20987TIP3   OH213428   1.390   5.089   5.271
20987TIP3    H113429   1.428   5.057   5.354
20987TIP3    H213430   1.296   5.077   5.286
20988TIP3   OH213431   1.836   5.535   5.289
20988TIP3    H113432   1.916   5.589   5.287
20988TIP3    H213433   1.770   5.597   5.323
20989TIP3   OH213434   0.398   5.142   5.303
20989TIP3    H113435   0.461   5.207   5.337
20989TIP3    H213436   0.450   5.101   5.234
20990TIP3   OH213437   0.233   4.414   5.210
20990TIP3    H113438   0.227   4.507   5.236
20990TIP3    H213439   0.145   4.384   5.188
20991TIP3   OH213440   0.789   4.599   5.212
20991TIP3    H113441   0.768   4.612   5.119
20991TIP3    H213442   0.887   4.604   5.218
20992TIP3   OH213443   0.770   5.658   5.311
20992TIP3    H113444   0.866   5.661   5.309
20992TIP3    H213445   0.748   5.711   5.234
20993TIP3   OH213446   0.131   5.102   5.257
20993TIP3    H113447   0.224   5.125   5.273
20993TIP3    H213448   0.134   5.050   5.177
20994TIP3   OH213449   1.666   4.423   5.218
20994TIP3    H113450   1.671   4.487   5.147
20994TIP3    H213451   1.654   4.339   5.171
20995TIP3   OH213452   1.806   4.047   5.287
20995TIP3    H113453   1.845   3.979   5.230
20995TIP3    H213454   1.872   4.116   5.290
20996TIP3   OH213455   0.165   3.858   5.394
20996TIP3    H113456   0.203   3.925   5.336
20996TIP3    H213457   0.096   3.905   5.440
20997TIP3   OH213458   0.366   4.083   5.252
20997TIP3    H113459   0.401   4.020   5.189
20997TIP3    H213460   0.429   4.083   5.323
20998TIP3   OH213461   0.333   5.539   5.188
20998TIP3    H113462   0.299   5.559   5.275
20998TIP3    H213463   0.412   5.484   5.200
20999TIP3   OH213464   2.946   4.566   5.253
20999TIP3    H113465   3.017   4.569   5.319
20999TIP3    H213466   2.977   4.497   5.194
21000TIP3   OH213467   3.545   3.831   5.408
21000TIP3    H113468   3.450   3.841   5.426
21000TIP3    H213469   3.561   3.913   5.357
21001TIP3   OH213470   3.645   5.258   5.291
21001TIP3    H113471   3.658   5.355   5.280
21001TIP3    H213472   3.733   5.228   5.261
21002TIP3   OH213473   3.201   5.538   5.308
21002TIP3    H113474   3.242   5.465   5.260
21002TIP3    H213475   3.206   5.509   5.400
21003TIP3   OH213476   3.312   4.743   5.189
21003TIP3    H113477   3.316   4.747   5.093
21003TIP3    H213478   3.397   4.791   5.199
21004TIP3   OH213479   2.878   4.146   5.250
21004TIP3    H113480   2.845   4.146   5.340
21004TIP3    H213481   2.850   4.061   5.217
21005TIP3   OH213482   2.421   4.470   5.301
21005TIP3    H113483   2.375   4.425   5.229
21005TIP3    H213484   2.506   4.485   5.257
21006TIP3   OH213485   3.146   4.209   5.293
21006TIP3    H113486   3.049   4.211   5.297
21006TIP3    H213487   3.177   4.283   5.350
21007TIP3   OH213488   3.216   4.399   5.473
21007TIP3    H113489   3.306   4.379   5.503
21007TIP3    H213490   3.233   4.476   5.420
21008TIP3   OH213491   2.081   4.697   5.255
21008TIP3    H113492   2.145   4.746   5.309
21008TIP3    H213493   1.998   4.725   5.295
21009TIP3   OH213494   3.276   5.089   5.272
21009TIP3    H113495   3.313   5.055   5.355
21009TIP3    H213496   3.182   5.077   5.286
21010TIP3   OH213497   3.722   5.535   5.289
21010TIP3    H113498   3.802   5.589   5.287
21010TIP3    H213499   3.655   5.597   5.323
21011TIP3   OH213500   2.286   5.142   5.306
21011TIP3    H113501   2.350   5.209   5.337
21011TIP3    H213502   2.335   5.102   5.235
21012TIP3   OH213503   2.117   4.414   5.213
21012TIP3    H113504   2.111   4.508   5.237
21012TIP3    H213505   2.028   4.388   5.190
21013TIP3   OH213506   2.669   4.584   5.201
21013TIP3    H113507   2.651   4.567   5.106
21013TIP3    H213508   2.765   4.593   5.206
21014TIP3   OH213509   2.657   5.656   5.310
21014TIP3    H113510   2.752   5.662   5.309
21014TIP3    H213511   2.631   5.711   5.236
21015TIP3   OH213512   2.018   5.112   5.255
21015TIP3    H113513   2.112   5.122   5.275
21015TIP3    H213514   2.014   5.048   5.184
21016TIP3   OH213515   3.552   4.422   5.219
21016TIP3    H113516   3.556   4.488   5.150
21016TIP3    H213517   3.540   4.338   5.170
21017TIP3   OH213518   3.692   4.046   5.287
21017TIP3    H113519   3.731   3.979   5.230
21017TIP3    H213520   3.758   4.116   5.290
21018TIP3   OH213521   2.052   3.858   5.392
21018TIP3    H113522   2.092   3.928   5.339
21018TIP3    H213523   1.987   3.908   5.442
21019TIP3   OH213524   2.253   4.080   5.253
21019TIP3    H113525   2.289   4.019   5.189
21019TIP3    H213526   2.319   4.087   5.321
21020TIP3   OH213527   2.217   5.531   5.187
21020TIP3    H113528   2.190   5.565   5.273
21020TIP3    H213529   2.301   5.486   5.201
21021TIP3   OH213530   4.832   4.566   5.253
21021TIP3    H113531   4.902   4.569   5.319
21021TIP3    H213532   4.863   4.497   5.194
21022TIP3   OH213533   5.431   3.833   5.409
21022TIP3    H113534   5.336   3.839   5.425
21022TIP3    H213535   5.446   3.913   5.357
21023TIP3   OH213536   5.531   5.258   5.291
21023TIP3    H113537   5.544   5.354   5.280
21023TIP3    H213538   5.619   5.228   5.261
21024TIP3   OH213539   5.087   5.538   5.308
21024TIP3    H113540   5.128   5.465   5.260
21024TIP3    H213541   5.092   5.508   5.399
21025TIP3   OH213542   5.199   4.743   5.192
21025TIP3    H113543   5.200   4.746   5.095
21025TIP3    H213544   5.283   4.792   5.198
21026TIP3   OH213545   4.764   4.146   5.250
21026TIP3    H113546   4.731   4.147   5.340
21026TIP3    H213547   4.735   4.060   5.218
21027TIP3   OH213548   4.306   4.471   5.302
21027TIP3    H113549   4.260   4.424   5.229
21027TIP3    H213550   4.391   4.486   5.258
21028TIP3   OH213551   5.032   4.210   5.293
21028TIP3    H113552   4.935   4.211   5.297
21028TIP3    H213553   5.063   4.283   5.350
21029TIP3   OH213554   5.103   4.401   5.476
21029TIP3    H113555   5.194   4.378   5.502
21029TIP3    H213556   5.118   4.475   5.418
21030TIP3   OH213557   3.966   4.698   5.254
21030TIP3    H113558   4.030   4.746   5.309
21030TIP3    H213559   3.883   4.725   5.297
21031TIP3   OH213560   5.161   5.089   5.271
21031TIP3    H113561   5.199   5.057   5.354
21031TIP3    H213562   5.067   5.077   5.286
21032TIP3   OH213563   5.608   5.535   5.289
21032TIP3    H113564   5.688   5.589   5.287
21032TIP3    H213565   5.541   5.597   5.323
21033TIP3   OH213566   4.172   5.142   5.306
21033TIP3    H113567   4.235   5.209   5.337
21033TIP3    H213568   4.221   5.102   5.235
21034TIP3   OH213569   4.003   4.414   5.213
21034TIP3    H113570   3.997   4.508   5.237
21034TIP3    H213571   3.914   4.388   5.190
21035TIP3   OH213572   4.554   4.584   5.201
21035TIP3    H113573   4.537   4.567   5.106
21035TIP3    H213574   4.650   4.593   5.206
21036TIP3   OH213575   4.543   5.656   5.310
21036TIP3    H113576   4.638   5.663   5.309
21036TIP3    H213577   4.517   5.712   5.237
21037TIP3   OH213578   3.903   5.111   5.256
21037TIP3    H113579   3.998   5.122   5.275
21037TIP3    H213580   3.900   5.048   5.185
21038TIP3   OH213581   5.439   4.422   5.218
21038TIP3    H113582   5.441   4.487   5.149
21038TIP3    H213583   5.425   4.338   5.171
21039TIP3   OH213584   5.577   4.046   5.287
21039TIP3    H113585   5.616   3.979   5.230
21039TIP3    H213586   5.642   4.116   5.288
21040TIP3   OH213587   3.937   3.859   5.392
21040TIP3    H113588   3.978   3.928   5.339
21040TIP3    H213589   3.872   3.910   5.442
21041TIP3   OH213590   4.138   4.080   5.254
21041TIP3    H113591   4.175   4.019   5.189
21041TIP3    H213592   4.204   4.087   5.321
21042TIP3   OH213593   4.102   5.531   5.187
21042TIP3    H113594   4.075   5.565   5.273
21042TIP3    H213595   4.186   5.486   5.201
21043TIP3   OH213596   6.718   4.565   5.252
21043TIP3    H113597   6.788   4.569   5.319
21043TIP3    H213598   6.750   4.496   5.193
21044TIP3   OH213599   7.317   3.831   5.402
21044TIP3    H113600   7.223   3.837   5.427
21044TIP3    H213601   7.330   3.917   5.360
21045TIP3   OH213602   7.408   5.266   5.279
21045TIP3    H113603   7.426   5.361   5.277
21045TIP3    H213604   7.498   5.229   5.266
21046TIP3   OH213605   6.932   5.525   5.321
21046TIP3    H113606   7.005   5.486   5.265
21046TIP3    H213607   6.978   5.512   5.404
21047TIP3   OH213608   7.084   4.745   5.192
21047TIP3    H113609   7.087   4.745   5.096
21047TIP3    H213610   7.169   4.794   5.199
21048TIP3   OH213611   6.649   4.146   5.250
21048TIP3    H113612   6.616   4.146   5.340
21048TIP3    H213613   6.621   4.061   5.217
21049TIP3   OH213614   6.191   4.465   5.305
21049TIP3    H113615   6.147   4.426   5.228
21049TIP3    H213616   6.276   4.486   5.259
21050TIP3   OH213617   6.918   4.204   5.304
21050TIP3    H113618   6.822   4.212   5.293
21050TIP3    H213619   6.948   4.285   5.349
21051TIP3   OH213620   6.989   4.402   5.476
21051TIP3    H113621   7.080   4.379   5.502
21051TIP3    H213622   7.004   4.475   5.418
21052TIP3   OH213623   5.852   4.693   5.260
21052TIP3    H113624   5.915   4.748   5.308
21052TIP3    H213625   5.769   4.726   5.294
21053TIP3   OH213626   7.043   5.083   5.269
21053TIP3    H113627   7.087   5.061   5.353
21053TIP3    H213628   6.951   5.079   5.289
21054TIP3   OH213629   7.504   5.537   5.295
21054TIP3    H113630   7.575   5.598   5.287
21054TIP3    H213631   7.424   5.590   5.318
21055TIP3   OH213632   6.057   5.142   5.306
21055TIP3    H113633   6.121   5.209   5.336
21055TIP3    H213634   6.106   5.102   5.235
21056TIP3   OH213635   5.887   4.413   5.219
21056TIP3    H113636   5.882   4.509   5.234
21056TIP3    H213637   5.801   4.388   5.187
21057TIP3   OH213638   6.440   4.585   5.201
21057TIP3    H113639   6.423   4.567   5.106
21057TIP3    H213640   6.537   4.592   5.206
21058TIP3   OH213641   6.428   5.658   5.314
21058TIP3    H113642   6.524   5.661   5.307
21058TIP3    H213643   6.404   5.713   5.236
21059TIP3   OH213644   5.789   5.112   5.255
21059TIP3    H113645   5.883   5.122   5.275
21059TIP3    H213646   5.786   5.048   5.184
21060TIP3   OH213647   7.325   4.423   5.219
21060TIP3    H113648   7.325   4.486   5.147
21060TIP3    H213649   7.310   4.340   5.171
21061TIP3   OH213650   7.461   4.048   5.282
21061TIP3    H113651   7.506   3.981   5.231
21061TIP3    H213652   7.528   4.117   5.292
21062TIP3   OH213653   5.825   3.860   5.393
21062TIP3    H113654   5.862   3.928   5.337
21062TIP3    H213655   5.756   3.907   5.441
21063TIP3   OH213656   6.024   4.080   5.254
21063TIP3    H113657   6.058   4.019   5.188
21063TIP3    H213658   6.092   4.083   5.319
21064TIP3   OH213659   5.988   5.531   5.187
21064TIP3    H113660   5.961   5.565   5.273
21064TIP3    H213661   6.073   5.488   5.201
21065TIP3   OH213662   8.082   4.469   5.296
21065TIP3    H113663   8.026   4.426   5.230
21065TIP3    H213664   8.164   4.484   5.252
21066TIP3   OH213665   7.739   4.695   5.257
21066TIP3    H113666   7.801   4.748   5.309
21066TIP3    H213667   7.655   4.727   5.294
21067TIP3   OH213668  -0.026   4.099   5.403
21067TIP3    H113669  -0.036   4.190   5.432
21067TIP3    H213670   0.065   4.079   5.423
21068TIP3   OH213671   7.945   5.139   5.306
21068TIP3    H113672   8.006   5.209   5.333
21068TIP3    H213673   7.994   5.102   5.234
21069TIP3   OH213674   7.777   4.413   5.218
21069TIP3    H113675   7.767   4.508   5.236
21069TIP3    H213676   7.689   4.386   5.191
21070TIP3   OH213677   7.682   5.126   5.231
21070TIP3    H113678   7.767   5.119   5.277
21070TIP3    H213679   7.667   5.042   5.188
21071TIP3   OH213680   7.697   3.857   5.382
21071TIP3    H113681   7.751   3.928   5.343
21071TIP3    H213682   7.647   3.909   5.446
21072TIP3   OH213683   7.906   4.082   5.251
21072TIP3    H113684   7.949   4.020   5.192
21072TIP3    H213685   7.973   4.087   5.321
21073TIP3   OH213686   7.873   5.534   5.187
21073TIP3    H113687   7.846   5.566   5.273
21073TIP3    H213688   7.957   5.487   5.200
21074TIP3   OH213689   1.061   6.451   5.253
21074TIP3    H113690   1.131   6.455   5.319
21074TIP3    H213691   1.092   6.382   5.194
21075TIP3   OH213692   1.660   5.719   5.409
21075TIP3    H113693   1.564   5.724   5.425
21075TIP3    H213694   1.675   5.799   5.357
21076TIP3   OH213695   1.760   7.144   5.291
21076TIP3    H113696   1.772   7.240   5.280
21076TIP3    H213697   1.848   7.114   5.261
21077TIP3   OH213698   1.315   7.423   5.308
21077TIP3    H113699   1.357   7.351   5.260
21077TIP3    H213700   1.321   7.394   5.399
21078TIP3   OH213701   1.428   6.629   5.192
21078TIP3    H113702   1.429   6.631   5.095
21078TIP3    H213703   1.512   6.677   5.198
21079TIP3   OH213704   0.992   6.032   5.250
21079TIP3    H113705   0.959   6.032   5.340
21079TIP3    H213706   0.964   5.946   5.217
21080TIP3   OH213707   0.536   6.356   5.301
21080TIP3    H113708   0.489   6.313   5.228
21080TIP3    H213709   0.621   6.371   5.257
21081TIP3   OH213710   1.261   6.095   5.293
21081TIP3    H113711   1.164   6.097   5.297
21081TIP3    H213712   1.292   6.169   5.350
21082TIP3   OH213713   1.332   6.286   5.476
21082TIP3    H113714   1.423   6.264   5.502
21082TIP3    H213715   1.347   6.360   5.418
21083TIP3   OH213716   0.195   6.574   5.259
21083TIP3    H113717   0.258   6.631   5.307
21083TIP3    H213718   0.112   6.607   5.293
21084TIP3   OH213719   1.390   6.974   5.271
21084TIP3    H113720   1.428   6.943   5.354
21084TIP3    H213721   1.296   6.963   5.286
21085TIP3   OH213722   1.838   7.423   5.290
21085TIP3    H113723   1.917   7.478   5.288
21085TIP3    H213724   1.770   7.485   5.324
21086TIP3   OH213725   0.397   7.027   5.304
21086TIP3    H113726   0.459   7.095   5.337
21086TIP3    H213727   0.449   6.987   5.234
21087TIP3   OH213728   0.231   6.296   5.213
21087TIP3    H113729   0.229   6.391   5.235
21087TIP3    H213730   0.143   6.271   5.186
21088TIP3   OH213731   0.783   6.469   5.201
21088TIP3    H113732   0.766   6.453   5.106
21088TIP3    H213733   0.879   6.479   5.206
21089TIP3   OH213734   0.771   7.542   5.310
21089TIP3    H113735   0.867   7.548   5.309
21089TIP3    H213736   0.746   7.599   5.236
21090TIP3   OH213737   0.129   6.985   5.258
21090TIP3    H113738   0.222   7.011   5.274
21090TIP3    H213739   0.136   6.937   5.175
21091TIP3   OH213740   1.666   6.308   5.219
21091TIP3    H113741   1.670   6.373   5.149
21091TIP3    H213742   1.654   6.224   5.171
21092TIP3   OH213743   1.806   5.932   5.287
21092TIP3    H113744   1.845   5.865   5.230
21092TIP3    H213745   1.872   6.001   5.290
21093TIP3   OH213746   0.162   5.746   5.394
21093TIP3    H113747   0.182   5.810   5.325
21093TIP3    H213748   0.087   5.788   5.440
21094TIP3   OH213749   0.364   5.946   5.270
21094TIP3    H113750   0.401   5.914   5.185
21094TIP3    H213751   0.439   5.986   5.312
21095TIP3   OH213752   0.328   7.416   5.188
21095TIP3    H113753   0.302   7.454   5.273
21095TIP3    H213754   0.413   7.373   5.203
21096TIP3   OH213755   2.946   6.452   5.252
21096TIP3    H113756   3.015   6.453   5.321
21096TIP3    H213757   2.977   6.383   5.194
21097TIP3   OH213758   3.545   5.719   5.409
21097TIP3    H113759   3.450   5.724   5.425
21097TIP3    H213760   3.561   5.799   5.357
21098TIP3   OH213761   3.646   7.149   5.284
21098TIP3    H113762   3.660   7.245   5.282
21098TIP3    H213763   3.734   7.115   5.263
21099TIP3   OH213764   3.195   7.420   5.307
21099TIP3    H113765   3.245   7.351   5.262
21099TIP3    H213766   3.210   7.398   5.400
21100TIP3   OH213767   3.313   6.627   5.190
21100TIP3    H113768   3.316   6.632   5.094
21100TIP3    H213769   3.395   6.679   5.200
21101TIP3   OH213770   2.877   6.031   5.248
21101TIP3    H113771   2.847   6.035   5.340
21101TIP3    H213772   2.849   5.944   5.219
21102TIP3   OH213773   2.418   6.358   5.299
21102TIP3    H113774   2.374   6.310   5.228
21102TIP3    H213775   2.506   6.370   5.259
21103TIP3   OH213776   3.147   6.098   5.289
21103TIP3    H113777   3.050   6.097   5.300
21103TIP3    H213778   3.176   6.168   5.352
21104TIP3   OH213779   3.220   6.285   5.476
21104TIP3    H113780   3.311   6.265   5.503
21104TIP3    H213781   3.231   6.361   5.420
21105TIP3   OH213782   2.080   6.582   5.255
21105TIP3    H113783   2.145   6.631   5.309
21105TIP3    H213784   1.998   6.611   5.295
21106TIP3   OH213785   3.246   6.971   5.247
21106TIP3    H113786   3.306   6.949   5.324
21106TIP3    H213787   3.162   6.964   5.290
21107TIP3   OH213788   3.728   7.421   5.286
21107TIP3    H113789   3.804   7.479   5.288
21107TIP3    H213790   3.657   7.480   5.322
21108TIP3   OH213791   2.286   7.028   5.306
21108TIP3    H113792   2.350   7.094   5.337
21108TIP3    H213793   2.335   6.987   5.235
21109TIP3   OH213794   2.117   6.300   5.213
21109TIP3    H113795   2.111   6.394   5.237
21109TIP3    H213796   2.028   6.274   5.190
21110TIP3   OH213797   2.668   6.473   5.200
21110TIP3    H113798   2.653   6.452   5.106
21110TIP3    H213799   2.765   6.477   5.207
21111TIP3   OH213800   2.657   7.541   5.309
21111TIP3    H113801   2.753   7.548   5.309
21111TIP3    H213802   2.633   7.597   5.235
21112TIP3   OH213803   2.018   6.998   5.255
21112TIP3    H113804   2.112   7.008   5.275
21112TIP3    H213805   2.014   6.934   5.184
21113TIP3   OH213806   3.552   6.308   5.219
21113TIP3    H113807   3.554   6.373   5.148
21113TIP3    H213808   3.539   6.225   5.172
21114TIP3   OH213809   3.692   5.932   5.287
21114TIP3    H113810   3.731   5.865   5.230
21114TIP3    H213811   3.758   6.001   5.290
21115TIP3   OH213812   2.052   5.744   5.392
21115TIP3    H113813   2.092   5.813   5.339
21115TIP3    H213814   1.987   5.794   5.442
21116TIP3   OH213815   2.253   5.966   5.253
21116TIP3    H113816   2.289   5.905   5.189
21116TIP3    H213817   2.318   5.972   5.321
21117TIP3   OH213818   2.216   7.418   5.187
21117TIP3    H113819   2.189   7.452   5.273
21117TIP3    H213820   2.300   7.372   5.201
21118TIP3   OH213821   4.832   6.451   5.253
21118TIP3    H113822   4.902   6.455   5.319
21118TIP3    H213823   4.863   6.382   5.194
21119TIP3   OH213824   5.431   5.719   5.409
21119TIP3    H113825   5.336   5.724   5.425
21119TIP3    H213826   5.447   5.799   5.357
21120TIP3   OH213827   5.531   7.144   5.291
21120TIP3    H113828   5.544   7.240   5.280
21120TIP3    H213829   5.619   7.114   5.261
21121TIP3   OH213830   5.086   7.423   5.308
21121TIP3    H113831   5.128   7.351   5.260
21121TIP3    H213832   5.092   7.394   5.399
21122TIP3   OH213833   5.199   6.629   5.192
21122TIP3    H113834   5.200   6.631   5.095
21122TIP3    H213835   5.283   6.677   5.198
21123TIP3   OH213836   4.764   6.032   5.250
21123TIP3    H113837   4.731   6.032   5.340
21123TIP3    H213838   4.735   5.946   5.217
21124TIP3   OH213839   4.306   6.356   5.301
21124TIP3    H113840   4.260   6.310   5.229
21124TIP3    H213841   4.392   6.371   5.258
21125TIP3   OH213842   5.032   6.095   5.293
21125TIP3    H113843   4.935   6.097   5.297
21125TIP3    H213844   5.063   6.169   5.350
21126TIP3   OH213845   5.104   6.286   5.476
21126TIP3    H113846   5.195   6.264   5.502
21126TIP3    H213847   5.118   6.360   5.418
21127TIP3   OH213848   3.965   6.583   5.256
21127TIP3    H113849   4.030   6.632   5.309
21127TIP3    H213850   3.882   6.612   5.296
21128TIP3   OH213851   5.161   6.974   5.271
21128TIP3    H113852   5.199   6.943   5.354
21128TIP3    H213853   5.067   6.963   5.286
21129TIP3   OH213854   5.609   7.423   5.290
21129TIP3    H113855   5.688   7.477   5.288
21129TIP3    H213856   5.541   7.485   5.324
21130TIP3   OH213857   4.172   7.027   5.306
21130TIP3    H113858   4.236   7.094   5.336
21130TIP3    H213859   4.221   6.987   5.234
21131TIP3   OH213860   4.003   6.300   5.213
21131TIP3    H113861   3.996   6.394   5.237
21131TIP3    H213862   3.914   6.274   5.190
21132TIP3   OH213863   4.554   6.470   5.201
21132TIP3    H113864   4.537   6.453   5.106
21132TIP3    H213865   4.650   6.479   5.206
21133TIP3   OH213866   4.542   7.542   5.310
21133TIP3    H113867   4.638   7.548   5.309
21133TIP3    H213868   4.518   7.599   5.236
21134TIP3   OH213869   3.905   7.000   5.254
21134TIP3    H113870   3.999   7.007   5.274
21134TIP3    H213871   3.897   6.933   5.186
21135TIP3   OH213872   5.437   6.308   5.219
21135TIP3    H113873   5.441   6.373   5.149
21135TIP3    H213874   5.425   6.224   5.171
21136TIP3   OH213875   5.578   5.932   5.287
21136TIP3    H113876   5.616   5.865   5.230
21136TIP3    H213877   5.644   6.001   5.290
21137TIP3   OH213878   3.937   5.744   5.392
21137TIP3    H113879   3.978   5.813   5.339
21137TIP3    H213880   3.872   5.794   5.442
21138TIP3   OH213881   4.138   5.966   5.253
21138TIP3    H113882   4.175   5.905   5.189
21138TIP3    H213883   4.204   5.972   5.321
21139TIP3   OH213884   4.102   7.417   5.188
21139TIP3    H113885   4.073   7.451   5.274
21139TIP3    H213886   4.186   7.372   5.202
21140TIP3   OH213887   6.720   6.454   5.250
21140TIP3    H113888   6.787   6.452   5.320
21140TIP3    H213889   6.746   6.380   5.195
21141TIP3   OH213890   7.321   5.732   5.425
21141TIP3    H113891   7.224   5.718   5.420
21141TIP3    H213892   7.331   5.797   5.354
21142TIP3   OH213893   7.418   7.143   5.292
21142TIP3    H113894   7.427   7.240   5.280
21142TIP3    H213895   7.504   7.116   5.259
21143TIP3   OH213896   6.971   7.422   5.309
21143TIP3    H113897   7.016   7.352   5.261
21143TIP3    H213898   6.979   7.395   5.401
21144TIP3   OH213899   7.082   6.634   5.191
21144TIP3    H113900   7.089   6.627   5.095
21144TIP3    H213901   7.170   6.676   5.199
21145TIP3   OH213902   6.667   6.029   5.260
21145TIP3    H113903   6.613   6.031   5.339
21145TIP3    H213904   6.617   5.958   5.211
21146TIP3   OH213905   6.191   6.359   5.300
21146TIP3    H113906   6.148   6.308   5.229
21146TIP3    H213907   6.277   6.368   5.257
21147TIP3   OH213908   6.921   6.097   5.294
21147TIP3    H113909   6.823   6.095   5.295
21147TIP3    H213910   6.949   6.171   5.351
21148TIP3   OH213911   6.989   6.287   5.477
21148TIP3    H113912   7.080   6.263   5.501
21148TIP3    H213913   7.004   6.360   5.418
21149TIP3   OH213914   5.850   6.583   5.255
21149TIP3    H113915   5.915   6.632   5.308
21149TIP3    H213916   5.768   6.611   5.296
21150TIP3   OH213917   7.039   6.967   5.267
21150TIP3    H113918   7.088   6.947   5.349
21150TIP3    H213919   6.951   6.969   5.301
21151TIP3   OH213920   7.493   7.421   5.288
21151TIP3    H113921   7.573   7.476   5.286
21151TIP3    H213922   7.427   7.484   5.323
21152TIP3   OH213923   6.057   7.028   5.306
21152TIP3    H113924   6.121   7.094   5.336
21152TIP3    H213925   6.106   6.987   5.234
21153TIP3   OH213926   5.888   6.299   5.213
21153TIP3    H113927   5.882   6.394   5.236
21153TIP3    H213928   5.799   6.274   5.190
21154TIP3   OH213929   6.439   6.471   5.200
21154TIP3    H113930   6.422   6.451   5.106
21154TIP3    H213931   6.536   6.475   5.206
21155TIP3   OH213932   6.428   7.541   5.309
21155TIP3    H113933   6.524   7.548   5.309
21155TIP3    H213934   6.403   7.599   5.236
21156TIP3   OH213935   5.789   6.998   5.255
21156TIP3    H113936   5.883   7.008   5.275
21156TIP3    H213937   5.785   6.934   5.184
21157TIP3   OH213938   7.323   6.308   5.219
21157TIP3    H113939   7.327   6.373   5.149
21157TIP3    H213940   7.311   6.224   5.171
21158TIP3   OH213941   7.464   5.935   5.285
21158TIP3    H113942   7.500   5.864   5.231
21158TIP3    H213943   7.533   6.001   5.289
21159TIP3   OH213944   5.823   5.744   5.392
21159TIP3    H113945   5.864   5.814   5.339
21159TIP3    H213946   5.758   5.794   5.442
21160TIP3   OH213947   6.021   5.961   5.257
21160TIP3    H113948   6.062   5.907   5.189
21160TIP3    H213949   6.092   5.975   5.317
21161TIP3   OH213950   5.987   7.417   5.187
21161TIP3    H113951   5.961   7.452   5.273
21161TIP3    H213952   6.072   7.372   5.202
21162TIP3   OH213953   8.079   6.360   5.296
21162TIP3    H113954   8.026   6.313   5.230
21162TIP3    H213955   8.164   6.371   5.253
21163TIP3   OH213956   7.738   6.584   5.255
21163TIP3    H113957   7.805   6.628   5.307
21163TIP3    H213958   7.653   6.608   5.294
21164TIP3   OH213959  -0.025   5.984   5.403
21164TIP3    H113960  -0.037   6.076   5.432
21164TIP3    H213961   0.065   5.967   5.425
21165TIP3   OH213962   7.942   7.020   5.309
21165TIP3    H113963   8.003   7.093   5.332
21165TIP3    H213964   7.993   6.991   5.233
21166TIP3   OH213965   7.775   6.300   5.218
21166TIP3    H113966   7.767   6.395   5.236
21166TIP3    H213967   7.688   6.272   5.191
21167TIP3   OH213968   7.676   6.981   5.266
21167TIP3    H113969   7.767   7.016   5.267
21167TIP3    H213970   7.668   6.940   5.179
21168TIP3   OH213971   7.706   5.744   5.391
21168TIP3    H113972   7.748   5.814   5.340
21168TIP3    H213973   7.643   5.794   5.443
21169TIP3   OH213974   7.907   5.971   5.250
21169TIP3    H113975   7.946   5.905   5.193
21169TIP3    H213976   7.973   5.973   5.322
21170TIP3   OH213977   7.873   7.418   5.188
21170TIP3    H113978   7.846   7.452   5.274
21170TIP3    H213979   7.957   7.373   5.202
21171TIP3   OH213980   1.659   7.601   5.408
21171TIP3    H113981   1.565   7.613   5.426
21171TIP3    H213982   1.677   7.683   5.358
21172TIP3   OH213983   0.995   7.915   5.254
21172TIP3    H113984   0.956   7.917   5.341
21172TIP3    H213985   0.962   7.834   5.216
21173TIP3   OH213986   0.140   8.005   5.413
21173TIP3    H113987   0.180   8.062   5.345
21173TIP3    H213988   0.069   8.065   5.437
21174TIP3   OH213989   1.263   7.979   5.305
21174TIP3    H113990   1.166   7.985   5.294
21174TIP3    H213991   1.294   8.062   5.341
21175TIP3   OH213992   1.806   7.817   5.285
21175TIP3    H113993   1.848   7.752   5.229
21175TIP3    H213994   1.871   7.888   5.293
21176TIP3   OH213995   0.166   7.631   5.396
21176TIP3    H113996   0.201   7.698   5.337
21176TIP3    H213997   0.095   7.679   5.439
21177TIP3   OH213998   0.370   7.856   5.250
21177TIP3    H113999   0.401   7.792   5.187
21177TIP3    H214000   0.429   7.851   5.323
21178TIP3   OH214001   3.556   7.596   5.371
21178TIP3    H114002   3.469   7.604   5.419
21178TIP3    H214003   3.567   7.690   5.351
21179TIP3   OH214004   2.877   7.916   5.254
21179TIP3    H114005   2.843   7.915   5.342
21179TIP3    H214006   2.849   7.832   5.217
21180TIP3   OH214007   2.008   7.989   5.404
21180TIP3    H114008   2.053   8.058   5.352
21180TIP3    H214009   1.940   8.049   5.438
21181TIP3   OH214010   3.148   7.980   5.300
21181TIP3    H114011   3.051   7.985   5.296
21181TIP3    H214012   3.180   8.060   5.342
21182TIP3   OH214013   3.693   7.821   5.283
21182TIP3    H114014   3.733   7.752   5.230
21182TIP3    H214015   3.761   7.890   5.292
21183TIP3   OH214016   2.053   7.633   5.394
21183TIP3    H114017   2.090   7.701   5.337
21183TIP3    H214018   1.985   7.681   5.442
21184TIP3   OH214019   2.263   7.863   5.252
21184TIP3    H114020   2.282   7.792   5.188
21184TIP3    H214021   2.317   7.840   5.325
21185TIP3   OH214022   5.430   7.602   5.408
21185TIP3    H114023   5.336   7.613   5.426
21185TIP3    H214024   5.448   7.683   5.358
21186TIP3   OH214025   4.767   7.915   5.254
21186TIP3    H114026   4.727   7.917   5.341
21186TIP3    H214027   4.733   7.834   5.216
21187TIP3   OH214028   3.888   7.988   5.400
21187TIP3    H114029   3.943   8.055   5.356
21187TIP3    H214030   3.827   8.053   5.437
21188TIP3   OH214031   5.034   7.979   5.305
21188TIP3    H114032   4.937   7.986   5.294
21188TIP3    H214033   5.066   8.062   5.341
21189TIP3   OH214034   5.578   7.818   5.285
21189TIP3    H114035   5.620   7.752   5.230
21189TIP3    H214036   5.644   7.889   5.294
21190TIP3   OH214037   3.939   7.632   5.393
21190TIP3    H114038   3.978   7.702   5.339
21190TIP3    H214039   3.869   7.680   5.439
21191TIP3   OH214040   4.142   7.856   5.251
21191TIP3    H114041   4.173   7.790   5.189
21191TIP3    H214042   4.202   7.852   5.324
21192TIP3   OH214043   7.316   7.602   5.408
21192TIP3    H114044   7.221   7.613   5.426
21192TIP3    H214045   7.334   7.683   5.357
21193TIP3   OH214046   6.652   7.915   5.254
21193TIP3    H114047   6.613   7.917   5.341
21193TIP3    H214048   6.619   7.834   5.216
21194TIP3   OH214049   5.773   7.988   5.400
21194TIP3    H114050   5.829   8.055   5.357
21194TIP3    H214051   5.712   8.052   5.438
21195TIP3   OH214052   6.920   7.979   5.305
21195TIP3    H114053   6.823   7.986   5.294
21195TIP3    H214054   6.951   8.062   5.340
21196TIP3   OH214055   7.464   7.818   5.286
21196TIP3    H114056   7.505   7.752   5.230
21196TIP3    H214057   7.530   7.888   5.293
21197TIP3   OH214058   5.823   7.632   5.392
21197TIP3    H114059   5.863   7.702   5.339
21197TIP3    H214060   5.757   7.682   5.442
21198TIP3   OH214061   6.028   7.856   5.251
21198TIP3    H114062   6.059   7.790   5.189
21198TIP3    H214063   6.088   7.852   5.324
21199TIP3   OH214064   7.664   7.987   5.403
21199TIP3    H114065   7.718   8.054   5.355
21199TIP3    H214066   7.601   8.052   5.436
21200TIP3   OH214067  -0.043   7.844   5.421
21200TIP3    H114068  -0.045   7.942   5.422
21200TIP3    H214069   0.055   7.847   5.413
21201TIP3   OH214070   7.708   7.633   5.396
21201TIP3    H114071   7.747   7.701   5.337
21201TIP3    H214072   7.640   7.686   5.439
21202TIP3   OH214073   7.904   7.854   5.253
21202TIP3    H114074   7.945   7.796   5.189
21202TIP3    H214075   7.975   7.856   5.318
21203CLA    CLA14076   0.953   0.694   4.471
21204CLA    CLA14077   7.853   0.914   4.700
21205CLA    CLA14078   7.214   5.705   4.430
21206CLA    CLA14079   7.083   7.650   3.915
21207CLA    CLA14080   6.339   4.117   6.832
21208PMB     O114081  -0.688  -0.304  14.787
21208PMB     O214082  -0.426  -0.247  15.231
21208PMB     O314083  -0.557   0.276  15.042
21208PMB     O414084  -0.663   0.108  15.470
21208PMB     O514085  -0.731   0.185  14.665
21208PMB     O614086   0.052   0.372  14.713
21208PMB     O714087  -0.166   0.189  15.421
21208PMB     O814088  -0.441   0.807  15.118
21208PMB     O914089  -0.299   0.347  14.844
21208PMB    O1014090  -0.174  -0.018  14.592
21208PMB    O1114091  -0.269   0.648  15.473
21208PMB    O1214092  -0.532   0.700  15.678
21208PMB    O1314093  -0.650   0.526  15.163
21208PMB     N114094  -0.624  -0.278  15.131
21208PMB     N214095  -0.624  -0.103  14.859
21208PMB     N314096  -0.610  -0.108  15.442
21208PMB     N414097  -0.552   0.179  15.239
21208PMB     N514098  -0.276   0.158  15.235
21208PMB     N614099  -0.517   0.164  14.726
21208PMB     N714100  -0.189   0.470  15.375
21208PMB     N814101  -0.229   0.288  14.639
21208PMB     N914102  -0.218   0.005  14.805
21208PMB    N1014103  -0.433   0.531  15.198
21208PMB    N1114104  -0.552   0.593  15.487
21208PMB    N1214105  -1.062  -0.036  14.795
21208PMB    N1314106  -0.929   0.046  15.311
21208PMB    N1414107   0.228   0.492  15.264
21208PMB    N1514108  -0.625   0.653  14.754
21208PMB    N1614109  -0.951   0.344  15.409
21208PMB     C114110  -0.575  -0.316  14.998
21208PMB     C214111  -0.617  -0.465  14.982
21208PMB     C314112  -0.553  -0.564  15.083
21208PMB     C414113  -0.294   0.033  15.823
21208PMB     C514114  -0.287   0.175  15.764
21208PMB     C614115  -0.618  -0.240  15.378
21208PMB     C714116  -0.673  -0.038  14.734
21208PMB     C814117  -0.344   0.183  15.108
21208PMB     C914118  -0.632  -0.239  14.876
21208PMB    C1014119  -0.421   0.249  15.758
21208PMB    C1114120  -0.608   0.047  15.249
21208PMB    C1214121  -0.337   0.060  15.015
21208PMB    C1314122  -0.548  -0.259  15.242
21208PMB    C1414123  -0.404   0.391  15.702
21208PMB    C1514124  -0.152  -0.028  15.837
21208PMB    C1614125  -0.564  -0.340  15.485
21208PMB    C1714126  -0.614  -0.704  15.068
21208PMB    C1814127  -0.400  -0.570  15.066
21208PMB    C1914128  -0.828  -0.059  14.710
21208PMB    C2014129  -0.145   0.375  15.273
21208PMB    C2114130  -0.474   0.300  14.686
21208PMB    C2214131  -0.733   0.016  15.158
21208PMB    C2314132  -0.491   0.217  15.128
21208PMB    C2414133  -0.627   0.016  15.394
21208PMB    C2514134  -0.202   0.047  14.942
21208PMB    C2614135  -0.641   0.112  14.707
21208PMB    C2714136  -0.116   0.199  14.671
21208PMB    C2814137  -0.385  -0.060  15.741
21208PMB    C2914138  -0.539   0.464  15.701
21208PMB    C3014139  -0.332   0.628  15.242
21208PMB    C3114140  -0.198   0.236  15.312
21208PMB    C3214141  -0.588   0.487  15.396
21208PMB    C3314142   0.012   0.369  15.277
21208PMB    C3414143  -0.560   0.416  14.747
21208PMB    C3514144  -0.327   0.316  14.728
21208PMB    C3614145  -0.007   0.254  14.766
21208PMB    C3714146  -0.918  -0.005  14.823
21208PMB    C3814147  -0.631  -0.475  15.485
21208PMB    C3914148  -0.168   0.056  14.691
21208PMB    C4014149  -0.261   0.583  15.368
21208PMB    C4114150  -0.389   0.772  15.246
21208PMB    C4214151  -0.056   0.054  15.925
21208PMB    C4314152  -0.871   0.081  15.178
21208PMB    C4414153  -0.540   0.591  15.620
21208PMB    C4514154  -0.737   0.456  15.432
21208PMB    C4614155  -0.559   0.520  15.247
21208PMB    C4714156   0.079   0.505  15.252
21208PMB    C4814157  -0.533   0.555  14.688
21208PMB    C4914158   0.109   0.155  14.789
21208PMB    C5014159  -0.825   0.380  15.336
21208PMB    C5114160  -0.289   0.883  15.283
21208PMB    C5214161  -0.560  -0.588  15.441
21208PMB    C5314162  -0.759  -0.492  15.541
21208PMB    C5414163  -0.617  -0.715  15.448
21208PMB    C5514164  -0.816  -0.620  15.550
21208PMB    C5614165  -0.745  -0.731  15.503
21208PMB     H114166  -0.464  -0.307  14.993
21208PMB     H214167  -0.592  -0.503  14.881
21208PMB     H314168  -0.727  -0.473  14.995
21208PMB     H414169  -0.575  -0.530  15.186
21208PMB     H514170  -0.337   0.041  15.926
21208PMB     H614171  -0.244   0.169  15.661
21208PMB     H714172  -0.219   0.238  15.825
21208PMB     H814173  -0.727  -0.261  15.364
21208PMB     H914174  -0.623  -0.091  14.650
21208PMB    H1014175  -0.298   0.270  15.059
21208PMB    H1114176  -0.722  -0.295  15.141
21208PMB    H1214177  -0.464   0.254  15.860
21208PMB    H1314178  -0.492   0.193  15.694
21208PMB    H1414179  -0.525  -0.018  15.216
21208PMB    H1514180  -0.414   0.069  14.936
21208PMB    H1614181  -0.358  -0.034  15.071
21208PMB    H1714182  -0.573  -0.048  14.924
21208PMB    H1814183  -0.360   0.383  15.600
21208PMB    H1914184  -0.332   0.448  15.766
21208PMB    H2014185  -0.108  -0.038  15.735
21208PMB    H2114186  -0.161  -0.130  15.879
21208PMB    H2214187  -0.580  -0.299  15.587
21208PMB    H2314188  -0.454  -0.353  15.474
21208PMB    H2414189  -0.599  -0.743  14.965
21208PMB    H2514190  -0.723  -0.702  15.090
21208PMB    H2614191  -0.566  -0.775  15.139
21208PMB    H2714192  -0.354  -0.472  15.086
21208PMB    H2814193  -0.374  -0.602  14.963
21208PMB    H2914194  -0.356  -0.643  15.137
21208PMB    H3014195  -0.179   0.404  15.172
21208PMB    H3114196  -0.849  -0.168  14.700
21208PMB    H3214197  -0.858  -0.015  14.613
21208PMB    H3314198  -0.479   0.306  14.575
21208PMB    H3414199  -0.600  -0.114  15.542
21208PMB    H3514200  -0.758  -0.091  15.166
21208PMB    H3614201  -0.702   0.037  15.054
21208PMB    H3714202  -0.150   0.143  14.951
21208PMB    H3814203  -0.140  -0.029  14.996
21208PMB    H3914204  -0.599   0.250  15.291
21208PMB    H4014205  -0.291   0.068  15.274
21208PMB    H4114206  -0.062   0.190  14.573
21208PMB    H4214207  -0.346  -0.069  15.637
21208PMB    H4314208  -0.488  -0.022  15.738
21208PMB    H4414209  -0.387  -0.162  15.786
21208PMB    H4514210  -0.565   0.491  15.806
21208PMB    H4614211  -0.615   0.392  15.669
21208PMB    H4714212  -0.254   0.630  15.163
21208PMB    H4814213  -0.443   0.105  14.757
21208PMB    H4914214  -0.524   0.398  15.420
21208PMB    H5014215   0.047   0.294  15.202
21208PMB    H5114216   0.043   0.333  15.378
21208PMB    H5214217  -0.543   0.420  14.857
21208PMB    H5314218  -0.667   0.394  14.731
21208PMB    H5414219  -0.160   0.448  15.467
21208PMB    H5514220  -0.050   0.286  14.862
21208PMB    H5614221  -0.248   0.293  14.541
21208PMB    H5714222  -0.252  -0.088  14.792
21208PMB    H5814223  -0.891  -0.053  14.918
21208PMB    H5914224  -0.908   0.105  14.833
21208PMB    H6014225  -0.473   0.778  15.319
21208PMB    H6114226  -0.104   0.076  16.024
21208PMB    H6214227  -0.030   0.150  15.877
21208PMB    H6314228   0.038  -0.002  15.943
21208PMB    H6414229  -0.870   0.188  15.160
21208PMB    H6514230  -0.942   0.041  15.103
21208PMB    H6614231  -0.787   0.553  15.457
21208PMB    H6714232  -0.735   0.394  15.524
21208PMB    H6814233  -0.433   0.527  15.098
21208PMB    H6914234  -0.548   0.686  15.452
21208PMB    H7014235   0.057   0.543  15.151
21208PMB    H7114236   0.047   0.581  15.325
21208PMB    H7214237  -0.429   0.589  14.706
21208PMB    H7314238  -0.553   0.558  14.579
21208PMB    H7414239   0.184   0.199  14.858
21208PMB    H7514240   0.161   0.130  14.694
21208PMB    H7614241   0.073   0.060  14.835
21208PMB    H7714242  -0.853   0.436  15.245
21208PMB    H7814243  -0.772   0.289  15.308
21208PMB    H7914244  -0.341   0.981  15.286
21208PMB    H8014245  -0.206   0.890  15.209
21208PMB    H8114246  -0.245   0.867  15.384
21208PMB    H8214247  -0.460  -0.576  15.400
21208PMB    H8314248  -0.813  -0.407  15.580
21208PMB    H8414249  -1.075  -0.139  14.788
21208PMB    H8514250  -1.089   0.006  14.703
21208PMB    H8614251  -0.865   0.077  15.388
21208PMB    H8714252  -0.938  -0.058  15.320
21208PMB    H8814253   0.106   0.345  14.638
21208PMB    H8914254  -0.470   0.898  15.126
21208PMB    H9014255  -0.562  -0.801  15.413
21208PMB    H9114256  -0.913  -0.633  15.595
21208PMB    H9214257   0.264   0.423  15.196
21208PMB    H9314258   0.254   0.460  15.360
21208PMB    H9414259  -0.609   0.654  14.856
21208PMB    H9514260  -0.724   0.624  14.736
21208PMB    H9614261  -0.788  -0.830  15.511
21208PMB    H9714262  -0.988   0.431  15.455
21208PMB    H9814263  -0.929   0.277  15.486
21208PMB    H9914264  -1.125   0.002  14.868
21208PMB   H10014265  -1.025   0.085  15.322
21208PMB   H10114266   0.275   0.584  15.247
21208PMB   H10214267  -0.611   0.749  14.716
21208PMB   H10314268  -1.025   0.309  15.345
   8.14401   8.14401  19.47255
