;;
;; Generated by CHARMM-GUI FF-Converter
;;
;; Correspondance:
;; jul316@lehigh.edu or wonpil@lehigh.edu
;;
;; The main GROMACS topology file
;;

; Include forcefield parameters
#include "toppar/forcefield.itp"
#include "toppar/LPSA.itp"
#include "toppar/PVPG.itp"
#include "toppar/PPPE.itp"
#include "toppar/PVCL2.itp"
#include "toppar/CAL.itp"
#include "toppar/SOD.itp"
#include "toppar/CLA.itp"
#include "toppar/TIP3.itp"

[ system ]
; Name
Title

[ molecules ]
; Compound	#mols
LPSA  	          35
PVPG  	          20
PPPE  	          75
PVCL2 	           5
CAL   	         157
SOD   	         114
CLA   	          48
TIP3  	       20752
