Single TOCL molecule for COBY
23
    1TOCL   GLC    1   2.500   2.500   2.500
    1TOCL  PO41    2   2.500   2.500   2.400
    1TOCL  GL11    3   2.400   2.400   2.300
    1TOCL  GL21    4   2.400   2.600   2.300
    1TOCL  C1A1    5   2.300   2.300   2.200
    1TOCL  D2A1    6   2.200   2.200   2.100
    1TOCL  C3A1    7   2.100   2.100   2.000
    1TOCL  C4A1    8   2.000   2.000   1.900
    1TOCL  C1B1    9   2.300   2.700   2.200
    1TOCL  D2B1   10   2.200   2.800   2.100
    1TOCL  C3B1   11   2.100   2.900   2.000
    1TOCL  C4B1   12   2.000   3.000   1.900
    1TOCL  PO42   13   2.500   2.500   2.600
    1TOCL  GL12   14   2.600   2.400   2.700
    1TOCL  GL22   15   2.600   2.600   2.700
    1TOCL  C1A2   16   2.700   2.300   2.800
    1TOCL  D2A2   17   2.800   2.200   2.900
    1TOCL  C3A2   18   2.900   2.100   3.000
    1TOCL  C4A2   19   3.000   2.000   3.100
    1TOCL  C1B2   20   2.700   2.700   2.800
    1TOCL  D2B2   21   2.800   2.800   2.900
    1TOCL  C3B2   22   2.900   2.900   3.000
    1TOCL  C4B2   23   3.000   3.000   3.100
   5.00000   5.00000   5.00000
