PSF EXT CMAP XPLOR

         2 !NTITLE
* GENERATE LIGAND                                                               
*  DATE:     5/15/26      3:48:19      CREATED BY USER: charmm-gui              

       188 !NATOM
         1 PMB      1        PMB      O1       OG2D1   -0.509000       15.9994           0
         2 PMB      1        PMB      O2       OG2D1   -0.509000       15.9994           0
         3 PMB      1        PMB      O3       OG2D1   -0.509000       15.9994           0
         4 PMB      1        PMB      O4       OG2D1   -0.509000       15.9994           0
         5 PMB      1        PMB      O5       OG2D1   -0.509000       15.9994           0
         6 PMB      1        PMB      O6       OG311   -0.651000       15.9994           0
         7 PMB      1        PMB      O7       OG2D1   -0.509000       15.9994           0
         8 PMB      1        PMB      O8       OG311   -0.651000       15.9994           0
         9 PMB      1        PMB      O9       OG2D1   -0.509000       15.9994           0
        10 PMB      1        PMB      O10      OG2D1   -0.514000       15.9994           0
        11 PMB      1        PMB      O11      OG2D1   -0.510000       15.9994           0
        12 PMB      1        PMB      O12      OG2D1   -0.517000       15.9994           0
        13 PMB      1        PMB      O13      OG2D1   -0.509000       15.9994           0
        14 PMB      1        PMB      N1       NG2S1   -0.469000       14.0070           0
        15 PMB      1        PMB      N2       NG2S1   -0.457000       14.0070           0
        16 PMB      1        PMB      N3       NG2S1   -0.467000       14.0070           0
        17 PMB      1        PMB      N4       NG2S1   -0.457000       14.0070           0
        18 PMB      1        PMB      N5       NG2S1   -0.461000       14.0070           0
        19 PMB      1        PMB      N6       NG2S1   -0.457000       14.0070           0
        20 PMB      1        PMB      N7       NG2S1   -0.466000       14.0070           0
        21 PMB      1        PMB      N8       NG2S1   -0.441000       14.0070           0
        22 PMB      1        PMB      N9       NG2S1   -0.451000       14.0070           0
        23 PMB      1        PMB      N10      NG2S1   -0.441000       14.0070           0
        24 PMB      1        PMB      N11      NG2S1   -0.445000       14.0070           0
        25 PMB      1        PMB      N12      NG3P3   -0.304000       14.0070           0
        26 PMB      1        PMB      N13      NG3P3   -0.304000       14.0070           0
        27 PMB      1        PMB      N14      NG3P3   -0.304000       14.0070           0
        28 PMB      1        PMB      N15      NG3P3   -0.304000       14.0070           0
        29 PMB      1        PMB      N16      NG3P3   -0.304000       14.0070           0
        30 PMB      1        PMB      C1       CG311    0.630000E-01   12.0110           0
        31 PMB      1        PMB      C2       CG321   -0.178000       12.0110           0
        32 PMB      1        PMB      C3       CG311   -0.990000E-01   12.0110           0
        33 PMB      1        PMB      C4       CG311   -0.107000       12.0110           0
        34 PMB      1        PMB      C5       CG321   -0.175000       12.0110           0
        35 PMB      1        PMB      C6       CG311    0.660000E-01   12.0110           0
        36 PMB      1        PMB      C7       CG311    0.950000E-01   12.0110           0
        37 PMB      1        PMB      C8       CG311    0.780000E-01   12.0110           0
        38 PMB      1        PMB      C9       CG2O1    0.512000       12.0110           0
        39 PMB      1        PMB      C10      CG321   -0.157000       12.0110           0
        40 PMB      1        PMB      C11      CG311    0.950000E-01   12.0110           0
        41 PMB      1        PMB      C12      CG321   -0.185000       12.0110           0
        42 PMB      1        PMB      C13      CG2O1    0.513000       12.0110           0
        43 PMB      1        PMB      C14      CG321   -0.153000       12.0110           0
        44 PMB      1        PMB      C15      CG321   -0.171000       12.0110           0
        45 PMB      1        PMB      C16      CG321   -0.180000       12.0110           0
        46 PMB      1        PMB      C17      CG331   -0.268000       12.0110           0
        47 PMB      1        PMB      C18      CG331   -0.268000       12.0110           0
        48 PMB      1        PMB      C19      CG321   -0.226000       12.0110           0
        49 PMB      1        PMB      C20      CG311    0.950000E-01   12.0110           0
        50 PMB      1        PMB      C21      CG311    0.950000E-01   12.0110           0
        51 PMB      1        PMB      C22      CG321   -0.226000       12.0110           0
        52 PMB      1        PMB      C23      CG2O1    0.512000       12.0110           0
        53 PMB      1        PMB      C24      CG2O1    0.549000       12.0110           0
        54 PMB      1        PMB      C25      CG321   -0.820000E-01   12.0110           0
        55 PMB      1        PMB      C26      CG2O1    0.549000       12.0110           0
        56 PMB      1        PMB      C27      CG311    0.710000E-01   12.0110           0
        57 PMB      1        PMB      C28      CG331   -0.270000       12.0110           0
        58 PMB      1        PMB      C29      CG321   -0.204000       12.0110           0
        59 PMB      1        PMB      C30      CG311    0.720000E-01   12.0110           0
        60 PMB      1        PMB      C31      CG2O1    0.549000       12.0110           0
        61 PMB      1        PMB      C32      CG311    0.940000E-01   12.0110           0
        62 PMB      1        PMB      C33      CG321   -0.226000       12.0110           0
        63 PMB      1        PMB      C34      CG321   -0.226000       12.0110           0
        64 PMB      1        PMB      C35      CG2O1    0.532000       12.0110           0
        65 PMB      1        PMB      C36      CG311    0.150000       12.0110           0
        66 PMB      1        PMB      C37      CG324    0.102000       12.0110           0
        67 PMB      1        PMB      C38      CG2R61  -0.300000E-02   12.0110           0
        68 PMB      1        PMB      C39      CG2O1    0.532000       12.0110           0
        69 PMB      1        PMB      C40      CG2O1    0.540000       12.0110           0
        70 PMB      1        PMB      C41      CG311    0.150000       12.0110           0
        71 PMB      1        PMB      C42      CG331   -0.267000       12.0110           0
        72 PMB      1        PMB      C43      CG324    0.102000       12.0110           0
        73 PMB      1        PMB      C44      CG2O1    0.499000       12.0110           0
        74 PMB      1        PMB      C45      CG321   -0.226000       12.0110           0
        75 PMB      1        PMB      C46      CG2O1    0.532000       12.0110           0
        76 PMB      1        PMB      C47      CG324    0.102000       12.0110           0
        77 PMB      1        PMB      C48      CG324    0.102000       12.0110           0
        78 PMB      1        PMB      C49      CG331   -0.271000       12.0110           0
        79 PMB      1        PMB      C50      CG324    0.102000       12.0110           0
        80 PMB      1        PMB      C51      CG331   -0.271000       12.0110           0
        81 PMB      1        PMB      C52      CG2R61  -0.123000       12.0110           0
        82 PMB      1        PMB      C53      CG2R61  -0.123000       12.0110           0
        83 PMB      1        PMB      C54      CG2R61  -0.112000       12.0110           0
        84 PMB      1        PMB      C55      CG2R61  -0.112000       12.0110           0
        85 PMB      1        PMB      C56      CG2R61  -0.116000       12.0110           0
        86 PMB      1        PMB      H1       HGA1     0.900000E-01   1.00800           0
        87 PMB      1        PMB      H2       HGA2     0.900000E-01   1.00800           0
        88 PMB      1        PMB      H3       HGA2     0.900000E-01   1.00800           0
        89 PMB      1        PMB      H4       HGA1     0.900000E-01   1.00800           0
        90 PMB      1        PMB      H5       HGA1     0.900000E-01   1.00800           0
        91 PMB      1        PMB      H6       HGA2     0.900000E-01   1.00800           0
        92 PMB      1        PMB      H7       HGA2     0.900000E-01   1.00800           0
        93 PMB      1        PMB      H8       HGA1     0.900000E-01   1.00800           0
        94 PMB      1        PMB      H9       HGA1     0.900000E-01   1.00800           0
        95 PMB      1        PMB      H10      HGA1     0.900000E-01   1.00800           0
        96 PMB      1        PMB      H11      HGP1     0.316000       1.00800           0
        97 PMB      1        PMB      H12      HGA2     0.900000E-01   1.00800           0
        98 PMB      1        PMB      H13      HGA2     0.900000E-01   1.00800           0
        99 PMB      1        PMB      H14      HGA1     0.900000E-01   1.00800           0
       100 PMB      1        PMB      H15      HGA2     0.900000E-01   1.00800           0
       101 PMB      1        PMB      H16      HGA2     0.900000E-01   1.00800           0
       102 PMB      1        PMB      H17      HGP1     0.316000       1.00800           0
       103 PMB      1        PMB      H18      HGA2     0.900000E-01   1.00800           0
       104 PMB      1        PMB      H19      HGA2     0.900000E-01   1.00800           0
       105 PMB      1        PMB      H20      HGA2     0.900000E-01   1.00800           0
       106 PMB      1        PMB      H21      HGA2     0.900000E-01   1.00800           0
       107 PMB      1        PMB      H22      HGA2     0.900000E-01   1.00800           0
       108 PMB      1        PMB      H23      HGA2     0.900000E-01   1.00800           0
       109 PMB      1        PMB      H24      HGA3     0.900000E-01   1.00800           0
       110 PMB      1        PMB      H25      HGA3     0.900000E-01   1.00800           0
       111 PMB      1        PMB      H26      HGA3     0.900000E-01   1.00800           0
       112 PMB      1        PMB      H27      HGA3     0.900000E-01   1.00800           0
       113 PMB      1        PMB      H28      HGA3     0.900000E-01   1.00800           0
       114 PMB      1        PMB      H29      HGA3     0.900000E-01   1.00800           0
       115 PMB      1        PMB      H30      HGA1     0.900000E-01   1.00800           0
       116 PMB      1        PMB      H31      HGA2     0.900000E-01   1.00800           0
       117 PMB      1        PMB      H32      HGA2     0.900000E-01   1.00800           0
       118 PMB      1        PMB      H33      HGA1     0.900000E-01   1.00800           0
       119 PMB      1        PMB      H34      HGP1     0.316000       1.00800           0
       120 PMB      1        PMB      H35      HGA2     0.900000E-01   1.00800           0
       121 PMB      1        PMB      H36      HGA2     0.900000E-01   1.00800           0
       122 PMB      1        PMB      H37      HGA2     0.900000E-01   1.00800           0
       123 PMB      1        PMB      H38      HGA2     0.900000E-01   1.00800           0
       124 PMB      1        PMB      H39      HGP1     0.316000       1.00800           0
       125 PMB      1        PMB      H40      HGP1     0.316000       1.00800           0
       126 PMB      1        PMB      H41      HGA1     0.900000E-01   1.00800           0
       127 PMB      1        PMB      H42      HGA3     0.900000E-01   1.00800           0
       128 PMB      1        PMB      H43      HGA3     0.900000E-01   1.00800           0
       129 PMB      1        PMB      H44      HGA3     0.900000E-01   1.00800           0
       130 PMB      1        PMB      H45      HGA2     0.900000E-01   1.00800           0
       131 PMB      1        PMB      H46      HGA2     0.900000E-01   1.00800           0
       132 PMB      1        PMB      H47      HGA1     0.900000E-01   1.00800           0
       133 PMB      1        PMB      H48      HGP1     0.316000       1.00800           0
       134 PMB      1        PMB      H49      HGA1     0.900000E-01   1.00800           0
       135 PMB      1        PMB      H50      HGA2     0.900000E-01   1.00800           0
       136 PMB      1        PMB      H51      HGA2     0.900000E-01   1.00800           0
       137 PMB      1        PMB      H52      HGA2     0.900000E-01   1.00800           0
       138 PMB      1        PMB      H53      HGA2     0.900000E-01   1.00800           0
       139 PMB      1        PMB      H54      HGP1     0.316000       1.00800           0
       140 PMB      1        PMB      H55      HGA1     0.900000E-01   1.00800           0
       141 PMB      1        PMB      H56      HGP1     0.269000       1.00800           0
       142 PMB      1        PMB      H57      HGP1     0.305000       1.00800           0
       143 PMB      1        PMB      H58      HGA2     0.900000E-01   1.00800           0
       144 PMB      1        PMB      H59      HGA2     0.900000E-01   1.00800           0
       145 PMB      1        PMB      H60      HGA1     0.900000E-01   1.00800           0
       146 PMB      1        PMB      H61      HGA3     0.900000E-01   1.00800           0
       147 PMB      1        PMB      H62      HGA3     0.900000E-01   1.00800           0
       148 PMB      1        PMB      H63      HGA3     0.900000E-01   1.00800           0
       149 PMB      1        PMB      H64      HGA2     0.900000E-01   1.00800           0
       150 PMB      1        PMB      H65      HGA2     0.900000E-01   1.00800           0
       151 PMB      1        PMB      H66      HGA2     0.900000E-01   1.00800           0
       152 PMB      1        PMB      H67      HGA2     0.900000E-01   1.00800           0
       153 PMB      1        PMB      H68      HGP1     0.269000       1.00800           0
       154 PMB      1        PMB      H69      HGP1     0.328000       1.00800           0
       155 PMB      1        PMB      H70      HGA2     0.900000E-01   1.00800           0
       156 PMB      1        PMB      H71      HGA2     0.900000E-01   1.00800           0
       157 PMB      1        PMB      H72      HGA2     0.900000E-01   1.00800           0
       158 PMB      1        PMB      H73      HGA2     0.900000E-01   1.00800           0
       159 PMB      1        PMB      H74      HGA3     0.900000E-01   1.00800           0
       160 PMB      1        PMB      H75      HGA3     0.900000E-01   1.00800           0
       161 PMB      1        PMB      H76      HGA3     0.900000E-01   1.00800           0
       162 PMB      1        PMB      H77      HGA2     0.900000E-01   1.00800           0
       163 PMB      1        PMB      H78      HGA2     0.900000E-01   1.00800           0
       164 PMB      1        PMB      H79      HGA3     0.900000E-01   1.00800           0
       165 PMB      1        PMB      H80      HGA3     0.900000E-01   1.00800           0
       166 PMB      1        PMB      H81      HGA3     0.900000E-01   1.00800           0
       167 PMB      1        PMB      H82      HGR61    0.116000       1.00800           0
       168 PMB      1        PMB      H83      HGR61    0.116000       1.00800           0
       169 PMB      1        PMB      H84      HGP2     0.328000       1.00800           0
       170 PMB      1        PMB      H85      HGP2     0.328000       1.00800           0
       171 PMB      1        PMB      H86      HGP2     0.328000       1.00800           0
       172 PMB      1        PMB      H87      HGP2     0.328000       1.00800           0
       173 PMB      1        PMB      H88      HGP1     0.418000       1.00800           0
       174 PMB      1        PMB      H89      HGP1     0.418000       1.00800           0
       175 PMB      1        PMB      H90      HGR61    0.116000       1.00800           0
       176 PMB      1        PMB      H91      HGR61    0.116000       1.00800           0
       177 PMB      1        PMB      H92      HGP2     0.328000       1.00800           0
       178 PMB      1        PMB      H93      HGP2     0.328000       1.00800           0
       179 PMB      1        PMB      H94      HGP2     0.328000       1.00800           0
       180 PMB      1        PMB      H95      HGP2     0.328000       1.00800           0
       181 PMB      1        PMB      H96      HGR61    0.116000       1.00800           0
       182 PMB      1        PMB      H97      HGP2     0.328000       1.00800           0
       183 PMB      1        PMB      H98      HGP2     0.328000       1.00800           0
       184 PMB      1        PMB      H99      HGP2     0.328000       1.00800           0
       185 PMB      1        PMB      H100     HGP2     0.328000       1.00800           0
       186 PMB      1        PMB      H101     HGP2     0.328000       1.00800           0
       187 PMB      1        PMB      H102     HGP2     0.328000       1.00800           0
       188 PMB      1        PMB      H103     HGP2     0.328000       1.00800           0

       189 !NBOND: bonds
         1        38         2        42         3        52         4        53
         5        55        65         6         6       173         7        60
        70         8         8       174         9        64        10        68
        11        69        12        73        13        75        14        30
        14        42        14        96        15        36        15        38
        15       102        16        35        16        53        16       119
        17        40        17        52        17       124        37        18
        18        60        18       125        19        50        19        55
        19       133        49        20        20        69        20       139
        21        56        21        64        21       141        22        54
        22        68        22       142        59        23        23        75
        23       153        61        24        24        73        24       154
        25        66        25       169        25       170        26        72
        26       171        26       172        27        76        27       177
        27       178        28        77        28       179        28       180
        29        79        29       182        29       183        30        31
        30        38        30        86        31        32        31        87
        31        88        32        46        32        47        32        89
        33        34        33        44        33        57        33        90
        34        39        34        91        34        92        35        42
        35        45        35        93        36        48        36        55
        36        94        37        41        37        52        37        95
        39        43        39        97        39        98        40        51
        40        53        40        99        41        54        41       100
        41       101        43        58        43       103        43       104
        44        71        44       105        44       106        45        67
        45       107        45       108        46       109        46       110
        46       111        47       112        47       113        47       114
        48        66        48       116        48       117        49        60
        49        62        49       115        50        63        50        64
        50       118        51        72        51       120        51       121
        54       122        54       123        56        65        56        68
        56       126        57       127        57       128        57       129
        58        73        58       130        58       131        59        69
        59        70        59       132        61        74        61        75
        61       134        62        76        62       135        62       136
        63        77        63       137        63       138        65        78
        65       140        66       143        66       144        67        81
        67        82        70        80        70       145        71       146
        71       147        71       148        72       149        72       150
        74        79        74       151        74       152        76       155
        76       156        77       157        77       158        78       159
        78       160        78       161        79       162        79       163
        80       164        80       165        80       166        81        83
        81       167        82        84        82       168        83        85
        83       175        84        85        84       176        85       181
        25       184        26       185        27       186        28       187
        29       188

       350 !NTHETA: angles
        65         6       173        70         8       174        30        14        42
        30        14        96        42        14        96        36        15        38
        36        15       102        38        15       102        35        16        53
        35        16       119        53        16       119        40        17        52
        40        17       124        52        17       124        37        18        60
        37        18       125        60        18       125        50        19        55
        50        19       133        55        19       133        49        20        69
        49        20       139        69        20       139        56        21        64
        56        21       141        64        21       141        54        22        68
        54        22       142        68        22       142        59        23        75
        59        23       153        75        23       153        61        24        73
        61        24       154        73        24       154        66        25       169
        66        25       170        66        25       184       169        25       170
       169        25       184       170        25       184        72        26       171
        72        26       172        72        26       185       171        26       172
       171        26       185       172        26       185        76        27       177
        76        27       178        76        27       186       177        27       178
       177        27       186       178        27       186        77        28       179
        77        28       180        77        28       187       179        28       180
       179        28       187       180        28       187        79        29       182
        79        29       183        79        29       188       182        29       183
       182        29       188       183        29       188        14        30        31
        14        30        38        14        30        86        31        30        38
        31        30        86        38        30        86        30        31        32
        30        31        87        30        31        88        32        31        87
        32        31        88        87        31        88        31        32        46
        31        32        47        31        32        89        46        32        47
        46        32        89        47        32        89        34        33        44
        34        33        57        34        33        90        44        33        57
        44        33        90        57        33        90        33        34        39
        33        34        91        33        34        92        39        34        91
        39        34        92        91        34        92        16        35        42
        16        35        45        16        35        93        42        35        45
        42        35        93        45        35        93        15        36        48
        15        36        55        15        36        94        48        36        55
        48        36        94        55        36        94        18        37        41
        18        37        52        18        37        95        41        37        52
        41        37        95        52        37        95         1        38        15
         1        38        30        15        38        30        34        39        43
        34        39        97        34        39        98        43        39        97
        43        39        98        97        39        98        17        40        51
        17        40        53        17        40        99        51        40        53
        51        40        99        53        40        99        37        41        54
        37        41       100        37        41       101        54        41       100
        54        41       101       100        41       101         2        42        14
         2        42        35        14        42        35        39        43        58
        39        43       103        39        43       104        58        43       103
        58        43       104       103        43       104        33        44        71
        33        44       105        33        44       106        71        44       105
        71        44       106       105        44       106        35        45        67
        35        45       107        35        45       108        67        45       107
        67        45       108       107        45       108        32        46       109
        32        46       110        32        46       111       109        46       110
       109        46       111       110        46       111        32        47       112
        32        47       113        32        47       114       112        47       113
       112        47       114       113        47       114        36        48        66
        36        48       116        36        48       117        66        48       116
        66        48       117       116        48       117        20        49        60
        20        49        62        20        49       115        60        49        62
        60        49       115        62        49       115        19        50        63
        19        50        64        19        50       118        63        50        64
        63        50       118        64        50       118        40        51        72
        40        51       120        40        51       121        72        51       120
        72        51       121       120        51       121         3        52        17
         3        52        37        17        52        37         4        53        16
         4        53        40        16        53        40        22        54        41
        22        54       122        22        54       123        41        54       122
        41        54       123       122        54       123         5        55        19
         5        55        36        19        55        36        21        56        65
        21        56        68        21        56       126        65        56        68
        65        56       126        68        56       126        33        57       127
        33        57       128        33        57       129       127        57       128
       127        57       129       128        57       129        43        58        73
        43        58       130        43        58       131        73        58       130
        73        58       131       130        58       131        23        59        69
        23        59        70        23        59       132        69        59        70
        69        59       132        70        59       132         7        60        18
         7        60        49        18        60        49        24        61        74
        24        61        75        24        61       134        74        61        75
        74        61       134        75        61       134        49        62        76
        49        62       135        49        62       136        76        62       135
        76        62       136       135        62       136        50        63        77
        50        63       137        50        63       138        77        63       137
        77        63       138       137        63       138         9        64        21
         9        64        50        21        64        50         6        65        56
         6        65        78         6        65       140        56        65        78
        56        65       140        78        65       140        25        66        48
        25        66       143        25        66       144        48        66       143
        48        66       144       143        66       144        45        67        81
        45        67        82        81        67        82        10        68        22
        10        68        56        22        68        56        11        69        20
        11        69        59        20        69        59         8        70        59
         8        70        80         8        70       145        59        70        80
        59        70       145        80        70       145        44        71       146
        44        71       147        44        71       148       146        71       147
       146        71       148       147        71       148        26        72        51
        26        72       149        26        72       150        51        72       149
        51        72       150       149        72       150        12        73        24
        12        73        58        24        73        58        61        74        79
        61        74       151        61        74       152        79        74       151
        79        74       152       151        74       152        13        75        23
        13        75        61        23        75        61        27        76        62
        27        76       155        27        76       156        62        76       155
        62        76       156       155        76       156        28        77        63
        28        77       157        28        77       158        63        77       157
        63        77       158       157        77       158        65        78       159
        65        78       160        65        78       161       159        78       160
       159        78       161       160        78       161        29        79        74
        29        79       162        29        79       163        74        79       162
        74        79       163       162        79       163        70        80       164
        70        80       165        70        80       166       164        80       165
       164        80       166       165        80       166        67        81        83
        67        81       167        83        81       167        67        82        84
        67        82       168        84        82       168        81        83        85
        81        83       175        85        83       175        82        84        85
        82        84       176        85        84       176        83        85        84
        83        85       181        84        85       181

       509 !NPHI: dihedrals
         1        38        15        36         1        38        15       102
         1        38        30        14         1        38        30        31
         1        38        30        86         2        42        14        30
         2        42        14        96         2        42        35        16
         2        42        35        45         2        42        35        93
         3        52        17        40         3        52        17       124
         3        52        37        18         3        52        37        41
         3        52        37        95         4        53        16        35
         4        53        16       119         4        53        40        17
         4        53        40        51         4        53        40        99
         5        55        19        50         5        55        19       133
         5        55        36        15         5        55        36        48
         5        55        36        94         6        65        56        21
         6        65        56        68         6        65        56       126
         6        65        78       159         6        65        78       160
         6        65        78       161         7        60        18        37
         7        60        18       125         7        60        49        20
         7        60        49        62         7        60        49       115
         8        70        59        23         8        70        59        69
         8        70        59       132         8        70        80       164
         8        70        80       165         8        70        80       166
         9        64        21        56         9        64        21       141
         9        64        50        19         9        64        50        63
         9        64        50       118        10        68        22        54
        10        68        22       142        10        68        56        21
        10        68        56        65        10        68        56       126
        11        69        20        49        11        69        20       139
        11        69        59        23        11        69        59        70
        11        69        59       132        12        73        24        61
        12        73        24       154        12        73        58        43
        12        73        58       130        12        73        58       131
        13        75        23        59        13        75        23       153
        13        75        61        24        13        75        61        74
        13        75        61       134        14        30        31        32
        14        30        31        87        14        30        31        88
        14        30        38        15        14        42        35        16
        14        42        35        45        14        42        35        93
        15        36        48        66        15        36        48       116
        15        36        48       117        15        36        55        19
        15        38        30        31        15        38        30        86
        16        35        45        67        16        35        45       107
        16        35        45       108        16        53        40        17
        16        53        40        51        16        53        40        99
        17        40        51        72        17        40        51       120
        17        40        51       121        17        52        37        18
        17        52        37        41        17        52        37        95
        18        37        41        54        18        37        41       100
        18        37        41       101        18        60        49        20
        18        60        49        62        18        60        49       115
        19        50        63        77        19        50        63       137
        19        50        63       138        19        50        64        21
        19        55        36        48        19        55        36        94
        20        49        62        76        20        49        62       135
        20        49        62       136        20        69        59        23
        20        69        59        70        20        69        59       132
        21        56        65        78        21        56        65       140
        21        56        68        22        21        64        50        63
        21        64        50       118        22        54        41        37
        22        54        41       100        22        54        41       101
        22        68        56        65        22        68        56       126
        23        59        70        80        23        59        70       145
        23        75        61        24        23        75        61        74
        23        75        61       134        24        61        74        79
        24        61        74       151        24        61        74       152
        24        73        58        43        24        73        58       130
        24        73        58       131        25        66        48        36
        25        66        48       116        25        66        48       117
        26        72        51        40        26        72        51       120
        26        72        51       121        27        76        62        49
        27        76        62       135        27        76        62       136
        28        77        63        50        28        77        63       137
        28        77        63       138        29        79        74        61
        29        79        74       151        29        79        74       152
        30        14        42        35        30        31        32        46
        30        31        32        47        30        31        32        89
        30        38        15        36        30        38        15       102
        31        30        14        42        31        30        14        96
        31        32        46       109        31        32        46       110
        31        32        46       111        31        32        47       112
        31        32        47       113        31        32        47       114
        32        31        30        38        32        31        30        86
        33        34        39        43        33        34        39        97
        33        34        39        98        33        44        71       146
        33        44        71       147        33        44        71       148
        34        33        44        71        34        33        44       105
        34        33        44       106        34        33        57       127
        34        33        57       128        34        33        57       129
        34        39        43        58        34        39        43       103
        34        39        43       104        35        16        53        40
        35        42        14        96        35        45        67        81
        35        45        67        82        36        48        66       143
        36        48        66       144        36        55        19        50
        36        55        19       133        37        18        60        49
        37        41        54       122        37        41        54       123
        37        52        17        40        37        52        17       124
        38        15        36        48        38        15        36        55
        38        15        36        94        38        30        14        42
        38        30        14        96        38        30        31        87
        38        30        31        88        39        34        33        44
        39        34        33        57        39        34        33        90
        39        43        58        73        39        43        58       130
        39        43        58       131        40        51        72       149
        40        51        72       150        40        53        16       119
        41        37        18        60        41        37        18       125
        41        54        22        68        41        54        22       142
        42        14        30        86        42        35        16        53
        42        35        16       119        42        35        45        67
        42        35        45       107        42        35        45       108
        43        39        34        91        43        39        34        92
        44        33        34        91        44        33        34        92
        44        33        57       127        44        33        57       128
        44        33        57       129        45        35        16        53
        45        35        16       119        45        67        81        83
        45        67        81       167        45        67        82        84
        45        67        82       168        46        32        31        87
        46        32        31        88        46        32        47       112
        46        32        47       113        46        32        47       114
        47        32        31        87        47        32        31        88
        47        32        46       109        47        32        46       110
        47        32        46       111        48        36        15       102
        48        66        25       169        48        66        25       170
        48        66        25       184        49        20        69        59
        49        60        18       125        49        62        76       155
        49        62        76       156        50        63        77       157
        50        63        77       158        50        64        21        56
        50        64        21       141        51        40        17        52
        51        40        17       124        51        72        26       171
        51        72        26       172        51        72        26       185
        52        17        40        53        52        17        40        99
        52        37        18        60        52        37        18       125
        52        37        41        54        52        37        41       100
        52        37        41       101        53        16        35        93
        53        40        17       124        53        40        51        72
        53        40        51       120        53        40        51       121
        54        22        68        56        54        41        37        95
        55        19        50        63        55        19        50        64
        55        19        50       118        55        36        15       102
        55        36        48        66        55        36        48       116
        55        36        48       117        56        65         6       173
        56        65        78       159        56        65        78       160
        56        65        78       161        56        68        22       142
        57        33        34        91        57        33        34        92
        57        33        44        71        57        33        44       105
        57        33        44       106        58        43        39        97
        58        43        39        98        58        73        24        61
        58        73        24       154        59        23        75        61
        59        69        20       139        59        70         8       174
        59        70        80       164        59        70        80       165
        59        70        80       166        60        18        37        95
        60        49        20        69        60        49        20       139
        60        49        62        76        60        49        62       135
        60        49        62       136        61        74        79       162
        61        74        79       163        61        75        23       153
        62        49        20        69        62        49        20       139
        62        76        27       177        62        76        27       178
        62        76        27       186        63        50        19       133
        63        77        28       179        63        77        28       180
        63        77        28       187        64        21        56        65
        64        21        56        68        64        21        56       126
        64        50        19       133        64        50        63        77
        64        50        63       137        64        50        63       138
        65        56        21       141        66        48        36        94
        67        45        35        93        67        81        83        85
        67        81        83       175        67        82        84        85
        67        82        84       176        68        22        54       122
        68        22        54       123        68        56        21       141
        68        56        65        78        68        56        65       140
        69        20        49       115        69        59        23        75
        69        59        23       153        69        59        70        80
        69        59        70       145        70        59        23        75
        70        59        23       153        71        44        33        90
        72        51        40        99        73        24        61        74
        73        24        61        75        73        24        61       134
        73        58        43       103        73        58        43       104
        74        61        24       154        74        79        29       182
        74        79        29       183        74        79        29       188
        75        23        59       132        75        61        24       154
        75        61        74        79        75        61        74       151
        75        61        74       152        76        62        49       115
        77        63        50       118        78        65         6       173
        78        65        56       126        79        74        61       134
        80        70         8       174        80        70        59       132
        81        67        45       107        81        67        45       108
        81        67        82        84        81        67        82       168
        81        83        85        84        81        83        85       181
        82        67        45       107        82        67        45       108
        82        67        81        83        82        67        81       167
        82        84        85        83        82        84        85       181
        83        85        84       176        84        85        83       175
        85        83        81       167        85        84        82       168
        86        30        14        96        86        30        31        87
        86        30        31        88        87        31        32        89
        88        31        32        89        89        32        46       109
        89        32        46       110        89        32        46       111
        89        32        47       112        89        32        47       113
        89        32        47       114        90        33        34        91
        90        33        34        92        90        33        44       105
        90        33        44       106        90        33        57       127
        90        33        57       128        90        33        57       129
        91        34        39        97        91        34        39        98
        92        34        39        97        92        34        39        98
        93        35        16       119        93        35        45       107
        93        35        45       108        94        36        15       102
        94        36        48       116        94        36        48       117
        95        37        18       125        95        37        41       100
        95        37        41       101        97        39        43       103
        97        39        43       104        98        39        43       103
        98        39        43       104        99        40        17       124
        99        40        51       120        99        40        51       121
       100        41        54       122       100        41        54       123
       101        41        54       122       101        41        54       123
       103        43        58       130       103        43        58       131
       104        43        58       130       104        43        58       131
       105        44        71       146       105        44        71       147
       105        44        71       148       106        44        71       146
       106        44        71       147       106        44        71       148
       115        49        20       139       115        49        62       135
       115        49        62       136       116        48        66       143
       116        48        66       144       117        48        66       143
       117        48        66       144       118        50        19       133
       118        50        63       137       118        50        63       138
       120        51        72       149       120        51        72       150
       121        51        72       149       121        51        72       150
       122        54        22       142       123        54        22       142
       126        56        21       141       126        56        65       140
       132        59        23       153       132        59        70       145
       134        61        24       154       134        61        74       151
       134        61        74       152       135        62        76       155
       135        62        76       156       136        62        76       155
       136        62        76       156       137        63        77       157
       137        63        77       158       138        63        77       157
       138        63        77       158       140        65         6       173
       140        65        78       159       140        65        78       160
       140        65        78       161       143        66        25       169
       143        66        25       170       143        66        25       184
       144        66        25       169       144        66        25       170
       144        66        25       184       145        70         8       174
       145        70        80       164       145        70        80       165
       145        70        80       166       149        72        26       171
       149        72        26       172       149        72        26       185
       150        72        26       171       150        72        26       172
       150        72        26       185       151        74        79       162
       151        74        79       163       152        74        79       162
       152        74        79       163       155        76        27       177
       155        76        27       178       155        76        27       186
       156        76        27       177       156        76        27       178
       156        76        27       186       157        77        28       179
       157        77        28       180       157        77        28       187
       158        77        28       179       158        77        28       180
       158        77        28       187       162        79        29       182
       162        79        29       183       162        79        29       188
       163        79        29       182       163        79        29       183
       163        79        29       188       167        81        83       175
       168        82        84       176       175        83        85       181
       176        84        85       181

        11 !NIMPHI: impropers
        38        30        15         1        42        35        14         2
        52        37        17         3        53        40        16         4
        55        36        19         5        60        49        18         7
        64        50        21         9        68        56        22        10
        69        59        20        11        73        58        24        12
        75        61        23        13

         0 !NDON: donors


         0 !NACC: acceptors


         0 !NNB

         0         0         0         0         0         0         0         0
         0         0         0         0         0         0         0         0
         0         0         0         0         0         0         0         0
         0         0         0         0         0         0         0         0
         0         0         0         0         0         0         0         0
         0         0         0         0         0         0         0         0
         0         0         0         0         0         0         0         0
         0         0         0         0         0         0         0         0
         0         0         0         0         0         0         0         0
         0         0         0         0         0         0         0         0
         0         0         0         0         0         0         0         0
         0         0         0         0         0         0         0         0
         0         0         0         0         0         0         0         0
         0         0         0         0         0         0         0         0
         0         0         0         0         0         0         0         0
         0         0         0         0         0         0         0         0
         0         0         0         0         0         0         0         0
         0         0         0         0         0         0         0         0
         0         0         0         0         0         0         0         0
         0         0         0         0         0         0         0         0
         0         0         0         0         0         0         0         0
         0         0         0         0         0         0         0         0
         0         0         0         0         0         0         0         0
         0         0         0         0

         1         0 !NGRP NST2
         0         2         0

         0         0 !NUMLP NUMLPH

         0 !NCRTERM: cross-terms

