* GENERATE LIGAND
*  DATE:     5/15/26      3:48:19      CREATED BY USER: charmm-gui
*
       188  EXT
         1         1  PMB       O1             -6.8767339272       -3.0358391416       11.1840752347  PMB       1               0.0000000000
         2         1  PMB       O2             -4.2591438939       -2.4741221894       15.6249408910  PMB       1               0.0000000000
         3         1  PMB       O3             -5.5735554389        2.7597996847       13.7324755851  PMB       1               0.0000000000
         4         1  PMB       O4             -6.6308794319        1.0768700532       18.0071079327  PMB       1               0.0000000000
         5         1  PMB       O5             -7.3114812459        1.8472197559        9.9628718873  PMB       1               0.0000000000
         6         1  PMB       O6              0.5250725769        3.7188734339       10.4437684771  PMB       1               0.0000000000
         7         1  PMB       O7             -1.6621059033        1.8873672782       17.5216461103  PMB       1               0.0000000000
         8         1  PMB       O8             -4.4070163609        8.0652120747       14.4896680897  PMB       1               0.0000000000
         9         1  PMB       O9             -2.9869532150        3.4689977038       11.7463523154  PMB       1               0.0000000000
        10         1  PMB       O10            -1.7404670217       -0.1768134078        9.2305651997  PMB       1               0.0000000000
        11         1  PMB       O11            -2.6895265836        6.4762290893       18.0356413145  PMB       1               0.0000000000
        12         1  PMB       O12            -5.3201521823        6.9963322865       20.0873910821  PMB       1               0.0000000000
        13         1  PMB       O13            -6.4993053265        5.2627819299       14.9433943597  PMB       1               0.0000000000
        14         1  PMB       N1             -6.2420416084       -2.7841641273       14.6174758123  PMB       1               0.0000000000
        15         1  PMB       N2             -6.2376509954       -1.0288925648       11.9002249694  PMB       1               0.0000000000
        16         1  PMB       N3             -6.0989958727       -1.0809487029       17.7341228715  PMB       1               0.0000000000
        17         1  PMB       N4             -5.5161521889        1.7941588273       15.7022472190  PMB       1               0.0000000000
        18         1  PMB       N5             -2.7639680115        1.5790917897       15.6562004189  PMB       1               0.0000000000
        19         1  PMB       N6             -5.1688449708        1.6423708600       10.5712561304  PMB       1               0.0000000000
        20         1  PMB       N7             -1.8905146650        4.6990507390       17.0561891403  PMB       1               0.0000000000
        21         1  PMB       N8             -2.2933558443        2.8796000230        9.6994035751  PMB       1               0.0000000000
        22         1  PMB       N9             -2.1785857576        0.0488895861       11.3598865221  PMB       1               0.0000000000
        23         1  PMB       N10            -4.3299583935        5.3120131422       15.2887447453  PMB       1               0.0000000000
        24         1  PMB       N11            -5.5189472627        5.9334154722       18.1803310740  PMB       1               0.0000000000
        25         1  PMB       N12           -10.6158298305       -0.3565940091       11.2583677365  PMB       1               0.0000000000
        26         1  PMB       N13            -9.2904316077        0.4556925115       16.4229870292  PMB       1               0.0000000000
        27         1  PMB       N14             2.2845761395        4.9185993686       15.9524111948  PMB       1               0.0000000000
        28         1  PMB       N15            -6.2540032314        6.5315266515       10.8459497947  PMB       1               0.0000000000
        29         1  PMB       N16            -9.5091436327        3.4439591939       17.4019723217  PMB       1               0.0000000000
        30         1  PMB       C1             -5.7500981502       -3.1602649289       13.2953592265  PMB       1               0.0000000000
        31         1  PMB       C2             -6.1659463825       -4.6534403244       13.1334570219  PMB       1               0.0000000000
        32         1  PMB       C3             -5.5256747786       -5.6388791565       14.1368302806  PMB       1               0.0000000000
        33         1  PMB       C4             -2.9358892747        0.3289242115       21.5409816135  PMB       1               0.0000000000
        34         1  PMB       C5             -2.8693323555        1.7514479218       20.9463643755  PMB       1               0.0000000000
        35         1  PMB       C6             -6.1813422819       -2.4035654991       17.0953210614  PMB       1               0.0000000000
        36         1  PMB       C7             -6.7305086451       -0.3837316220       10.6505125811  PMB       1               0.0000000000
        37         1  PMB       C8             -3.4427854990        1.8327061492       14.3923416946  PMB       1               0.0000000000
        38         1  PMB       C9             -6.3196401721       -2.3865889777       12.0688592348  PMB       1               0.0000000000
        39         1  PMB       C10            -4.2073890700        2.4906926180       20.8899863786  PMB       1               0.0000000000
        40         1  PMB       C11            -6.0789498697        0.4725498536       15.8035938208  PMB       1               0.0000000000
        41         1  PMB       C12            -3.3682403640        0.5960822059       13.4563234945  PMB       1               0.0000000000
        42         1  PMB       C13            -5.4784315459       -2.5944626907       15.7272000868  PMB       1               0.0000000000
        43         1  PMB       C14            -4.0373470215        3.9106408893       20.3314243174  PMB       1               0.0000000000
        44         1  PMB       C15            -1.5190663881       -0.2764796066       21.6760505906  PMB       1               0.0000000000
        45         1  PMB       C16            -5.6356122737       -3.4034295813       18.1575691987  PMB       1               0.0000000000
        46         1  PMB       C17            -6.1409147272       -7.0405183751       13.9917367872  PMB       1               0.0000000000
        47         1  PMB       C18            -4.0007976874       -5.7038454371       13.9713603165  PMB       1               0.0000000000
        48         1  PMB       C19            -8.2852256211       -0.5939232066       10.4141214373  PMB       1               0.0000000000
        49         1  PMB       C20            -1.4498686702        3.7507015898       16.0438716989  PMB       1               0.0000000000
        50         1  PMB       C21            -4.7361047159        2.9982248253       10.1697419344  PMB       1               0.0000000000
        51         1  PMB       C22            -7.3329699319        0.1593975284       14.8911252295  PMB       1               0.0000000000
        52         1  PMB       C23            -4.9085907216        2.1682794600       14.5861128348  PMB       1               0.0000000000
        53         1  PMB       C24            -6.2722948090        0.1574314544       17.2551363321  PMB       1               0.0000000000
        54         1  PMB       C25            -2.0239350145        0.4652939769       12.7346877325  PMB       1               0.0000000000
        55         1  PMB       C26            -6.4091519825        1.1206706744       10.3841791208  PMB       1               0.0000000000
        56         1  PMB       C27            -1.1594131570        1.9950686857       10.0155004786  PMB       1               0.0000000000
        57         1  PMB       C28            -3.8464797382       -0.6047393951       20.7155896462  PMB       1               0.0000000000
        58         1  PMB       C29            -5.3881849764        4.6427102195       20.3195289433  PMB       1               0.0000000000
        59         1  PMB       C30            -3.3218108761        6.2844131050       15.7275017469  PMB       1               0.0000000000
        60         1  PMB       C31            -1.9778318043        2.3559472995       16.4275134223  PMB       1               0.0000000000
        61         1  PMB       C32            -5.8769202182        4.8667502689       17.2700841364  PMB       1               0.0000000000
        62         1  PMB       C33             0.1164799702        3.6861871678       16.0796123621  PMB       1               0.0000000000
        63         1  PMB       C34            -5.5955082956        4.1615149874       10.7841396046  PMB       1               0.0000000000
        64         1  PMB       C35            -3.2685343749        3.1589608740       10.5902385592  PMB       1               0.0000000000
        65         1  PMB       C36            -0.0648764557        2.5395311768       10.9673157147  PMB       1               0.0000000000
        66         1  PMB       C37            -9.1762205189       -0.0458226197       11.5364607064  PMB       1               0.0000000000
        67         1  PMB       C38            -6.3077245258       -4.7512683655       18.1584853559  PMB       1               0.0000000000
        68         1  PMB       C39            -1.6762586628        0.5624306337       10.2155328038  PMB       1               0.0000000000
        69         1  PMB       C40            -2.6139113663        5.8299615683       16.9917137480  PMB       1               0.0000000000
        70         1  PMB       C41            -3.8915520408        7.7247255073       15.7718645658  PMB       1               0.0000000000
        71         1  PMB       C42            -0.5647728168        0.5380017328       22.5626348453  PMB       1               0.0000000000
        72         1  PMB       C43            -8.7115460571        0.8062703881       15.0890073047  PMB       1               0.0000000000
        73         1  PMB       C44            -5.3967309528        5.9071392734       19.5140959293  PMB       1               0.0000000000
        74         1  PMB       C45            -7.3726299440        4.5638105974       17.6312444867  PMB       1               0.0000000000
        75         1  PMB       C46            -5.5899678303        5.1992038046       15.7754104505  PMB       1               0.0000000000
        76         1  PMB       C47             0.7943610791        5.0483063106       15.8288845905  PMB       1               0.0000000000
        77         1  PMB       C48            -5.3268533356        5.5536308639       10.1890101190  PMB       1               0.0000000000
        78         1  PMB       C49             1.0892943168        1.5481728856       11.2029008383  PMB       1               0.0000000000
        79         1  PMB       C50            -8.2538618953        3.7975316328       16.6703084742  PMB       1               0.0000000000
        80         1  PMB       C51            -2.8852822066        8.8292928381       16.1362913091  PMB       1               0.0000000000
        81         1  PMB       C52            -5.5996103135       -5.8769151973       17.7171673661  PMB       1               0.0000000000
        82         1  PMB       C53            -7.5885226303       -4.9179792983       18.7179315900  PMB       1               0.0000000000
        83         1  PMB       C54            -6.1725395563       -7.1514609644       17.7924212316  PMB       1               0.0000000000
        84         1  PMB       C55            -8.1561539167       -6.1972874549       18.8124370288  PMB       1               0.0000000000
        85         1  PMB       C56            -7.4498094988       -7.3121954383       18.3427727036  PMB       1               0.0000000000
        86         1  PMB       H1             -4.6427614225       -3.0739741996       13.2400680971  PMB       1               0.0000000000
        87         1  PMB       H2             -5.9207988371       -5.0337666961       12.1176795385  PMB       1               0.0000000000
        88         1  PMB       H3             -7.2713264893       -4.7277971686       13.2575533212  PMB       1               0.0000000000
        89         1  PMB       H4             -5.7476622372       -5.3029471066       15.1721656466  PMB       1               0.0000000000
        90         1  PMB       H5             -3.3667134342        0.4060464232       22.5680866738  PMB       1               0.0000000000
        91         1  PMB       H6             -2.4385014327        1.6876107281       19.9246411802  PMB       1               0.0000000000
        92         1  PMB       H7             -2.1900589156        2.3805513286       21.5621689266  PMB       1               0.0000000000
        93         1  PMB       H8             -7.2656718705       -2.6099174942       16.9481820364  PMB       1               0.0000000000
        94         1  PMB       H9             -6.2261826150       -0.9128855814        9.8065515104  PMB       1               0.0000000000
        95         1  PMB       H10            -2.9765290181        2.7020288090       13.9051147797  PMB       1               0.0000000000
        96         1  PMB       H11            -7.2168695188       -2.9461718453       14.7238193127  PMB       1               0.0000000000
        97         1  PMB       H12            -4.6403915022        2.5417242893       21.9152570304  PMB       1               0.0000000000
        98         1  PMB       H13            -4.9213740026        1.9330413892       20.2460938761  PMB       1               0.0000000000
        99         1  PMB       H14            -5.2489014556       -0.1750198797       15.4700905444  PMB       1               0.0000000000
       100         1  PMB       H15            -4.1396138512        0.6889333715       12.6678470068  PMB       1               0.0000000000
       101         1  PMB       H16            -3.5782389911       -0.3397386646       14.0176152241  PMB       1               0.0000000000
       102         1  PMB       H17            -5.7268596181       -0.4758454944       12.5514814151  PMB       1               0.0000000000
       103         1  PMB       H18            -3.6016870458        3.8324771709       19.3124330152  PMB       1               0.0000000000
       104         1  PMB       H19            -3.3199111699        4.4780533952       20.9685400592  PMB       1               0.0000000000
       105         1  PMB       H20            -1.0764579312       -0.3780970849       20.6601577459  PMB       1               0.0000000000
       106         1  PMB       H21            -1.6134554068       -1.3002836927       22.1024834348  PMB       1               0.0000000000
       107         1  PMB       H22            -5.8002790062       -2.9933502831       19.1779975919  PMB       1               0.0000000000
       108         1  PMB       H23            -4.5353878199       -3.5327083762       18.0505341533  PMB       1               0.0000000000
       109         1  PMB       H24            -5.9904610835       -7.4249473427       12.9609835197  PMB       1               0.0000000000
       110         1  PMB       H25            -7.2303052320       -7.0187172159       14.2064840662  PMB       1               0.0000000000
       111         1  PMB       H26            -5.6626214636       -7.7483240607       14.7022193128  PMB       1               0.0000000000
       112         1  PMB       H27            -3.5349839453       -4.7157864338       14.1659721803  PMB       1               0.0000000000
       113         1  PMB       H28            -3.7428764797       -6.0232294653       12.9391666336  PMB       1               0.0000000000
       114         1  PMB       H29            -3.5637899787       -6.4335627812       14.6850150231  PMB       1               0.0000000000
       115         1  PMB       H30            -1.7908485103        4.0441928417       15.0299436602  PMB       1               0.0000000000
       116         1  PMB       H31            -8.4907640729       -1.6784467004       10.3049322711  PMB       1               0.0000000000
       117         1  PMB       H32            -8.5780211086       -0.1506624103        9.4365538189  PMB       1               0.0000000000
       118         1  PMB       H33            -4.7855633042        3.0567846783        9.0588299352  PMB       1               0.0000000000
       119         1  PMB       H34            -5.9974331909       -1.1417937613       18.7251294795  PMB       1               0.0000000000
       120         1  PMB       H35            -7.5756032435       -0.9108251684       14.9683544191  PMB       1               0.0000000000
       121         1  PMB       H36            -7.0196017214        0.3739385563       13.8492731791  PMB       1               0.0000000000
       122         1  PMB       H37            -1.4994739944        1.4282230328       12.8155643697  PMB       1               0.0000000000
       123         1  PMB       H38            -1.3985723466       -0.2872905193       13.2693903612  PMB       1               0.0000000000
       124         1  PMB       H39            -5.9866896742        2.4964073990       16.2204569938  PMB       1               0.0000000000
       125         1  PMB       H40            -2.9122350171        0.6787389906       16.0528986882  PMB       1               0.0000000000
       126         1  PMB       H41            -0.6253633545        1.9012357989        9.0417514982  PMB       1               0.0000000000
       127         1  PMB       H42            -3.4614974999       -0.6910296802       19.6776672495  PMB       1               0.0000000000
       128         1  PMB       H43            -4.8850254086       -0.2180447225       20.6895282287  PMB       1               0.0000000000
       129         1  PMB       H44            -3.8663972603       -1.6180711621       21.1710984059  PMB       1               0.0000000000
       130         1  PMB       H45            -5.6527190245        4.9091538320       21.3672753681  PMB       1               0.0000000000
       131         1  PMB       H46            -6.1473082269        3.9198758639       19.9987716782  PMB       1               0.0000000000
       132         1  PMB       H47            -2.5358216861        6.2988907502       14.9371080631  PMB       1               0.0000000000
       133         1  PMB       H48            -4.4286663960        1.0483545723       10.8794703888  PMB       1               0.0000000000
       134         1  PMB       H49            -5.2420777288        3.9848147682       17.5097937501  PMB       1               0.0000000000
       135         1  PMB       H50             0.4734543460        2.9403341729       15.3354431515  PMB       1               0.0000000000
       136         1  PMB       H51             0.4261799566        3.3302378401       17.0924705766  PMB       1               0.0000000000
       137         1  PMB       H52            -5.4333229346        4.1955200732       11.8798743665  PMB       1               0.0000000000
       138         1  PMB       H53            -6.6694321199        3.9417508505       10.6208739649  PMB       1               0.0000000000
       139         1  PMB       H54            -1.5967312084        4.4776378125       17.9835863287  PMB       1               0.0000000000
       140         1  PMB       H55            -0.4971108264        2.8558893413       11.9337644494  PMB       1               0.0000000000
       141         1  PMB       H56            -2.4745112024        2.9308678718        8.7199401141  PMB       1               0.0000000000
       142         1  PMB       H57            -2.5171841863       -0.8788895768       11.2299769938  PMB       1               0.0000000000
       143         1  PMB       H58            -8.9050628060       -0.5296012615       12.4856087822  PMB       1               0.0000000000
       144         1  PMB       H59            -9.0753240653        1.0475223114       11.6434437343  PMB       1               0.0000000000
       145         1  PMB       H60            -4.7328467331        7.7811198380       16.4957894686  PMB       1               0.0000000000
       146         1  PMB       H61            -1.0351368359        0.7592048599       23.5447061522  PMB       1               0.0000000000
       147         1  PMB       H62            -0.2952566174        1.5006869137       22.0789561087  PMB       1               0.0000000000
       148         1  PMB       H63             0.3758278293       -0.0245929223       22.7417774093  PMB       1               0.0000000000
       149         1  PMB       H64            -8.6976063820        1.8828764234       14.9074355863  PMB       1               0.0000000000
       150         1  PMB       H65            -9.4169573492        0.4053332171       14.3411508387  PMB       1               0.0000000000
       151         1  PMB       H66            -7.8715912616        5.5268327373       17.8796562847  PMB       1               0.0000000000
       152         1  PMB       H67            -7.3538365506        3.9425239136       18.5478746526  PMB       1               0.0000000000
       153         1  PMB       H68            -4.3277121734        5.2749808111       14.2924875447  PMB       1               0.0000000000
       154         1  PMB       H69            -5.4834591451        6.8605105628       17.8305127917  PMB       1               0.0000000000
       155         1  PMB       H70             0.5680987982        5.4277987752       14.8192857847  PMB       1               0.0000000000
       156         1  PMB       H71             0.4742064551        5.8076011146       16.5632817070  PMB       1               0.0000000000
       157         1  PMB       H72            -4.2933047649        5.8923597901       10.3658352526  PMB       1               0.0000000000
       158         1  PMB       H73            -5.5248379348        5.5750843740        9.1035379415  PMB       1               0.0000000000
       159         1  PMB       H74             1.8390382192        1.9947769754       11.8930639412  PMB       1               0.0000000000
       160         1  PMB       H75             1.6115264527        1.3014384761       10.2538978048  PMB       1               0.0000000000
       161         1  PMB       H76             0.7345146604        0.6025163846       11.6607034682  PMB       1               0.0000000000
       162         1  PMB       H77            -8.5288394524        4.3561307876       15.7622352556  PMB       1               0.0000000000
       163         1  PMB       H78            -7.7249138967        2.8859309892       16.3860030640  PMB       1               0.0000000000
       164         1  PMB       H79            -3.4057284422        9.8132010324       16.1752551576  PMB       1               0.0000000000
       165         1  PMB       H80            -2.0622701420        8.9027820879       15.3983155586  PMB       1               0.0000000000
       166         1  PMB       H81            -2.4553405961        8.6720979433       17.1466883324  PMB       1               0.0000000000
       167         1  PMB       H82            -4.6041632021       -5.7605207161       17.3133036490  PMB       1               0.0000000000
       168         1  PMB       H83            -8.1273108162       -4.0713641208       19.1138417730  PMB       1               0.0000000000
       169         1  PMB       H84           -10.7477174399       -1.3883758962       11.1930361391  PMB       1               0.0000000000
       170         1  PMB       H85           -10.8899341743        0.0592987925       10.3433078644  PMB       1               0.0000000000
       171         1  PMB       H86            -8.6536649164        0.7740804582       17.1878697768  PMB       1               0.0000000000
       172         1  PMB       H87            -9.3794617187       -0.5788399245       16.5109097215  PMB       1               0.0000000000
       173         1  PMB       H88             1.0621838755        3.4513262190        9.6909308731  PMB       1               0.0000000000
       174         1  PMB       H89            -4.6947683320        8.9831660188       14.5699656820  PMB       1               0.0000000000
       175         1  PMB       H90            -5.6216691490       -8.0115518879       17.4394310808  PMB       1               0.0000000000
       176         1  PMB       H91            -9.1292742461       -6.3330393530       19.2638553819  PMB       1               0.0000000000
       177         1  PMB       H92             2.6452994479        4.2249378366       15.2663672742  PMB       1               0.0000000000
       178         1  PMB       H93             2.5364083777        4.5993804472       16.9111448867  PMB       1               0.0000000000
       179         1  PMB       H94            -6.0863003042        6.5383803375       11.8743425511  PMB       1               0.0000000000
       180         1  PMB       H95            -7.2391764999        6.2445375948       10.6728500009  PMB       1               0.0000000000
       181         1  PMB       H96            -7.8820132450       -8.3000807135       18.4195715456  PMB       1               0.0000000000
       182         1  PMB       H97            -9.8756366761        4.3084292032       17.8551545243  PMB       1               0.0000000000
       183         1  PMB       H98            -9.2943512996        2.7736752942       18.1716105700  PMB       1               0.0000000000
       184         1  PMB       H99           -11.2494080131        0.0203949869       11.9898146491  PMB       1               0.0000000000
       185         1  PMB       H100          -10.2476908908        0.8468526589       16.5346620002  PMB       1               0.0000000000
       186         1  PMB       H101            2.7460168753        5.8353450312       15.7762866729  PMB       1               0.0000000000
       187         1  PMB       H102           -6.1129799930        7.4920306524       10.4730767378  PMB       1               0.0000000000
       188         1  PMB       H103          -10.2455232982        3.0906014610       16.7636450950  PMB       1               0.0000000000
