* GENERATED BY CHARMM-GUI (HTTP://WWW.CHARMM-GUI.ORG)
*
        85  EXT
         1         1  PMB       O1             -6.7852000000       -3.0469000000       11.1601000000  PMB       1               0.0000000000
         2         1  PMB       O2             -4.3010000000       -2.5807000000       15.7029000000  PMB       1               0.0000000000
         3         1  PMB       O3             -5.4895000000        2.8140000000       13.7039000000  PMB       1               0.0000000000
         4         1  PMB       O4             -6.2738000000        1.0933000000       18.0936000000  PMB       1               0.0000000000
         5         1  PMB       O5             -7.2798000000        1.8008000000        9.8696000000  PMB       1               0.0000000000
         6         1  PMB       O6              0.5638000000        3.7379000000       10.4266000000  PMB       1               0.0000000000
         7         1  PMB       O7             -1.6415000000        1.8555000000       17.4570000000  PMB       1               0.0000000000
         8         1  PMB       O8             -4.3969000000        8.1324000000       14.4418000000  PMB       1               0.0000000000
         9         1  PMB       O9             -2.9616000000        3.5033000000       11.7376000000  PMB       1               0.0000000000
        10         1  PMB       O10            -1.7640000000       -0.1314000000        9.1946000000  PMB       1               0.0000000000
        11         1  PMB       O11            -2.7707000000        6.4066000000       18.0062000000  PMB       1               0.0000000000
        12         1  PMB       O12            -5.3357000000        6.9387000000       20.0810000000  PMB       1               0.0000000000
        13         1  PMB       O13            -6.4672000000        5.0205000000       14.9480000000  PMB       1               0.0000000000
        14         1  PMB       N1             -6.2880000000       -2.7547000000       14.6034000000  PMB       1               0.0000000000
        15         1  PMB       N2             -6.2351000000       -1.0066000000       11.8747000000  PMB       1               0.0000000000
        16         1  PMB       N3             -6.1003000000       -1.0770000000       17.7215000000  PMB       1               0.0000000000
        17         1  PMB       N4             -5.6198000000        1.8697000000       15.6537000000  PMB       1               0.0000000000
        18         1  PMB       N5             -2.8101000000        1.5875000000       15.6431000000  PMB       1               0.0000000000
        19         1  PMB       N6             -5.1459000000        1.6644000000       10.5497000000  PMB       1               0.0000000000
        20         1  PMB       N7             -1.9028000000        4.6445000000       17.0634000000  PMB       1               0.0000000000
        21         1  PMB       N8             -2.2561000000        2.8137000000        9.7233000000  PMB       1               0.0000000000
        22         1  PMB       N9             -2.2103000000        0.0177000000       11.3347000000  PMB       1               0.0000000000
        23         1  PMB       N10            -4.3668000000        5.4746000000       15.2008000000  PMB       1               0.0000000000
        24         1  PMB       N11            -5.5954000000        5.9093000000       18.1525000000  PMB       1               0.0000000000
        25         1  PMB       N12           -10.6231000000       -0.3373000000       11.3554000000  PMB       1               0.0000000000
        26         1  PMB       N13            -9.2906000000        0.5944000000       16.3869000000  PMB       1               0.0000000000
        27         1  PMB       N14             2.3043000000        4.9271000000       15.9611000000  PMB       1               0.0000000000
        28         1  PMB       N15            -6.2925000000        6.5065000000       10.8545000000  PMB       1               0.0000000000
        29         1  PMB       N16            -9.4307000000        3.2206000000       17.3199000000  PMB       1               0.0000000000
        30         1  PMB       C1             -5.8083000000       -3.1348000000       13.2995000000  PMB       1               0.0000000000
        31         1  PMB       C2             -6.2312000000       -4.6550000000       13.1973000000  PMB       1               0.0000000000
        32         1  PMB       C3             -5.5494000000       -5.6503000000       14.1792000000  PMB       1               0.0000000000
        33         1  PMB       C4             -2.9603000000        0.3374000000       21.5528000000  PMB       1               0.0000000000
        34         1  PMB       C5             -2.8826000000        1.7732000000       20.9518000000  PMB       1               0.0000000000
        35         1  PMB       C6             -6.2143000000       -2.3785000000       17.1055000000  PMB       1               0.0000000000
        36         1  PMB       C7             -6.7552000000       -0.3525000000       10.6661000000  PMB       1               0.0000000000
        37         1  PMB       C8             -3.4593000000        1.8461000000       14.4031000000  PMB       1               0.0000000000
        38         1  PMB       C9             -6.3218000000       -2.3668000000       12.1072000000  PMB       1               0.0000000000
        39         1  PMB       C10            -4.2399000000        2.4602000000       20.9093000000  PMB       1               0.0000000000
        40         1  PMB       C11            -6.0911000000        0.5334000000       15.8053000000  PMB       1               0.0000000000
        41         1  PMB       C12            -3.4182000000        0.6049000000       13.4461000000  PMB       1               0.0000000000
        42         1  PMB       C13            -5.5541000000       -2.5739000000       15.7622000000  PMB       1               0.0000000000
        43         1  PMB       C14            -4.0058000000        3.8654000000       20.3618000000  PMB       1               0.0000000000
        44         1  PMB       C15            -1.5186000000       -0.2536000000       21.6741000000  PMB       1               0.0000000000
        45         1  PMB       C16            -5.6586000000       -3.3965000000       18.1749000000  PMB       1               0.0000000000
        46         1  PMB       C17            -6.1623000000       -7.0732000000       14.0062000000  PMB       1               0.0000000000
        47         1  PMB       C18            -4.0035000000       -5.6921000000       13.9762000000  PMB       1               0.0000000000
        48         1  PMB       C19            -8.3132000000       -0.6078000000       10.4677000000  PMB       1               0.0000000000
        49         1  PMB       C20            -1.4165000000        3.7411000000       16.0632000000  PMB       1               0.0000000000
        50         1  PMB       C21            -4.7127000000        3.0133000000       10.1794000000  PMB       1               0.0000000000
        51         1  PMB       C22            -7.3262000000        0.1782000000       14.9037000000  PMB       1               0.0000000000
        52         1  PMB       C23            -4.8614000000        2.2590000000       14.6230000000  PMB       1               0.0000000000
        53         1  PMB       C24            -6.1990000000        0.1874000000       17.2296000000  PMB       1               0.0000000000
        54         1  PMB       C25            -2.0643000000        0.4335000000       12.7035000000  PMB       1               0.0000000000
        55         1  PMB       C26            -6.3983000000        1.0928000000       10.4084000000  PMB       1               0.0000000000
        56         1  PMB       C27            -1.1131000000        1.9834000000       10.0157000000  PMB       1               0.0000000000
        57         1  PMB       C28            -3.8833000000       -0.6122000000       20.7066000000  PMB       1               0.0000000000
        58         1  PMB       C29            -5.3900000000        4.5980000000       20.3022000000  PMB       1               0.0000000000
        59         1  PMB       C30            -3.2991000000        6.3050000000       15.6922000000  PMB       1               0.0000000000
        60         1  PMB       C31            -1.9718000000        2.3837000000       16.3726000000  PMB       1               0.0000000000
        61         1  PMB       C32            -5.8702000000        4.8485000000       17.2340000000  PMB       1               0.0000000000
        62         1  PMB       C33             0.1493000000        3.6931000000       16.1235000000  PMB       1               0.0000000000
        63         1  PMB       C34            -5.6097000000        4.1665000000       10.7708000000  PMB       1               0.0000000000
        64         1  PMB       C35            -3.2664000000        3.1513000000       10.5783000000  PMB       1               0.0000000000
        65         1  PMB       C36            -0.0087000000        2.5587000000       10.9797000000  PMB       1               0.0000000000
        66         1  PMB       C37            -9.2069000000       -0.0381000000       11.5924000000  PMB       1               0.0000000000
        67         1  PMB       C38            -6.3116000000       -4.7299000000       18.1943000000  PMB       1               0.0000000000
        68         1  PMB       C39            -1.6750000000        0.5973000000       10.2123000000  PMB       1               0.0000000000
        69         1  PMB       C40            -2.6628000000        5.7722000000       16.9336000000  PMB       1               0.0000000000
        70         1  PMB       C41            -3.9012000000        7.7614000000       15.7271000000  PMB       1               0.0000000000
        71         1  PMB       C42            -0.5433000000        0.5740000000       22.5671000000  PMB       1               0.0000000000
        72         1  PMB       C43            -8.7049000000        0.8511000000       15.0565000000  PMB       1               0.0000000000
        73         1  PMB       C44            -5.5265000000        5.8569000000       19.4819000000  PMB       1               0.0000000000
        74         1  PMB       C45            -7.3276000000        4.4054000000       17.5521000000  PMB       1               0.0000000000
        75         1  PMB       C46            -5.5602000000        5.1446000000       15.8025000000  PMB       1               0.0000000000
        76         1  PMB       C47             0.8451000000        5.0428000000       15.8536000000  PMB       1               0.0000000000
        77         1  PMB       C48            -5.3698000000        5.5720000000       10.1926000000  PMB       1               0.0000000000
        78         1  PMB       C49             1.1496000000        1.5681000000       11.2331000000  PMB       1               0.0000000000
        79         1  PMB       C50            -8.2070000000        3.6316000000       16.6295000000  PMB       1               0.0000000000
        80         1  PMB       C51            -2.9382000000        8.8794000000       16.1630000000  PMB       1               0.0000000000
        81         1  PMB       C52            -5.6054000000       -5.8604000000       17.7328000000  PMB       1               0.0000000000
        82         1  PMB       C53            -7.6020000000       -4.9195000000       18.7510000000  PMB       1               0.0000000000
        83         1  PMB       C54            -6.1658000000       -7.1423000000       17.7935000000  PMB       1               0.0000000000
        84         1  PMB       C55            -8.1549000000       -6.2114000000       18.8451000000  PMB       1               0.0000000000
        85         1  PMB       C56            -7.4393000000       -7.3231000000       18.3587000000  PMB       1               0.0000000000
