#include "martini3/martini_v3.0.0.itp"
#include "martini3/martini_v3.0.0_ffbonded_v2.itp"
#include "martini3/martini_v3.0.0_phospholipids_PG_v2.itp"
#include "martini3/martini_v3.0.0_phospholipids_PE_v2.itp"
#include "martini3/martini_v3.0.0_phospholipids_CL_v2.itp"
#include "martini3/martini_v3.0.0_ions_v1.itp"
#include "martini3/martini_v3.0.0_solvents_v1.itp"
#include "martini3/martini_v3.0.0_sterols_v1.itp"
#include "KU04.itp"

[ system ]
; name
ku04_gim

[ molecules ]
; name number
KU04    8
DOPE   30
DVPE  169
POPE   44
POPG   70
TOCL    7
DOPE   29
DVPE  165
POPE   43
POPG   68
TOCL    7
W    6105
NA    249
CL     87
