#include "martini3/martini_v3.0.0.itp"
#include "martini3/martini_v3.0.0_ffbonded_v2.itp"
#include "martini3/martini_v3.0.0_phospholipids_PG_v2.itp"
#include "martini3/martini_v3.0.0_phospholipids_PE_v2.itp"
#include "martini3/martini_v3.0.0_phospholipids_CL_v2.itp"
#include "martini3/martini_v3.0.0_ions_v1.itp"
#include "martini3/martini_v3.0.0_solvents_v1.itp"
#include "martini3/martini_v3.0.0_sterols_v1.itp"
#include "KU04.itp"

[ system ]
; name
ku04_gim_multi

[ molecules ]
; name number
KU04     1
KU04     1
KU04     1
KU04     1
KU04     1
KU04     1
KU04     1
KU04     1
KU04     1
KU04     1
KU04     1
KU04     1
DOPE    14
DVPE    80
POPE    44
POPG    33
TOCL     4
DOPE    26
DVPE   147
POPE    80
POPG    61
TOCL     7
W    14490
NA     225
CL     157
