;;
;; Generated by CHARMM-GUI FF-Converter
;;
;; Correspondance:
;; jul316@lehigh.edu or wonpil@lehigh.edu
;;
;; GROMACS topology file for LPSA
;;


[ moleculetype ]
; name	nrexcl
LPSA	     3

[ atoms ]
; nr	type	resnr	residu	atom	cgnr	charge	mass
     1       HCA2      1   ECLIPA   HB6S      1     0.090000     1.0080   ; qtot  0.090
     2      OC301      1   ECLIPA    OB6      2    -0.360000    15.9994   ; qtot -0.270
     3      CC321      1   ECLIPA    CB6      3     0.000000    12.0110   ; qtot -0.270
     4       HCA2      1   ECLIPA   HB6R      4     0.090000     1.0080   ; qtot -0.180
     5     CC3163      1   ECLIPA    CB5      5     0.110000    12.0110   ; qtot -0.070
     6     OC3C61      1   ECLIPA    OB5      6    -0.400000    15.9994   ; qtot -0.470
     7       HCA1      1   ECLIPA    HB5      7     0.090000     1.0080   ; qtot -0.380
     8     CC3162      1   ECLIPA    CB1      8     0.290000    12.0110   ; qtot -0.090
     9       HCA1      1   ECLIPA    HB1      9     0.090000     1.0080   ; qtot -0.000
    10      OC301      1   ECLIPA    OA6     10    -0.360000    15.9994   ; qtot -0.360
    11      CC321      1   ECLIPA    CA6     11     0.000000    12.0110   ; qtot -0.360
    12       HCA2      1   ECLIPA   HA6R     12     0.090000     1.0080   ; qtot -0.270
    13       HCA2      1   ECLIPA   HA6S     13     0.090000     1.0080   ; qtot -0.180
    14     CC3161      1   ECLIPA    CB4     14    -0.090000    12.0110   ; qtot -0.270
    15       HCA1      1   ECLIPA    HB4     15     0.090000     1.0080   ; qtot -0.180
    16      OC30P      1   ECLIPA    OB4     16    -0.400000    15.9994   ; qtot -0.580
    17         PC      1   ECLIPA     PB     17     1.100000    30.9740   ; qtot  0.520
    18      OC2DP      1   ECLIPA   OPB4     18    -0.900000    15.9994   ; qtot -0.380
    19      OC2DP      1   ECLIPA   OPB3     19    -0.900000    15.9994   ; qtot -1.280
    20      OC2DP      1   ECLIPA   OPB2     20    -0.900000    15.9994   ; qtot -2.180
    21     CC3161      1   ECLIPA    CB3     21     0.170000    12.0110   ; qtot -2.010
    22      OC301      1   ECLIPA    OB3     22    -0.490000    15.9994   ; qtot -2.500
    23       HCA1      1   ECLIPA    HB3     23     0.090000     1.0080   ; qtot -2.410
    24         CL      1   ECLIPA    C71     24     0.900000    12.0110   ; qtot -1.510
    25        OBL      1   ECLIPA    O71     25    -0.630000    15.9994   ; qtot -2.140
    26       CTL2      1   ECLIPA    C72     26    -0.220000    12.0110   ; qtot -2.360
    27       HAL2      1   ECLIPA   H72R     27     0.090000     1.0080   ; qtot -2.270
    28       HAL2      1   ECLIPA   H72S     28     0.090000     1.0080   ; qtot -2.180
    29     CC3161      1   ECLIPA    CB2     29     0.070000    12.0110   ; qtot -2.110
    30       HCA1      1   ECLIPA    HB2     30     0.090000     1.0080   ; qtot -2.020
    31      NC2D1      1   ECLIPA    NB2     31    -0.470000    14.0070   ; qtot -2.490
    32       HCP1      1   ECLIPA   HNB2     32     0.310000     1.0080   ; qtot -2.180
    33     CC3161      1   ECLIPA    CA4     33     0.140000    12.0110   ; qtot -2.040
    34       HCA1      1   ECLIPA    HA4     34     0.090000     1.0080   ; qtot -1.950
    35      OC311      1   ECLIPA    OA4     35    -0.650000    15.9994   ; qtot -2.600
    36       HCP1      1   ECLIPA   HOA4     36     0.420000     1.0080   ; qtot -2.180
    37     CC3163      1   ECLIPA    CA5     37     0.110000    12.0110   ; qtot -2.070
    38       HCA1      1   ECLIPA    HA5     38     0.090000     1.0080   ; qtot -1.980
    39     OC3C61      1   ECLIPA    OA5     39    -0.400000    15.9994   ; qtot -2.380
    40     CC3162      1   ECLIPA    CA1     40     0.110000    12.0110   ; qtot -2.270
    41       HCA1      1   ECLIPA    HA1     41     0.090000     1.0080   ; qtot -2.180
    42      OC30P      1   ECLIPA    OA1     42    -0.400000    15.9994   ; qtot -2.580
    43      OC2DP      1   ECLIPA   OPA2     43    -0.900000    15.9994   ; qtot -3.480
    44      OC2DP      1   ECLIPA   OPA3     44    -0.900000    15.9994   ; qtot -4.380
    45      OC2DP      1   ECLIPA   OPA4     45    -0.900000    15.9994   ; qtot -5.280
    46         PC      1   ECLIPA     PA     46     1.100000    30.9740   ; qtot -4.180
    47     CC3161      1   ECLIPA    CA3     47     0.170000    12.0110   ; qtot -4.010
    48       HCA1      1   ECLIPA    HA3     48     0.090000     1.0080   ; qtot -3.920
    49      OC301      1   ECLIPA    OA3     49    -0.490000    15.9994   ; qtot -4.410
    50         CL      1   ECLIPA    C31     50     0.900000    12.0110   ; qtot -3.510
    51        OBL      1   ECLIPA    O31     51    -0.630000    15.9994   ; qtot -4.140
    52       CTL2      1   ECLIPA    C32     52    -0.220000    12.0110   ; qtot -4.360
    53       HAL2      1   ECLIPA   H32R     53     0.090000     1.0080   ; qtot -4.270
    54       HAL2      1   ECLIPA   H32S     54     0.090000     1.0080   ; qtot -4.180
    55     CC3161      1   ECLIPA    CA2     55     0.070000    12.0110   ; qtot -4.110
    56       HCA1      1   ECLIPA    HA2     56     0.090000     1.0080   ; qtot -4.020
    57      NC2D1      1   ECLIPA    NA2     57    -0.470000    14.0070   ; qtot -4.490
    58       HCP1      1   ECLIPA   HNA2     58     0.310000     1.0080   ; qtot -4.180
    59       CTL1      1   ECLIPA    C73     59     0.170000    12.0110   ; qtot -4.010
    60       HAL1      1   ECLIPA   H73R     60     0.090000     1.0080   ; qtot -3.920
    61        OSL      1   ECLIPA    O73     61    -0.490000    15.9994   ; qtot -4.410
    62         CL      1   ECLIPA    C81     62     0.900000    12.0110   ; qtot -3.510
    63        OBL      1   ECLIPA    O81     63    -0.630000    15.9994   ; qtot -4.140
    64       CTL2      1   ECLIPA    C82     64    -0.220000    12.0110   ; qtot -4.360
    65       HAL2      1   ECLIPA   H82R     65     0.090000     1.0080   ; qtot -4.270
    66       HAL2      1   ECLIPA   H82S     66     0.090000     1.0080   ; qtot -4.180
    67       CTL2      1   ECLIPA    C83     67    -0.180000    12.0110   ; qtot -4.360
    68       HAL2      1   ECLIPA   H83R     68     0.090000     1.0080   ; qtot -4.270
    69       HAL2      1   ECLIPA   H83S     69     0.090000     1.0080   ; qtot -4.180
    70       CTL2      1   ECLIPA    C84     70    -0.180000    12.0110   ; qtot -4.360
    71       HAL2      1   ECLIPA   H84R     71     0.090000     1.0080   ; qtot -4.270
    72       HAL2      1   ECLIPA   H84S     72     0.090000     1.0080   ; qtot -4.180
    73       CTL2      1   ECLIPA    C85     73    -0.180000    12.0110   ; qtot -4.360
    74       HAL2      1   ECLIPA   H85R     74     0.090000     1.0080   ; qtot -4.270
    75       HAL2      1   ECLIPA   H85S     75     0.090000     1.0080   ; qtot -4.180
    76       CTL2      1   ECLIPA    C86     76    -0.180000    12.0110   ; qtot -4.360
    77       HAL2      1   ECLIPA   H86R     77     0.090000     1.0080   ; qtot -4.270
    78       HAL2      1   ECLIPA   H86S     78     0.090000     1.0080   ; qtot -4.180
    79       CTL2      1   ECLIPA    C87     79    -0.180000    12.0110   ; qtot -4.360
    80       HAL2      1   ECLIPA   H87R     80     0.090000     1.0080   ; qtot -4.270
    81       HAL2      1   ECLIPA   H87S     81     0.090000     1.0080   ; qtot -4.180
    82       CTL2      1   ECLIPA    C88     82    -0.180000    12.0110   ; qtot -4.360
    83       HAL2      1   ECLIPA   H88R     83     0.090000     1.0080   ; qtot -4.270
    84       HAL2      1   ECLIPA   H88S     84     0.090000     1.0080   ; qtot -4.180
    85       CTL2      1   ECLIPA    C89     85    -0.180000    12.0110   ; qtot -4.360
    86       HAL2      1   ECLIPA   H89R     86     0.090000     1.0080   ; qtot -4.270
    87       HAL2      1   ECLIPA   H89S     87     0.090000     1.0080   ; qtot -4.180
    88       CTL2      1   ECLIPA   C810     88    -0.180000    12.0110   ; qtot -4.360
    89       HAL2      1   ECLIPA  H810R     89     0.090000     1.0080   ; qtot -4.270
    90       HAL2      1   ECLIPA  H810S     90     0.090000     1.0080   ; qtot -4.180
    91       CTL2      1   ECLIPA   C811     91    -0.180000    12.0110   ; qtot -4.360
    92       HAL2      1   ECLIPA  H811R     92     0.090000     1.0080   ; qtot -4.270
    93       HAL2      1   ECLIPA  H811S     93     0.090000     1.0080   ; qtot -4.180
    94       CTL2      1   ECLIPA   C812     94    -0.180000    12.0110   ; qtot -4.360
    95       HAL2      1   ECLIPA  H812R     95     0.090000     1.0080   ; qtot -4.270
    96       HAL2      1   ECLIPA  H812S     96     0.090000     1.0080   ; qtot -4.180
    97       CTL2      1   ECLIPA   C813     97    -0.180000    12.0110   ; qtot -4.360
    98       HAL2      1   ECLIPA  H813R     98     0.090000     1.0080   ; qtot -4.270
    99       HAL2      1   ECLIPA  H813S     99     0.090000     1.0080   ; qtot -4.180
   100       CTL3      1   ECLIPA   C814    100    -0.270000    12.0110   ; qtot -4.450
   101       HAL3      1   ECLIPA  H814R    101     0.090000     1.0080   ; qtot -4.360
   102       HAL3      1   ECLIPA  H814S    102     0.090000     1.0080   ; qtot -4.270
   103       HAL3      1   ECLIPA  H814T    103     0.090000     1.0080   ; qtot -4.180
   104       CTL2      1   ECLIPA    C74    104    -0.180000    12.0110   ; qtot -4.360
   105       HAL2      1   ECLIPA   H74R    105     0.090000     1.0080   ; qtot -4.270
   106       HAL2      1   ECLIPA   H74S    106     0.090000     1.0080   ; qtot -4.180
   107       CTL2      1   ECLIPA    C75    107    -0.180000    12.0110   ; qtot -4.360
   108       HAL2      1   ECLIPA   H75R    108     0.090000     1.0080   ; qtot -4.270
   109       HAL2      1   ECLIPA   H75S    109     0.090000     1.0080   ; qtot -4.180
   110       CTL2      1   ECLIPA    C76    110    -0.180000    12.0110   ; qtot -4.360
   111       HAL2      1   ECLIPA   H76R    111     0.090000     1.0080   ; qtot -4.270
   112       HAL2      1   ECLIPA   H76S    112     0.090000     1.0080   ; qtot -4.180
   113       CTL2      1   ECLIPA    C77    113    -0.180000    12.0110   ; qtot -4.360
   114       HAL2      1   ECLIPA   H77R    114     0.090000     1.0080   ; qtot -4.270
   115       HAL2      1   ECLIPA   H77S    115     0.090000     1.0080   ; qtot -4.180
   116       CTL2      1   ECLIPA    C78    116    -0.180000    12.0110   ; qtot -4.360
   117       HAL2      1   ECLIPA   H78R    117     0.090000     1.0080   ; qtot -4.270
   118       HAL2      1   ECLIPA   H78S    118     0.090000     1.0080   ; qtot -4.180
   119       CTL2      1   ECLIPA    C79    119    -0.180000    12.0110   ; qtot -4.360
   120       HAL2      1   ECLIPA   H79R    120     0.090000     1.0080   ; qtot -4.270
   121       HAL2      1   ECLIPA   H79S    121     0.090000     1.0080   ; qtot -4.180
   122       CTL2      1   ECLIPA   C710    122    -0.180000    12.0110   ; qtot -4.360
   123       HAL2      1   ECLIPA  H710R    123     0.090000     1.0080   ; qtot -4.270
   124       HAL2      1   ECLIPA  H710S    124     0.090000     1.0080   ; qtot -4.180
   125       CTL2      1   ECLIPA   C711    125    -0.180000    12.0110   ; qtot -4.360
   126       HAL2      1   ECLIPA  H711R    126     0.090000     1.0080   ; qtot -4.270
   127       HAL2      1   ECLIPA  H711S    127     0.090000     1.0080   ; qtot -4.180
   128       CTL2      1   ECLIPA   C712    128    -0.180000    12.0110   ; qtot -4.360
   129       HAL2      1   ECLIPA  H712R    129     0.090000     1.0080   ; qtot -4.270
   130       HAL2      1   ECLIPA  H712S    130     0.090000     1.0080   ; qtot -4.180
   131       CTL2      1   ECLIPA   C713    131    -0.180000    12.0110   ; qtot -4.360
   132       HAL2      1   ECLIPA  H713R    132     0.090000     1.0080   ; qtot -4.270
   133       HAL2      1   ECLIPA  H713S    133     0.090000     1.0080   ; qtot -4.180
   134       CTL3      1   ECLIPA   C714    134    -0.270000    12.0110   ; qtot -4.450
   135       HAL3      1   ECLIPA  H714R    135     0.090000     1.0080   ; qtot -4.360
   136       HAL3      1   ECLIPA  H714S    136     0.090000     1.0080   ; qtot -4.270
   137       HAL3      1   ECLIPA  H714T    137     0.090000     1.0080   ; qtot -4.180
   138      CC2O1      1   ECLIPA    C51    138     0.550000    12.0110   ; qtot -3.630
   139      OC2D1      1   ECLIPA    O51    139    -0.550000    15.9994   ; qtot -4.180
   140       CTL2      1   ECLIPA    C52    140    -0.180000    12.0110   ; qtot -4.360
   141       HAL2      1   ECLIPA   H52R    141     0.090000     1.0080   ; qtot -4.270
   142       HAL2      1   ECLIPA   H52S    142     0.090000     1.0080   ; qtot -4.180
   143       CTL1      1   ECLIPA    C53    143     0.170000    12.0110   ; qtot -4.010
   144       HAL1      1   ECLIPA   H53R    144     0.090000     1.0080   ; qtot -3.920
   145        OSL      1   ECLIPA    O53    145    -0.490000    15.9994   ; qtot -4.410
   146         CL      1   ECLIPA    C61    146     0.900000    12.0110   ; qtot -3.510
   147        OBL      1   ECLIPA    O61    147    -0.630000    15.9994   ; qtot -4.140
   148       CTL2      1   ECLIPA    C62    148    -0.220000    12.0110   ; qtot -4.360
   149       HAL2      1   ECLIPA   H62R    149     0.090000     1.0080   ; qtot -4.270
   150       HAL2      1   ECLIPA   H62S    150     0.090000     1.0080   ; qtot -4.180
   151       CTL2      1   ECLIPA    C63    151    -0.180000    12.0110   ; qtot -4.360
   152       HAL2      1   ECLIPA   H63R    152     0.090000     1.0080   ; qtot -4.270
   153       HAL2      1   ECLIPA   H63S    153     0.090000     1.0080   ; qtot -4.180
   154       CTL2      1   ECLIPA    C64    154    -0.180000    12.0110   ; qtot -4.360
   155       HAL2      1   ECLIPA   H64R    155     0.090000     1.0080   ; qtot -4.270
   156       HAL2      1   ECLIPA   H64S    156     0.090000     1.0080   ; qtot -4.180
   157       CTL2      1   ECLIPA    C65    157    -0.180000    12.0110   ; qtot -4.360
   158       HAL2      1   ECLIPA   H65R    158     0.090000     1.0080   ; qtot -4.270
   159       HAL2      1   ECLIPA   H65S    159     0.090000     1.0080   ; qtot -4.180
   160       CTL2      1   ECLIPA    C66    160    -0.180000    12.0110   ; qtot -4.360
   161       HAL2      1   ECLIPA   H66R    161     0.090000     1.0080   ; qtot -4.270
   162       HAL2      1   ECLIPA   H66S    162     0.090000     1.0080   ; qtot -4.180
   163       CTL2      1   ECLIPA    C67    163    -0.180000    12.0110   ; qtot -4.360
   164       HAL2      1   ECLIPA   H67R    164     0.090000     1.0080   ; qtot -4.270
   165       HAL2      1   ECLIPA   H67S    165     0.090000     1.0080   ; qtot -4.180
   166       CTL2      1   ECLIPA    C68    166    -0.180000    12.0110   ; qtot -4.360
   167       HAL2      1   ECLIPA   H68R    167     0.090000     1.0080   ; qtot -4.270
   168       HAL2      1   ECLIPA   H68S    168     0.090000     1.0080   ; qtot -4.180
   169       CTL2      1   ECLIPA    C69    169    -0.180000    12.0110   ; qtot -4.360
   170       HAL2      1   ECLIPA   H69R    170     0.090000     1.0080   ; qtot -4.270
   171       HAL2      1   ECLIPA   H69S    171     0.090000     1.0080   ; qtot -4.180
   172       CTL2      1   ECLIPA   C610    172    -0.180000    12.0110   ; qtot -4.360
   173       HAL2      1   ECLIPA  H610R    173     0.090000     1.0080   ; qtot -4.270
   174       HAL2      1   ECLIPA  H610S    174     0.090000     1.0080   ; qtot -4.180
   175       CTL2      1   ECLIPA   C611    175    -0.180000    12.0110   ; qtot -4.360
   176       HAL2      1   ECLIPA  H611R    176     0.090000     1.0080   ; qtot -4.270
   177       HAL2      1   ECLIPA  H611S    177     0.090000     1.0080   ; qtot -4.180
   178       CTL3      1   ECLIPA   C612    178    -0.270000    12.0110   ; qtot -4.450
   179       HAL3      1   ECLIPA  H612R    179     0.090000     1.0080   ; qtot -4.360
   180       HAL3      1   ECLIPA  H612S    180     0.090000     1.0080   ; qtot -4.270
   181       HAL3      1   ECLIPA  H612T    181     0.090000     1.0080   ; qtot -4.180
   182       CTL2      1   ECLIPA    C54    182    -0.180000    12.0110   ; qtot -4.360
   183       HAL2      1   ECLIPA   H54R    183     0.090000     1.0080   ; qtot -4.270
   184       HAL2      1   ECLIPA   H54S    184     0.090000     1.0080   ; qtot -4.180
   185       CTL2      1   ECLIPA    C55    185    -0.180000    12.0110   ; qtot -4.360
   186       HAL2      1   ECLIPA   H55R    186     0.090000     1.0080   ; qtot -4.270
   187       HAL2      1   ECLIPA   H55S    187     0.090000     1.0080   ; qtot -4.180
   188       CTL2      1   ECLIPA    C56    188    -0.180000    12.0110   ; qtot -4.360
   189       HAL2      1   ECLIPA   H56R    189     0.090000     1.0080   ; qtot -4.270
   190       HAL2      1   ECLIPA   H56S    190     0.090000     1.0080   ; qtot -4.180
   191       CTL2      1   ECLIPA    C57    191    -0.180000    12.0110   ; qtot -4.360
   192       HAL2      1   ECLIPA   H57R    192     0.090000     1.0080   ; qtot -4.270
   193       HAL2      1   ECLIPA   H57S    193     0.090000     1.0080   ; qtot -4.180
   194       CTL2      1   ECLIPA    C58    194    -0.180000    12.0110   ; qtot -4.360
   195       HAL2      1   ECLIPA   H58R    195     0.090000     1.0080   ; qtot -4.270
   196       HAL2      1   ECLIPA   H58S    196     0.090000     1.0080   ; qtot -4.180
   197       CTL2      1   ECLIPA    C59    197    -0.180000    12.0110   ; qtot -4.360
   198       HAL2      1   ECLIPA   H59R    198     0.090000     1.0080   ; qtot -4.270
   199       HAL2      1   ECLIPA   H59S    199     0.090000     1.0080   ; qtot -4.180
   200       CTL2      1   ECLIPA   C510    200    -0.180000    12.0110   ; qtot -4.360
   201       HAL2      1   ECLIPA  H510R    201     0.090000     1.0080   ; qtot -4.270
   202       HAL2      1   ECLIPA  H510S    202     0.090000     1.0080   ; qtot -4.180
   203       CTL2      1   ECLIPA   C511    203    -0.180000    12.0110   ; qtot -4.360
   204       HAL2      1   ECLIPA  H511R    204     0.090000     1.0080   ; qtot -4.270
   205       HAL2      1   ECLIPA  H511S    205     0.090000     1.0080   ; qtot -4.180
   206       CTL2      1   ECLIPA   C512    206    -0.180000    12.0110   ; qtot -4.360
   207       HAL2      1   ECLIPA  H512R    207     0.090000     1.0080   ; qtot -4.270
   208       HAL2      1   ECLIPA  H512S    208     0.090000     1.0080   ; qtot -4.180
   209       CTL2      1   ECLIPA   C513    209    -0.180000    12.0110   ; qtot -4.360
   210       HAL2      1   ECLIPA  H513R    210     0.090000     1.0080   ; qtot -4.270
   211       HAL2      1   ECLIPA  H513S    211     0.090000     1.0080   ; qtot -4.180
   212       CTL3      1   ECLIPA   C514    212    -0.270000    12.0110   ; qtot -4.450
   213       HAL3      1   ECLIPA  H514R    213     0.090000     1.0080   ; qtot -4.360
   214       HAL3      1   ECLIPA  H514S    214     0.090000     1.0080   ; qtot -4.270
   215       HAL3      1   ECLIPA  H514T    215     0.090000     1.0080   ; qtot -4.180
   216       CTL1      1   ECLIPA    C33    216     0.140000    12.0110   ; qtot -4.040
   217       HAL1      1   ECLIPA   H33R    217     0.090000     1.0080   ; qtot -3.950
   218        OH1      1   ECLIPA    O33    218    -0.660000    15.9994   ; qtot -4.610
   219          H      1   ECLIPA   HO33    219     0.430000     1.0080   ; qtot -4.180
   220       CTL2      1   ECLIPA    C34    220    -0.180000    12.0110   ; qtot -4.360
   221       HAL2      1   ECLIPA   H34R    221     0.090000     1.0080   ; qtot -4.270
   222       HAL2      1   ECLIPA   H34S    222     0.090000     1.0080   ; qtot -4.180
   223       CTL2      1   ECLIPA    C35    223    -0.180000    12.0110   ; qtot -4.360
   224       HAL2      1   ECLIPA   H35R    224     0.090000     1.0080   ; qtot -4.270
   225       HAL2      1   ECLIPA   H35S    225     0.090000     1.0080   ; qtot -4.180
   226       CTL2      1   ECLIPA    C36    226    -0.180000    12.0110   ; qtot -4.360
   227       HAL2      1   ECLIPA   H36R    227     0.090000     1.0080   ; qtot -4.270
   228       HAL2      1   ECLIPA   H36S    228     0.090000     1.0080   ; qtot -4.180
   229       CTL2      1   ECLIPA    C37    229    -0.180000    12.0110   ; qtot -4.360
   230       HAL2      1   ECLIPA   H37R    230     0.090000     1.0080   ; qtot -4.270
   231       HAL2      1   ECLIPA   H37S    231     0.090000     1.0080   ; qtot -4.180
   232       CTL2      1   ECLIPA    C38    232    -0.180000    12.0110   ; qtot -4.360
   233       HAL2      1   ECLIPA   H38R    233     0.090000     1.0080   ; qtot -4.270
   234       HAL2      1   ECLIPA   H38S    234     0.090000     1.0080   ; qtot -4.180
   235       CTL2      1   ECLIPA    C39    235    -0.180000    12.0110   ; qtot -4.360
   236       HAL2      1   ECLIPA   H39R    236     0.090000     1.0080   ; qtot -4.270
   237       HAL2      1   ECLIPA   H39S    237     0.090000     1.0080   ; qtot -4.180
   238       CTL2      1   ECLIPA   C310    238    -0.180000    12.0110   ; qtot -4.360
   239       HAL2      1   ECLIPA  H310R    239     0.090000     1.0080   ; qtot -4.270
   240       HAL2      1   ECLIPA  H310S    240     0.090000     1.0080   ; qtot -4.180
   241       CTL2      1   ECLIPA   C311    241    -0.180000    12.0110   ; qtot -4.360
   242       HAL2      1   ECLIPA  H311R    242     0.090000     1.0080   ; qtot -4.270
   243       HAL2      1   ECLIPA  H311S    243     0.090000     1.0080   ; qtot -4.180
   244       CTL2      1   ECLIPA   C312    244    -0.180000    12.0110   ; qtot -4.360
   245       HAL2      1   ECLIPA  H312R    245     0.090000     1.0080   ; qtot -4.270
   246       HAL2      1   ECLIPA  H312S    246     0.090000     1.0080   ; qtot -4.180
   247       CTL2      1   ECLIPA   C313    247    -0.180000    12.0110   ; qtot -4.360
   248       HAL2      1   ECLIPA  H313R    248     0.090000     1.0080   ; qtot -4.270
   249       HAL2      1   ECLIPA  H313S    249     0.090000     1.0080   ; qtot -4.180
   250       CTL3      1   ECLIPA   C314    250    -0.270000    12.0110   ; qtot -4.450
   251       HAL3      1   ECLIPA  H314R    251     0.090000     1.0080   ; qtot -4.360
   252       HAL3      1   ECLIPA  H314S    252     0.090000     1.0080   ; qtot -4.270
   253       HAL3      1   ECLIPA  H314T    253     0.090000     1.0080   ; qtot -4.180
   254      CC2O1      1   ECLIPA    C11    254     0.550000    12.0110   ; qtot -3.630
   255      OC2D1      1   ECLIPA    O11    255    -0.550000    15.9994   ; qtot -4.180
   256       CTL2      1   ECLIPA    C12    256    -0.180000    12.0110   ; qtot -4.360
   257       HAL2      1   ECLIPA   H12R    257     0.090000     1.0080   ; qtot -4.270
   258       HAL2      1   ECLIPA   H12S    258     0.090000     1.0080   ; qtot -4.180
   259       CTL1      1   ECLIPA    C13    259     0.140000    12.0110   ; qtot -4.040
   260       HAL1      1   ECLIPA   H13R    260     0.090000     1.0080   ; qtot -3.950
   261        OH1      1   ECLIPA    O13    261    -0.660000    15.9994   ; qtot -4.610
   262          H      1   ECLIPA   HO13    262     0.430000     1.0080   ; qtot -4.180
   263       CTL2      1   ECLIPA    C14    263    -0.180000    12.0110   ; qtot -4.360
   264       HAL2      1   ECLIPA   H14R    264     0.090000     1.0080   ; qtot -4.270
   265       HAL2      1   ECLIPA   H14S    265     0.090000     1.0080   ; qtot -4.180
   266       CTL2      1   ECLIPA    C15    266    -0.180000    12.0110   ; qtot -4.360
   267       HAL2      1   ECLIPA   H15R    267     0.090000     1.0080   ; qtot -4.270
   268       HAL2      1   ECLIPA   H15S    268     0.090000     1.0080   ; qtot -4.180
   269       CTL2      1   ECLIPA    C16    269    -0.180000    12.0110   ; qtot -4.360
   270       HAL2      1   ECLIPA   H16R    270     0.090000     1.0080   ; qtot -4.270
   271       HAL2      1   ECLIPA   H16S    271     0.090000     1.0080   ; qtot -4.180
   272       CTL2      1   ECLIPA    C17    272    -0.180000    12.0110   ; qtot -4.360
   273       HAL2      1   ECLIPA   H17R    273     0.090000     1.0080   ; qtot -4.270
   274       HAL2      1   ECLIPA   H17S    274     0.090000     1.0080   ; qtot -4.180
   275       CTL2      1   ECLIPA    C18    275    -0.180000    12.0110   ; qtot -4.360
   276       HAL2      1   ECLIPA   H18R    276     0.090000     1.0080   ; qtot -4.270
   277       HAL2      1   ECLIPA   H18S    277     0.090000     1.0080   ; qtot -4.180
   278       CTL2      1   ECLIPA    C19    278    -0.180000    12.0110   ; qtot -4.360
   279       HAL2      1   ECLIPA   H19R    279     0.090000     1.0080   ; qtot -4.270
   280       HAL2      1   ECLIPA   H19S    280     0.090000     1.0080   ; qtot -4.180
   281       CTL2      1   ECLIPA   C110    281    -0.180000    12.0110   ; qtot -4.360
   282       HAL2      1   ECLIPA  H110R    282     0.090000     1.0080   ; qtot -4.270
   283       HAL2      1   ECLIPA  H110S    283     0.090000     1.0080   ; qtot -4.180
   284       CTL2      1   ECLIPA   C111    284    -0.180000    12.0110   ; qtot -4.360
   285       HAL2      1   ECLIPA  H111R    285     0.090000     1.0080   ; qtot -4.270
   286       HAL2      1   ECLIPA  H111S    286     0.090000     1.0080   ; qtot -4.180
   287       CTL2      1   ECLIPA   C112    287    -0.180000    12.0110   ; qtot -4.360
   288       HAL2      1   ECLIPA  H112R    288     0.090000     1.0080   ; qtot -4.270
   289       HAL2      1   ECLIPA  H112S    289     0.090000     1.0080   ; qtot -4.180
   290       CTL2      1   ECLIPA   C113    290    -0.180000    12.0110   ; qtot -4.360
   291       HAL2      1   ECLIPA  H113R    291     0.090000     1.0080   ; qtot -4.270
   292       HAL2      1   ECLIPA  H113S    292     0.090000     1.0080   ; qtot -4.180
   293       CTL3      1   ECLIPA   C114    293    -0.270000    12.0110   ; qtot -4.450
   294       HAL3      1   ECLIPA  H114R    294     0.090000     1.0080   ; qtot -4.360
   295       HAL3      1   ECLIPA  H114S    295     0.090000     1.0080   ; qtot -4.270
   296       HAL3      1   ECLIPA  H114T    296     0.090000     1.0080   ; qtot -4.180
   297      CC2O2      2     AKDO     C1    297     0.300000    12.0110   ; qtot -3.880
   298      OC2D2      2     AKDO    O11    298    -0.600000    15.9994   ; qtot -4.480
   299      OC2D2      2     AKDO    O12    299    -0.600000    15.9994   ; qtot -5.080
   300     CC3062      2     AKDO     C2    300     0.280000    12.0110   ; qtot -4.800
   301     CC3163      2     AKDO     C6    301     0.110000    12.0110   ; qtot -4.690
   302       HCA1      2     AKDO     H6    302     0.090000     1.0080   ; qtot -4.600
   303     OC3C61      2     AKDO     O6    303    -0.400000    15.9994   ; qtot -5.000
   304     CC3261      2     AKDO     C3    304    -0.180000    12.0110   ; qtot -5.180
   305       HCA2      2     AKDO    H31    305     0.090000     1.0080   ; qtot -5.090
   306       HCA2      2     AKDO    H32    306     0.090000     1.0080   ; qtot -5.000
   307     CC3161      2     AKDO     C4    307     0.090000    12.0110   ; qtot -4.910
   308       HCA1      2     AKDO     H4    308     0.090000     1.0080   ; qtot -4.820
   309      OC301      2     AKDO     O4    309    -0.360000    15.9994   ; qtot -5.180
   310     CC3161      2     AKDO     C5    310     0.090000    12.0110   ; qtot -5.090
   311       HCA1      2     AKDO     H5    311     0.090000     1.0080   ; qtot -5.000
   312      OC301      2     AKDO     O5    312    -0.360000    15.9994   ; qtot -5.360
   313      CC312      2     AKDO     C7    313     0.140000    12.0110   ; qtot -5.220
   314       HCA1      2     AKDO     H7    314     0.090000     1.0080   ; qtot -5.130
   315      OC311      2     AKDO     O7    315    -0.650000    15.9994   ; qtot -5.780
   316       HCP1      2     AKDO    HO7    316     0.420000     1.0080   ; qtot -5.360
   317      CC322      2     AKDO     C8    317     0.050000    12.0110   ; qtot -5.310
   318       HCA2      2     AKDO    H81    318     0.090000     1.0080   ; qtot -5.220
   319       HCA2      2     AKDO    H82    319     0.090000     1.0080   ; qtot -5.130
   320      OC311      2     AKDO     O8    320    -0.650000    15.9994   ; qtot -5.780
   321       HCP1      2     AKDO    HO8    321     0.420000     1.0080   ; qtot -5.360
   322      CC2O2      3     AKDO     C1    322     0.300000    12.0110   ; qtot -5.060
   323      OC2D2      3     AKDO    O11    323    -0.600000    15.9994   ; qtot -5.660
   324      OC2D2      3     AKDO    O12    324    -0.600000    15.9994   ; qtot -6.260
   325     CC3062      3     AKDO     C2    325     0.280000    12.0110   ; qtot -5.980
   326     CC3163      3     AKDO     C6    326     0.110000    12.0110   ; qtot -5.870
   327       HCA1      3     AKDO     H6    327     0.090000     1.0080   ; qtot -5.780
   328     OC3C61      3     AKDO     O6    328    -0.400000    15.9994   ; qtot -6.180
   329     CC3261      3     AKDO     C3    329    -0.180000    12.0110   ; qtot -6.360
   330       HCA2      3     AKDO    H31    330     0.090000     1.0080   ; qtot -6.270
   331       HCA2      3     AKDO    H32    331     0.090000     1.0080   ; qtot -6.180
   332     CC3161      3     AKDO     C4    332     0.140000    12.0110   ; qtot -6.040
   333       HCA1      3     AKDO     H4    333     0.090000     1.0080   ; qtot -5.950
   334      OC311      3     AKDO     O4    334    -0.650000    15.9994   ; qtot -6.600
   335       HCP1      3     AKDO    HO4    335     0.420000     1.0080   ; qtot -6.180
   336     CC3161      3     AKDO     C5    336     0.140000    12.0110   ; qtot -6.040
   337       HCA1      3     AKDO     H5    337     0.090000     1.0080   ; qtot -5.950
   338      OC311      3     AKDO     O5    338    -0.650000    15.9994   ; qtot -6.600
   339       HCP1      3     AKDO    HO5    339     0.420000     1.0080   ; qtot -6.180
   340      CC312      3     AKDO     C7    340     0.140000    12.0110   ; qtot -6.040
   341       HCA1      3     AKDO     H7    341     0.090000     1.0080   ; qtot -5.950
   342      OC311      3     AKDO     O7    342    -0.650000    15.9994   ; qtot -6.600
   343       HCP1      3     AKDO    HO7    343     0.420000     1.0080   ; qtot -6.180
   344      CC322      3     AKDO     C8    344     0.050000    12.0110   ; qtot -6.130
   345       HCA2      3     AKDO    H81    345     0.090000     1.0080   ; qtot -6.040
   346       HCA2      3     AKDO    H82    346     0.090000     1.0080   ; qtot -5.950
   347      OC311      3     AKDO     O8    347    -0.650000    15.9994   ; qtot -6.600
   348       HCP1      3     AKDO    HO8    348     0.420000     1.0080   ; qtot -6.180
   349     CC3162      4     AHEP     C1    349     0.290000    12.0110   ; qtot -5.890
   350       HCA1      4     AHEP     H1    350     0.090000     1.0080   ; qtot -5.800
   351     CC3163      4     AHEP     C5    351     0.110000    12.0110   ; qtot -5.690
   352       HCA1      4     AHEP     H5    352     0.090000     1.0080   ; qtot -5.600
   353     OC3C61      4     AHEP     O5    353    -0.400000    15.9994   ; qtot -6.000
   354     CC3161      4     AHEP     C2    354     0.140000    12.0110   ; qtot -5.860
   355       HCA1      4     AHEP     H2    355     0.090000     1.0080   ; qtot -5.770
   356      OC311      4     AHEP     O2    356    -0.650000    15.9994   ; qtot -6.420
   357       HCP1      4     AHEP    HO2    357     0.420000     1.0080   ; qtot -6.000
   358     CC3161      4     AHEP     C3    358     0.090000    12.0110   ; qtot -5.910
   359       HCA1      4     AHEP     H3    359     0.090000     1.0080   ; qtot -5.820
   360      OC301      4     AHEP     O3    360    -0.360000    15.9994   ; qtot -6.180
   361     CC3161      4     AHEP     C4    361    -0.090000    12.0110   ; qtot -6.270
   362       HCA1      4     AHEP     H4    362     0.090000     1.0080   ; qtot -6.180
   363      OC30P      4     AHEP     O4    363    -0.400000    15.9994   ; qtot -6.580
   364         PC      4     AHEP     P4    364     1.100000    30.9740   ; qtot -5.480
   365      OC2DP      4     AHEP   OP42    365    -0.900000    15.9994   ; qtot -6.380
   366      OC2DP      4     AHEP   OP43    366    -0.900000    15.9994   ; qtot -7.280
   367      OC2DP      4     AHEP   OP44    367    -0.900000    15.9994   ; qtot -8.180
   368      CC312      4     AHEP     C6    368     0.140000    12.0110   ; qtot -8.040
   369       HCA1      4     AHEP     H6    369     0.090000     1.0080   ; qtot -7.950
   370      OC311      4     AHEP     O6    370    -0.650000    15.9994   ; qtot -8.600
   371       HCP1      4     AHEP    HO6    371     0.420000     1.0080   ; qtot -8.180
   372      CC322      4     AHEP     C7    372     0.050000    12.0110   ; qtot -8.130
   373       HCA2      4     AHEP    H71    373     0.090000     1.0080   ; qtot -8.040
   374       HCA2      4     AHEP    H72    374     0.090000     1.0080   ; qtot -7.950
   375      OC311      4     AHEP     O7    375    -0.650000    15.9994   ; qtot -8.600
   376       HCP1      4     AHEP    HO7    376     0.420000     1.0080   ; qtot -8.180
   377     CC3162      5     AHEP     C1    377     0.290000    12.0110   ; qtot -7.890
   378       HCA1      5     AHEP     H1    378     0.090000     1.0080   ; qtot -7.800
   379     CC3163      5     AHEP     C5    379     0.110000    12.0110   ; qtot -7.690
   380       HCA1      5     AHEP     H5    380     0.090000     1.0080   ; qtot -7.600
   381     OC3C61      5     AHEP     O5    381    -0.400000    15.9994   ; qtot -8.000
   382     CC3161      5     AHEP     C2    382     0.140000    12.0110   ; qtot -7.860
   383       HCA1      5     AHEP     H2    383     0.090000     1.0080   ; qtot -7.770
   384      OC311      5     AHEP     O2    384    -0.650000    15.9994   ; qtot -8.420
   385       HCP1      5     AHEP    HO2    385     0.420000     1.0080   ; qtot -8.000
   386     CC3161      5     AHEP     C3    386     0.090000    12.0110   ; qtot -7.910
   387       HCA1      5     AHEP     H3    387     0.090000     1.0080   ; qtot -7.820
   388      OC301      5     AHEP     O3    388    -0.360000    15.9994   ; qtot -8.180
   389     CC3161      5     AHEP     C4    389    -0.090000    12.0110   ; qtot -8.270
   390       HCA1      5     AHEP     H4    390     0.090000     1.0080   ; qtot -8.180
   391      OC30P      5     AHEP     O4    391    -0.400000    15.9994   ; qtot -8.580
   392         PC      5     AHEP     P4    392     1.100000    30.9740   ; qtot -7.480
   393      OC2DP      5     AHEP   OP42    393    -0.900000    15.9994   ; qtot -8.380
   394      OC2DP      5     AHEP   OP43    394    -0.900000    15.9994   ; qtot -9.280
   395      OC2DP      5     AHEP   OP44    395    -0.900000    15.9994   ; qtot -10.180
   396      CC312      5     AHEP     C6    396     0.140000    12.0110   ; qtot -10.040
   397       HCA1      5     AHEP     H6    397     0.090000     1.0080   ; qtot -9.950
   398      OC311      5     AHEP     O6    398    -0.650000    15.9994   ; qtot -10.600
   399       HCP1      5     AHEP    HO6    399     0.420000     1.0080   ; qtot -10.180
   400      CC322      5     AHEP     C7    400     0.000000    12.0110   ; qtot -10.180
   401       HCA2      5     AHEP    H71    401     0.090000     1.0080   ; qtot -10.090
   402       HCA2      5     AHEP    H72    402     0.090000     1.0080   ; qtot -10.000
   403      OC301      5     AHEP     O7    403    -0.360000    15.9994   ; qtot -10.360
   404     CC3162      6     AHEP     C1    404     0.290000    12.0110   ; qtot -10.070
   405       HCA1      6     AHEP     H1    405     0.090000     1.0080   ; qtot -9.980
   406     CC3163      6     AHEP     C5    406     0.110000    12.0110   ; qtot -9.870
   407       HCA1      6     AHEP     H5    407     0.090000     1.0080   ; qtot -9.780
   408     OC3C61      6     AHEP     O5    408    -0.400000    15.9994   ; qtot -10.180
   409     CC3161      6     AHEP     C2    409     0.140000    12.0110   ; qtot -10.040
   410       HCA1      6     AHEP     H2    410     0.090000     1.0080   ; qtot -9.950
   411      OC311      6     AHEP     O2    411    -0.650000    15.9994   ; qtot -10.600
   412       HCP1      6     AHEP    HO2    412     0.420000     1.0080   ; qtot -10.180
   413     CC3161      6     AHEP     C3    413     0.140000    12.0110   ; qtot -10.040
   414       HCA1      6     AHEP     H3    414     0.090000     1.0080   ; qtot -9.950
   415      OC311      6     AHEP     O3    415    -0.650000    15.9994   ; qtot -10.600
   416       HCP1      6     AHEP    HO3    416     0.420000     1.0080   ; qtot -10.180
   417     CC3161      6     AHEP     C4    417     0.140000    12.0110   ; qtot -10.040
   418       HCA1      6     AHEP     H4    418     0.090000     1.0080   ; qtot -9.950
   419      OC311      6     AHEP     O4    419    -0.650000    15.9994   ; qtot -10.600
   420       HCP1      6     AHEP    HO4    420     0.420000     1.0080   ; qtot -10.180
   421      CC312      6     AHEP     C6    421     0.140000    12.0110   ; qtot -10.040
   422       HCA1      6     AHEP     H6    422     0.090000     1.0080   ; qtot -9.950
   423      OC311      6     AHEP     O6    423    -0.650000    15.9994   ; qtot -10.600
   424       HCP1      6     AHEP    HO6    424     0.420000     1.0080   ; qtot -10.180
   425      CC322      6     AHEP     C7    425     0.050000    12.0110   ; qtot -10.130
   426       HCA2      6     AHEP    H71    426     0.090000     1.0080   ; qtot -10.040
   427       HCA2      6     AHEP    H72    427     0.090000     1.0080   ; qtot -9.950
   428      OC311      6     AHEP     O7    428    -0.650000    15.9994   ; qtot -10.600
   429       HCP1      6     AHEP    HO7    429     0.420000     1.0080   ; qtot -10.180
   430     CC3162      7     AGLC     C1    430     0.290000    12.0110   ; qtot -9.890
   431       HCA1      7     AGLC     H1    431     0.090000     1.0080   ; qtot -9.800
   432     CC3163      7     AGLC     C5    432     0.110000    12.0110   ; qtot -9.690
   433       HCA1      7     AGLC     H5    433     0.090000     1.0080   ; qtot -9.600
   434     OC3C61      7     AGLC     O5    434    -0.400000    15.9994   ; qtot -10.000
   435     CC3161      7     AGLC     C2    435     0.140000    12.0110   ; qtot -9.860
   436       HCA1      7     AGLC     H2    436     0.090000     1.0080   ; qtot -9.770
   437      OC311      7     AGLC     O2    437    -0.650000    15.9994   ; qtot -10.420
   438       HCP1      7     AGLC    HO2    438     0.420000     1.0080   ; qtot -10.000
   439     CC3161      7     AGLC     C3    439     0.090000    12.0110   ; qtot -9.910
   440       HCA1      7     AGLC     H3    440     0.090000     1.0080   ; qtot -9.820
   441      OC301      7     AGLC     O3    441    -0.360000    15.9994   ; qtot -10.180
   442     CC3161      7     AGLC     C4    442     0.140000    12.0110   ; qtot -10.040
   443       HCA1      7     AGLC     H4    443     0.090000     1.0080   ; qtot -9.950
   444      OC311      7     AGLC     O4    444    -0.650000    15.9994   ; qtot -10.600
   445       HCP1      7     AGLC    HO4    445     0.420000     1.0080   ; qtot -10.180
   446      CC321      7     AGLC     C6    446     0.050000    12.0110   ; qtot -10.130
   447       HCA2      7     AGLC    H61    447     0.090000     1.0080   ; qtot -10.040
   448       HCA2      7     AGLC    H62    448     0.090000     1.0080   ; qtot -9.950
   449      OC311      7     AGLC     O6    449    -0.650000    15.9994   ; qtot -10.600
   450       HCP1      7     AGLC    HO6    450     0.420000     1.0080   ; qtot -10.180
   451     CC3162      8     AGLC     C1    451     0.290000    12.0110   ; qtot -9.890
   452       HCA1      8     AGLC     H1    452     0.090000     1.0080   ; qtot -9.800
   453     CC3163      8     AGLC     C5    453     0.110000    12.0110   ; qtot -9.690
   454       HCA1      8     AGLC     H5    454     0.090000     1.0080   ; qtot -9.600
   455     OC3C61      8     AGLC     O5    455    -0.400000    15.9994   ; qtot -10.000
   456     CC3161      8     AGLC     C2    456     0.090000    12.0110   ; qtot -9.910
   457       HCA1      8     AGLC     H2    457     0.090000     1.0080   ; qtot -9.820
   458      OC301      8     AGLC     O2    458    -0.360000    15.9994   ; qtot -10.180
   459     CC3161      8     AGLC     C3    459     0.090000    12.0110   ; qtot -10.090
   460       HCA1      8     AGLC     H3    460     0.090000     1.0080   ; qtot -10.000
   461      OC301      8     AGLC     O3    461    -0.360000    15.9994   ; qtot -10.360
   462     CC3161      8     AGLC     C4    462     0.140000    12.0110   ; qtot -10.220
   463       HCA1      8     AGLC     H4    463     0.090000     1.0080   ; qtot -10.130
   464      OC311      8     AGLC     O4    464    -0.650000    15.9994   ; qtot -10.780
   465       HCP1      8     AGLC    HO4    465     0.420000     1.0080   ; qtot -10.360
   466      CC321      8     AGLC     C6    466     0.050000    12.0110   ; qtot -10.310
   467       HCA2      8     AGLC    H61    467     0.090000     1.0080   ; qtot -10.220
   468       HCA2      8     AGLC    H62    468     0.090000     1.0080   ; qtot -10.130
   469      OC311      8     AGLC     O6    469    -0.650000    15.9994   ; qtot -10.780
   470       HCP1      8     AGLC    HO6    470     0.420000     1.0080   ; qtot -10.360
   471     CC3162      9     AGAL     C1    471     0.290000    12.0110   ; qtot -10.070
   472       HCA1      9     AGAL     H1    472     0.090000     1.0080   ; qtot -9.980
   473     CC3163      9     AGAL     C5    473     0.110000    12.0110   ; qtot -9.870
   474       HCA1      9     AGAL     H5    474     0.090000     1.0080   ; qtot -9.780
   475     OC3C61      9     AGAL     O5    475    -0.400000    15.9994   ; qtot -10.180
   476     CC3161      9     AGAL     C2    476     0.090000    12.0110   ; qtot -10.090
   477       HCA1      9     AGAL     H2    477     0.090000     1.0080   ; qtot -10.000
   478      OC301      9     AGAL     O2    478    -0.360000    15.9994   ; qtot -10.360
   479     CC3161      9     AGAL     C3    479     0.140000    12.0110   ; qtot -10.220
   480       HCA1      9     AGAL     H3    480     0.090000     1.0080   ; qtot -10.130
   481      OC311      9     AGAL     O3    481    -0.650000    15.9994   ; qtot -10.780
   482       HCP1      9     AGAL    HO3    482     0.420000     1.0080   ; qtot -10.360
   483     CC3161      9     AGAL     C4    483     0.140000    12.0110   ; qtot -10.220
   484       HCA1      9     AGAL     H4    484     0.090000     1.0080   ; qtot -10.130
   485      OC311      9     AGAL     O4    485    -0.650000    15.9994   ; qtot -10.780
   486       HCP1      9     AGAL    HO4    486     0.420000     1.0080   ; qtot -10.360
   487      CC321      9     AGAL     C6    487     0.050000    12.0110   ; qtot -10.310
   488       HCA2      9     AGAL    H61    488     0.090000     1.0080   ; qtot -10.220
   489       HCA2      9     AGAL    H62    489     0.090000     1.0080   ; qtot -10.130
   490      OC311      9     AGAL     O6    490    -0.650000    15.9994   ; qtot -10.780
   491       HCP1      9     AGAL    HO6    491     0.420000     1.0080   ; qtot -10.360
   492     CC3162     10     AGAL     C1    492     0.290000    12.0110   ; qtot -10.070
   493       HCA1     10     AGAL     H1    493     0.090000     1.0080   ; qtot -9.980
   494     CC3163     10     AGAL     C5    494     0.110000    12.0110   ; qtot -9.870
   495       HCA1     10     AGAL     H5    495     0.090000     1.0080   ; qtot -9.780
   496     OC3C61     10     AGAL     O5    496    -0.400000    15.9994   ; qtot -10.180
   497     CC3161     10     AGAL     C2    497     0.140000    12.0110   ; qtot -10.040
   498       HCA1     10     AGAL     H2    498     0.090000     1.0080   ; qtot -9.950
   499      OC311     10     AGAL     O2    499    -0.650000    15.9994   ; qtot -10.600
   500       HCP1     10     AGAL    HO2    500     0.420000     1.0080   ; qtot -10.180
   501     CC3161     10     AGAL     C3    501     0.140000    12.0110   ; qtot -10.040
   502       HCA1     10     AGAL     H3    502     0.090000     1.0080   ; qtot -9.950
   503      OC311     10     AGAL     O3    503    -0.650000    15.9994   ; qtot -10.600
   504       HCP1     10     AGAL    HO3    504     0.420000     1.0080   ; qtot -10.180
   505     CC3161     10     AGAL     C4    505     0.140000    12.0110   ; qtot -10.040
   506       HCA1     10     AGAL     H4    506     0.090000     1.0080   ; qtot -9.950
   507      OC311     10     AGAL     O4    507    -0.650000    15.9994   ; qtot -10.600
   508       HCP1     10     AGAL    HO4    508     0.420000     1.0080   ; qtot -10.180
   509      CC321     10     AGAL     C6    509     0.050000    12.0110   ; qtot -10.130
   510       HCA2     10     AGAL    H61    510     0.090000     1.0080   ; qtot -10.040
   511       HCA2     10     AGAL    H62    511     0.090000     1.0080   ; qtot -9.950
   512      OC311     10     AGAL     O6    512    -0.650000    15.9994   ; qtot -10.600
   513       HCP1     10     AGAL    HO6    513     0.420000     1.0080   ; qtot -10.180
   514     CC3162     11     BGLC     C1    514     0.290000    12.0110   ; qtot -9.890
   515       HCA1     11     BGLC     H1    515     0.090000     1.0080   ; qtot -9.800
   516     CC3163     11     BGLC     C5    516     0.110000    12.0110   ; qtot -9.690
   517       HCA1     11     BGLC     H5    517     0.090000     1.0080   ; qtot -9.600
   518     OC3C61     11     BGLC     O5    518    -0.400000    15.9994   ; qtot -10.000
   519     CC3161     11     BGLC     C2    519     0.140000    12.0110   ; qtot -9.860
   520       HCA1     11     BGLC     H2    520     0.090000     1.0080   ; qtot -9.770
   521      OC311     11     BGLC     O2    521    -0.650000    15.9994   ; qtot -10.420
   522       HCP1     11     BGLC    HO2    522     0.420000     1.0080   ; qtot -10.000
   523     CC3161     11     BGLC     C3    523     0.090000    12.0110   ; qtot -9.910
   524       HCA1     11     BGLC     H3    524     0.090000     1.0080   ; qtot -9.820
   525      OC301     11     BGLC     O3    525    -0.360000    15.9994   ; qtot -10.180
   526     CC3161     11     BGLC     C4    526     0.140000    12.0110   ; qtot -10.040
   527       HCA1     11     BGLC     H4    527     0.090000     1.0080   ; qtot -9.950
   528      OC311     11     BGLC     O4    528    -0.650000    15.9994   ; qtot -10.600
   529       HCP1     11     BGLC    HO4    529     0.420000     1.0080   ; qtot -10.180
   530      CC321     11     BGLC     C6    530     0.050000    12.0110   ; qtot -10.130
   531       HCA2     11     BGLC    H61    531     0.090000     1.0080   ; qtot -10.040
   532       HCA2     11     BGLC    H62    532     0.090000     1.0080   ; qtot -9.950
   533      OC311     11     BGLC     O6    533    -0.650000    15.9994   ; qtot -10.600
   534       HCP1     11     BGLC    HO6    534     0.420000     1.0080   ; qtot -10.180
   535     CC3162     12   BGLCNA     C1    535     0.290000    12.0110   ; qtot -9.890
   536       HCA1     12   BGLCNA     H1    536     0.090000     1.0080   ; qtot -9.800
   537     CC3163     12   BGLCNA     C5    537     0.110000    12.0110   ; qtot -9.690
   538       HCA1     12   BGLCNA     H5    538     0.090000     1.0080   ; qtot -9.600
   539     OC3C61     12   BGLCNA     O5    539    -0.400000    15.9994   ; qtot -10.000
   540     CC3161     12   BGLCNA     C2    540     0.070000    12.0110   ; qtot -9.930
   541       HCA1     12   BGLCNA     H2    541     0.090000     1.0080   ; qtot -9.840
   542      NC2D1     12   BGLCNA      N    542    -0.470000    14.0070   ; qtot -10.310
   543       HCP1     12   BGLCNA     HN    543     0.310000     1.0080   ; qtot -10.000
   544      CC2O1     12   BGLCNA      C    544     0.510000    12.0110   ; qtot -9.490
   545      OC2D1     12   BGLCNA      O    545    -0.510000    15.9994   ; qtot -10.000
   546      CC331     12   BGLCNA     CT    546    -0.270000    12.0110   ; qtot -10.270
   547       HCA3     12   BGLCNA    HT1    547     0.090000     1.0080   ; qtot -10.180
   548       HCA3     12   BGLCNA    HT2    548     0.090000     1.0080   ; qtot -10.090
   549       HCA3     12   BGLCNA    HT3    549     0.090000     1.0080   ; qtot -10.000
   550     CC3161     12   BGLCNA     C3    550     0.090000    12.0110   ; qtot -9.910
   551       HCA1     12   BGLCNA     H3    551     0.090000     1.0080   ; qtot -9.820
   552      OC301     12   BGLCNA     O3    552    -0.360000    15.9994   ; qtot -10.180
   553     CC3161     12   BGLCNA     C4    553     0.140000    12.0110   ; qtot -10.040
   554       HCA1     12   BGLCNA     H4    554     0.090000     1.0080   ; qtot -9.950
   555      OC311     12   BGLCNA     O4    555    -0.650000    15.9994   ; qtot -10.600
   556       HCP1     12   BGLCNA    HO4    556     0.420000     1.0080   ; qtot -10.180
   557      CC321     12   BGLCNA     C6    557     0.050000    12.0110   ; qtot -10.130
   558       HCA2     12   BGLCNA    H61    558     0.090000     1.0080   ; qtot -10.040
   559       HCA2     12   BGLCNA    H62    559     0.090000     1.0080   ; qtot -9.950
   560      OC311     12   BGLCNA     O6    560    -0.650000    15.9994   ; qtot -10.600
   561       HCP1     12   BGLCNA    HO6    561     0.420000     1.0080   ; qtot -10.180
   562     CC3162     13     AGAL     C1    562     0.290000    12.0110   ; qtot -9.890
   563       HCA1     13     AGAL     H1    563     0.090000     1.0080   ; qtot -9.800
   564     CC3163     13     AGAL     C5    564     0.110000    12.0110   ; qtot -9.690
   565       HCA1     13     AGAL     H5    565     0.090000     1.0080   ; qtot -9.600
   566     OC3C61     13     AGAL     O5    566    -0.400000    15.9994   ; qtot -10.000
   567     CC3161     13     AGAL     C2    567     0.090000    12.0110   ; qtot -9.910
   568       HCA1     13     AGAL     H2    568     0.090000     1.0080   ; qtot -9.820
   569      OC301     13     AGAL     O2    569    -0.360000    15.9994   ; qtot -10.180
   570     CC3161     13     AGAL     C3    570     0.140000    12.0110   ; qtot -10.040
   571       HCA1     13     AGAL     H3    571     0.090000     1.0080   ; qtot -9.950
   572      OC311     13     AGAL     O3    572    -0.650000    15.9994   ; qtot -10.600
   573       HCP1     13     AGAL    HO3    573     0.420000     1.0080   ; qtot -10.180
   574     CC3161     13     AGAL     C4    574     0.140000    12.0110   ; qtot -10.040
   575       HCA1     13     AGAL     H4    575     0.090000     1.0080   ; qtot -9.950
   576      OC311     13     AGAL     O4    576    -0.650000    15.9994   ; qtot -10.600
   577       HCP1     13     AGAL    HO4    577     0.420000     1.0080   ; qtot -10.180
   578      CC321     13     AGAL     C6    578     0.050000    12.0110   ; qtot -10.130
   579       HCA2     13     AGAL    H61    579     0.090000     1.0080   ; qtot -10.040
   580       HCA2     13     AGAL    H62    580     0.090000     1.0080   ; qtot -9.950
   581      OC311     13     AGAL     O6    581    -0.650000    15.9994   ; qtot -10.600
   582       HCP1     13     AGAL    HO6    582     0.420000     1.0080   ; qtot -10.180
   583     CC3162     14     ARHM     C1    583     0.290000    12.0110   ; qtot -9.890
   584       HCA1     14     ARHM     H1    584     0.090000     1.0080   ; qtot -9.800
   585     CC3163     14     ARHM     C5    585     0.110000    12.0110   ; qtot -9.690
   586       HCA1     14     ARHM     H5    586     0.090000     1.0080   ; qtot -9.600
   587     OC3C61     14     ARHM     O5    587    -0.400000    15.9994   ; qtot -10.000
   588     CC3161     14     ARHM     C2    588     0.090000    12.0110   ; qtot -9.910
   589       HCA1     14     ARHM     H2    589     0.090000     1.0080   ; qtot -9.820
   590      OC301     14     ARHM     O2    590    -0.360000    15.9994   ; qtot -10.180
   591     CC3161     14     ARHM     C3    591     0.140000    12.0110   ; qtot -10.040
   592       HCA1     14     ARHM     H3    592     0.090000     1.0080   ; qtot -9.950
   593      OC311     14     ARHM     O3    593    -0.650000    15.9994   ; qtot -10.600
   594       HCP1     14     ARHM    HO3    594     0.420000     1.0080   ; qtot -10.180
   595     CC3161     14     ARHM     C4    595     0.140000    12.0110   ; qtot -10.040
   596       HCA1     14     ARHM     H4    596     0.090000     1.0080   ; qtot -9.950
   597      OC311     14     ARHM     O4    597    -0.650000    15.9994   ; qtot -10.600
   598       HCP1     14     ARHM    HO4    598     0.420000     1.0080   ; qtot -10.180
   599      CC331     14     ARHM     C6    599    -0.270000    12.0110   ; qtot -10.450
   600       HCA3     14     ARHM    H61    600     0.090000     1.0080   ; qtot -10.360
   601       HCA3     14     ARHM    H62    601     0.090000     1.0080   ; qtot -10.270
   602       HCA3     14     ARHM    H63    602     0.090000     1.0080   ; qtot -10.180
   603     CC3162     15     ARHM     C1    603     0.290000    12.0110   ; qtot -9.890
   604       HCA1     15     ARHM     H1    604     0.090000     1.0080   ; qtot -9.800
   605     CC3163     15     ARHM     C5    605     0.110000    12.0110   ; qtot -9.690
   606       HCA1     15     ARHM     H5    606     0.090000     1.0080   ; qtot -9.600
   607     OC3C61     15     ARHM     O5    607    -0.400000    15.9994   ; qtot -10.000
   608     CC3161     15     ARHM     C2    608     0.090000    12.0110   ; qtot -9.910
   609       HCA1     15     ARHM     H2    609     0.090000     1.0080   ; qtot -9.820
   610      OC301     15     ARHM     O2    610    -0.360000    15.9994   ; qtot -10.180
   611     CC3161     15     ARHM     C3    611     0.090000    12.0110   ; qtot -10.090
   612       HCA1     15     ARHM     H3    612     0.090000     1.0080   ; qtot -10.000
   613      OC301     15     ARHM     O3    613    -0.360000    15.9994   ; qtot -10.360
   614     CC3161     15     ARHM     C4    614     0.140000    12.0110   ; qtot -10.220
   615       HCA1     15     ARHM     H4    615     0.090000     1.0080   ; qtot -10.130
   616      OC311     15     ARHM     O4    616    -0.650000    15.9994   ; qtot -10.780
   617       HCP1     15     ARHM    HO4    617     0.420000     1.0080   ; qtot -10.360
   618      CC331     15     ARHM     C6    618    -0.270000    12.0110   ; qtot -10.630
   619       HCA3     15     ARHM    H61    619     0.090000     1.0080   ; qtot -10.540
   620       HCA3     15     ARHM    H62    620     0.090000     1.0080   ; qtot -10.450
   621       HCA3     15     ARHM    H63    621     0.090000     1.0080   ; qtot -10.360
   622     CC3162     16   BMANNA     C1    622     0.290000    12.0110   ; qtot -10.070
   623       HCA1     16   BMANNA     H1    623     0.090000     1.0080   ; qtot -9.980
   624     CC3163     16   BMANNA     C5    624     0.110000    12.0110   ; qtot -9.870
   625       HCA1     16   BMANNA     H5    625     0.090000     1.0080   ; qtot -9.780
   626     OC3C61     16   BMANNA     O5    626    -0.400000    15.9994   ; qtot -10.180
   627     CC3161     16   BMANNA     C2    627     0.070000    12.0110   ; qtot -10.110
   628       HCA1     16   BMANNA     H2    628     0.090000     1.0080   ; qtot -10.020
   629      NC2D1     16   BMANNA      N    629    -0.470000    14.0070   ; qtot -10.490
   630       HCP1     16   BMANNA     HN    630     0.310000     1.0080   ; qtot -10.180
   631      CC2O1     16   BMANNA      C    631     0.510000    12.0110   ; qtot -9.670
   632      OC2D1     16   BMANNA      O    632    -0.510000    15.9994   ; qtot -10.180
   633      CC331     16   BMANNA     CT    633    -0.270000    12.0110   ; qtot -10.450
   634       HCA3     16   BMANNA    HT1    634     0.090000     1.0080   ; qtot -10.360
   635       HCA3     16   BMANNA    HT2    635     0.090000     1.0080   ; qtot -10.270
   636       HCA3     16   BMANNA    HT3    636     0.090000     1.0080   ; qtot -10.180
   637     CC3161     16   BMANNA     C3    637     0.140000    12.0110   ; qtot -10.040
   638       HCA1     16   BMANNA     H3    638     0.090000     1.0080   ; qtot -9.950
   639      OC311     16   BMANNA     O3    639    -0.650000    15.9994   ; qtot -10.600
   640       HCP1     16   BMANNA    HO3    640     0.420000     1.0080   ; qtot -10.180
   641     CC3161     16   BMANNA     C4    641     0.140000    12.0110   ; qtot -10.040
   642       HCA1     16   BMANNA     H4    642     0.090000     1.0080   ; qtot -9.950
   643      OC311     16   BMANNA     O4    643    -0.650000    15.9994   ; qtot -10.600
   644       HCP1     16   BMANNA    HO4    644     0.420000     1.0080   ; qtot -10.180
   645      CC321     16   BMANNA     C6    645     0.050000    12.0110   ; qtot -10.130
   646       HCA2     16   BMANNA    H61    646     0.090000     1.0080   ; qtot -10.040
   647       HCA2     16   BMANNA    H62    647     0.090000     1.0080   ; qtot -9.950
   648      OC311     16   BMANNA     O6    648    -0.650000    15.9994   ; qtot -10.600
   649       HCP1     16   BMANNA    HO6    649     0.420000     1.0080   ; qtot -10.180
   650     CC3162     17   BGLCNA     C1    650     0.290000    12.0110   ; qtot -9.890
   651       HCA1     17   BGLCNA     H1    651     0.090000     1.0080   ; qtot -9.800
   652     CC3163     17   BGLCNA     C5    652     0.110000    12.0110   ; qtot -9.690
   653       HCA1     17   BGLCNA     H5    653     0.090000     1.0080   ; qtot -9.600
   654     OC3C61     17   BGLCNA     O5    654    -0.400000    15.9994   ; qtot -10.000
   655     CC3161     17   BGLCNA     C2    655     0.070000    12.0110   ; qtot -9.930
   656       HCA1     17   BGLCNA     H2    656     0.090000     1.0080   ; qtot -9.840
   657      NC2D1     17   BGLCNA      N    657    -0.470000    14.0070   ; qtot -10.310
   658       HCP1     17   BGLCNA     HN    658     0.310000     1.0080   ; qtot -10.000
   659      CC2O1     17   BGLCNA      C    659     0.510000    12.0110   ; qtot -9.490
   660      OC2D1     17   BGLCNA      O    660    -0.510000    15.9994   ; qtot -10.000
   661      CC331     17   BGLCNA     CT    661    -0.270000    12.0110   ; qtot -10.270
   662       HCA3     17   BGLCNA    HT1    662     0.090000     1.0080   ; qtot -10.180
   663       HCA3     17   BGLCNA    HT2    663     0.090000     1.0080   ; qtot -10.090
   664       HCA3     17   BGLCNA    HT3    664     0.090000     1.0080   ; qtot -10.000
   665     CC3161     17   BGLCNA     C3    665     0.090000    12.0110   ; qtot -9.910
   666       HCA1     17   BGLCNA     H3    666     0.090000     1.0080   ; qtot -9.820
   667      OC301     17   BGLCNA     O3    667    -0.360000    15.9994   ; qtot -10.180
   668     CC3161     17   BGLCNA     C4    668     0.140000    12.0110   ; qtot -10.040
   669       HCA1     17   BGLCNA     H4    669     0.090000     1.0080   ; qtot -9.950
   670      OC311     17   BGLCNA     O4    670    -0.650000    15.9994   ; qtot -10.600
   671       HCP1     17   BGLCNA    HO4    671     0.420000     1.0080   ; qtot -10.180
   672      CC321     17   BGLCNA     C6    672     0.050000    12.0110   ; qtot -10.130
   673       HCA2     17   BGLCNA    H61    673     0.090000     1.0080   ; qtot -10.040
   674       HCA2     17   BGLCNA    H62    674     0.090000     1.0080   ; qtot -9.950
   675      OC311     17   BGLCNA     O6    675    -0.650000    15.9994   ; qtot -10.600
   676       HCP1     17   BGLCNA    HO6    676     0.420000     1.0080   ; qtot -10.180
   677     CC3162     18     AGAL     C1    677     0.290000    12.0110   ; qtot -9.890
   678       HCA1     18     AGAL     H1    678     0.090000     1.0080   ; qtot -9.800
   679     CC3163     18     AGAL     C5    679     0.110000    12.0110   ; qtot -9.690
   680       HCA1     18     AGAL     H5    680     0.090000     1.0080   ; qtot -9.600
   681     OC3C61     18     AGAL     O5    681    -0.400000    15.9994   ; qtot -10.000
   682     CC3161     18     AGAL     C2    682     0.090000    12.0110   ; qtot -9.910
   683       HCA1     18     AGAL     H2    683     0.090000     1.0080   ; qtot -9.820
   684      OC301     18     AGAL     O2    684    -0.360000    15.9994   ; qtot -10.180
   685     CC3161     18     AGAL     C3    685     0.140000    12.0110   ; qtot -10.040
   686       HCA1     18     AGAL     H3    686     0.090000     1.0080   ; qtot -9.950
   687      OC311     18     AGAL     O3    687    -0.650000    15.9994   ; qtot -10.600
   688       HCP1     18     AGAL    HO3    688     0.420000     1.0080   ; qtot -10.180
   689     CC3161     18     AGAL     C4    689     0.140000    12.0110   ; qtot -10.040
   690       HCA1     18     AGAL     H4    690     0.090000     1.0080   ; qtot -9.950
   691      OC311     18     AGAL     O4    691    -0.650000    15.9994   ; qtot -10.600
   692       HCP1     18     AGAL    HO4    692     0.420000     1.0080   ; qtot -10.180
   693      CC321     18     AGAL     C6    693     0.050000    12.0110   ; qtot -10.130
   694       HCA2     18     AGAL    H61    694     0.090000     1.0080   ; qtot -10.040
   695       HCA2     18     AGAL    H62    695     0.090000     1.0080   ; qtot -9.950
   696      OC311     18     AGAL     O6    696    -0.650000    15.9994   ; qtot -10.600
   697       HCP1     18     AGAL    HO6    697     0.420000     1.0080   ; qtot -10.180
   698     CC3162     19     ARHM     C1    698     0.290000    12.0110   ; qtot -9.890
   699       HCA1     19     ARHM     H1    699     0.090000     1.0080   ; qtot -9.800
   700     CC3163     19     ARHM     C5    700     0.110000    12.0110   ; qtot -9.690
   701       HCA1     19     ARHM     H5    701     0.090000     1.0080   ; qtot -9.600
   702     OC3C61     19     ARHM     O5    702    -0.400000    15.9994   ; qtot -10.000
   703     CC3161     19     ARHM     C2    703     0.090000    12.0110   ; qtot -9.910
   704       HCA1     19     ARHM     H2    704     0.090000     1.0080   ; qtot -9.820
   705      OC301     19     ARHM     O2    705    -0.360000    15.9994   ; qtot -10.180
   706     CC3161     19     ARHM     C3    706     0.140000    12.0110   ; qtot -10.040
   707       HCA1     19     ARHM     H3    707     0.090000     1.0080   ; qtot -9.950
   708      OC311     19     ARHM     O3    708    -0.650000    15.9994   ; qtot -10.600
   709       HCP1     19     ARHM    HO3    709     0.420000     1.0080   ; qtot -10.180
   710     CC3161     19     ARHM     C4    710     0.140000    12.0110   ; qtot -10.040
   711       HCA1     19     ARHM     H4    711     0.090000     1.0080   ; qtot -9.950
   712      OC311     19     ARHM     O4    712    -0.650000    15.9994   ; qtot -10.600
   713       HCP1     19     ARHM    HO4    713     0.420000     1.0080   ; qtot -10.180
   714      CC331     19     ARHM     C6    714    -0.270000    12.0110   ; qtot -10.450
   715       HCA3     19     ARHM    H61    715     0.090000     1.0080   ; qtot -10.360
   716       HCA3     19     ARHM    H62    716     0.090000     1.0080   ; qtot -10.270
   717       HCA3     19     ARHM    H63    717     0.090000     1.0080   ; qtot -10.180
   718     CC3162     20     ARHM     C1    718     0.290000    12.0110   ; qtot -9.890
   719       HCA1     20     ARHM     H1    719     0.090000     1.0080   ; qtot -9.800
   720     CC3163     20     ARHM     C5    720     0.110000    12.0110   ; qtot -9.690
   721       HCA1     20     ARHM     H5    721     0.090000     1.0080   ; qtot -9.600
   722     OC3C61     20     ARHM     O5    722    -0.400000    15.9994   ; qtot -10.000
   723     CC3161     20     ARHM     C2    723     0.090000    12.0110   ; qtot -9.910
   724       HCA1     20     ARHM     H2    724     0.090000     1.0080   ; qtot -9.820
   725      OC301     20     ARHM     O2    725    -0.360000    15.9994   ; qtot -10.180
   726     CC3161     20     ARHM     C3    726     0.090000    12.0110   ; qtot -10.090
   727       HCA1     20     ARHM     H3    727     0.090000     1.0080   ; qtot -10.000
   728      OC301     20     ARHM     O3    728    -0.360000    15.9994   ; qtot -10.360
   729     CC3161     20     ARHM     C4    729     0.140000    12.0110   ; qtot -10.220
   730       HCA1     20     ARHM     H4    730     0.090000     1.0080   ; qtot -10.130
   731      OC311     20     ARHM     O4    731    -0.650000    15.9994   ; qtot -10.780
   732       HCP1     20     ARHM    HO4    732     0.420000     1.0080   ; qtot -10.360
   733      CC331     20     ARHM     C6    733    -0.270000    12.0110   ; qtot -10.630
   734       HCA3     20     ARHM    H61    734     0.090000     1.0080   ; qtot -10.540
   735       HCA3     20     ARHM    H62    735     0.090000     1.0080   ; qtot -10.450
   736       HCA3     20     ARHM    H63    736     0.090000     1.0080   ; qtot -10.360
   737     CC3162     21   BMANNA     C1    737     0.290000    12.0110   ; qtot -10.070
   738       HCA1     21   BMANNA     H1    738     0.090000     1.0080   ; qtot -9.980
   739     CC3163     21   BMANNA     C5    739     0.110000    12.0110   ; qtot -9.870
   740       HCA1     21   BMANNA     H5    740     0.090000     1.0080   ; qtot -9.780
   741     OC3C61     21   BMANNA     O5    741    -0.400000    15.9994   ; qtot -10.180
   742     CC3161     21   BMANNA     C2    742     0.070000    12.0110   ; qtot -10.110
   743       HCA1     21   BMANNA     H2    743     0.090000     1.0080   ; qtot -10.020
   744      NC2D1     21   BMANNA      N    744    -0.470000    14.0070   ; qtot -10.490
   745       HCP1     21   BMANNA     HN    745     0.310000     1.0080   ; qtot -10.180
   746      CC2O1     21   BMANNA      C    746     0.510000    12.0110   ; qtot -9.670
   747      OC2D1     21   BMANNA      O    747    -0.510000    15.9994   ; qtot -10.180
   748      CC331     21   BMANNA     CT    748    -0.270000    12.0110   ; qtot -10.450
   749       HCA3     21   BMANNA    HT1    749     0.090000     1.0080   ; qtot -10.360
   750       HCA3     21   BMANNA    HT2    750     0.090000     1.0080   ; qtot -10.270
   751       HCA3     21   BMANNA    HT3    751     0.090000     1.0080   ; qtot -10.180
   752     CC3161     21   BMANNA     C3    752     0.140000    12.0110   ; qtot -10.040
   753       HCA1     21   BMANNA     H3    753     0.090000     1.0080   ; qtot -9.950
   754      OC311     21   BMANNA     O3    754    -0.650000    15.9994   ; qtot -10.600
   755       HCP1     21   BMANNA    HO3    755     0.420000     1.0080   ; qtot -10.180
   756     CC3161     21   BMANNA     C4    756     0.140000    12.0110   ; qtot -10.040
   757       HCA1     21   BMANNA     H4    757     0.090000     1.0080   ; qtot -9.950
   758      OC311     21   BMANNA     O4    758    -0.650000    15.9994   ; qtot -10.600
   759       HCP1     21   BMANNA    HO4    759     0.420000     1.0080   ; qtot -10.180
   760      CC321     21   BMANNA     C6    760     0.050000    12.0110   ; qtot -10.130
   761       HCA2     21   BMANNA    H61    761     0.090000     1.0080   ; qtot -10.040
   762       HCA2     21   BMANNA    H62    762     0.090000     1.0080   ; qtot -9.950
   763      OC311     21   BMANNA     O6    763    -0.650000    15.9994   ; qtot -10.600
   764       HCP1     21   BMANNA    HO6    764     0.420000     1.0080   ; qtot -10.180
   765     CC3162     22   BGLCNA     C1    765     0.290000    12.0110   ; qtot -9.890
   766       HCA1     22   BGLCNA     H1    766     0.090000     1.0080   ; qtot -9.800
   767     CC3163     22   BGLCNA     C5    767     0.110000    12.0110   ; qtot -9.690
   768       HCA1     22   BGLCNA     H5    768     0.090000     1.0080   ; qtot -9.600
   769     OC3C61     22   BGLCNA     O5    769    -0.400000    15.9994   ; qtot -10.000
   770     CC3161     22   BGLCNA     C2    770     0.070000    12.0110   ; qtot -9.930
   771       HCA1     22   BGLCNA     H2    771     0.090000     1.0080   ; qtot -9.840
   772      NC2D1     22   BGLCNA      N    772    -0.470000    14.0070   ; qtot -10.310
   773       HCP1     22   BGLCNA     HN    773     0.310000     1.0080   ; qtot -10.000
   774      CC2O1     22   BGLCNA      C    774     0.510000    12.0110   ; qtot -9.490
   775      OC2D1     22   BGLCNA      O    775    -0.510000    15.9994   ; qtot -10.000
   776      CC331     22   BGLCNA     CT    776    -0.270000    12.0110   ; qtot -10.270
   777       HCA3     22   BGLCNA    HT1    777     0.090000     1.0080   ; qtot -10.180
   778       HCA3     22   BGLCNA    HT2    778     0.090000     1.0080   ; qtot -10.090
   779       HCA3     22   BGLCNA    HT3    779     0.090000     1.0080   ; qtot -10.000
   780     CC3161     22   BGLCNA     C3    780     0.090000    12.0110   ; qtot -9.910
   781       HCA1     22   BGLCNA     H3    781     0.090000     1.0080   ; qtot -9.820
   782      OC301     22   BGLCNA     O3    782    -0.360000    15.9994   ; qtot -10.180
   783     CC3161     22   BGLCNA     C4    783     0.140000    12.0110   ; qtot -10.040
   784       HCA1     22   BGLCNA     H4    784     0.090000     1.0080   ; qtot -9.950
   785      OC311     22   BGLCNA     O4    785    -0.650000    15.9994   ; qtot -10.600
   786       HCP1     22   BGLCNA    HO4    786     0.420000     1.0080   ; qtot -10.180
   787      CC321     22   BGLCNA     C6    787     0.050000    12.0110   ; qtot -10.130
   788       HCA2     22   BGLCNA    H61    788     0.090000     1.0080   ; qtot -10.040
   789       HCA2     22   BGLCNA    H62    789     0.090000     1.0080   ; qtot -9.950
   790      OC311     22   BGLCNA     O6    790    -0.650000    15.9994   ; qtot -10.600
   791       HCP1     22   BGLCNA    HO6    791     0.420000     1.0080   ; qtot -10.180
   792     CC3162     23     AGAL     C1    792     0.290000    12.0110   ; qtot -9.890
   793       HCA1     23     AGAL     H1    793     0.090000     1.0080   ; qtot -9.800
   794     CC3163     23     AGAL     C5    794     0.110000    12.0110   ; qtot -9.690
   795       HCA1     23     AGAL     H5    795     0.090000     1.0080   ; qtot -9.600
   796     OC3C61     23     AGAL     O5    796    -0.400000    15.9994   ; qtot -10.000
   797     CC3161     23     AGAL     C2    797     0.090000    12.0110   ; qtot -9.910
   798       HCA1     23     AGAL     H2    798     0.090000     1.0080   ; qtot -9.820
   799      OC301     23     AGAL     O2    799    -0.360000    15.9994   ; qtot -10.180
   800     CC3161     23     AGAL     C3    800     0.140000    12.0110   ; qtot -10.040
   801       HCA1     23     AGAL     H3    801     0.090000     1.0080   ; qtot -9.950
   802      OC311     23     AGAL     O3    802    -0.650000    15.9994   ; qtot -10.600
   803       HCP1     23     AGAL    HO3    803     0.420000     1.0080   ; qtot -10.180
   804     CC3161     23     AGAL     C4    804     0.140000    12.0110   ; qtot -10.040
   805       HCA1     23     AGAL     H4    805     0.090000     1.0080   ; qtot -9.950
   806      OC311     23     AGAL     O4    806    -0.650000    15.9994   ; qtot -10.600
   807       HCP1     23     AGAL    HO4    807     0.420000     1.0080   ; qtot -10.180
   808      CC321     23     AGAL     C6    808     0.050000    12.0110   ; qtot -10.130
   809       HCA2     23     AGAL    H61    809     0.090000     1.0080   ; qtot -10.040
   810       HCA2     23     AGAL    H62    810     0.090000     1.0080   ; qtot -9.950
   811      OC311     23     AGAL     O6    811    -0.650000    15.9994   ; qtot -10.600
   812       HCP1     23     AGAL    HO6    812     0.420000     1.0080   ; qtot -10.180
   813     CC3162     24     ARHM     C1    813     0.290000    12.0110   ; qtot -9.890
   814       HCA1     24     ARHM     H1    814     0.090000     1.0080   ; qtot -9.800
   815     CC3163     24     ARHM     C5    815     0.110000    12.0110   ; qtot -9.690
   816       HCA1     24     ARHM     H5    816     0.090000     1.0080   ; qtot -9.600
   817     OC3C61     24     ARHM     O5    817    -0.400000    15.9994   ; qtot -10.000
   818     CC3161     24     ARHM     C2    818     0.090000    12.0110   ; qtot -9.910
   819       HCA1     24     ARHM     H2    819     0.090000     1.0080   ; qtot -9.820
   820      OC301     24     ARHM     O2    820    -0.360000    15.9994   ; qtot -10.180
   821     CC3161     24     ARHM     C3    821     0.140000    12.0110   ; qtot -10.040
   822       HCA1     24     ARHM     H3    822     0.090000     1.0080   ; qtot -9.950
   823      OC311     24     ARHM     O3    823    -0.650000    15.9994   ; qtot -10.600
   824       HCP1     24     ARHM    HO3    824     0.420000     1.0080   ; qtot -10.180
   825     CC3161     24     ARHM     C4    825     0.140000    12.0110   ; qtot -10.040
   826       HCA1     24     ARHM     H4    826     0.090000     1.0080   ; qtot -9.950
   827      OC311     24     ARHM     O4    827    -0.650000    15.9994   ; qtot -10.600
   828       HCP1     24     ARHM    HO4    828     0.420000     1.0080   ; qtot -10.180
   829      CC331     24     ARHM     C6    829    -0.270000    12.0110   ; qtot -10.450
   830       HCA3     24     ARHM    H61    830     0.090000     1.0080   ; qtot -10.360
   831       HCA3     24     ARHM    H62    831     0.090000     1.0080   ; qtot -10.270
   832       HCA3     24     ARHM    H63    832     0.090000     1.0080   ; qtot -10.180
   833     CC3162     25     ARHM     C1    833     0.290000    12.0110   ; qtot -9.890
   834       HCA1     25     ARHM     H1    834     0.090000     1.0080   ; qtot -9.800
   835     CC3163     25     ARHM     C5    835     0.110000    12.0110   ; qtot -9.690
   836       HCA1     25     ARHM     H5    836     0.090000     1.0080   ; qtot -9.600
   837     OC3C61     25     ARHM     O5    837    -0.400000    15.9994   ; qtot -10.000
   838     CC3161     25     ARHM     C2    838     0.090000    12.0110   ; qtot -9.910
   839       HCA1     25     ARHM     H2    839     0.090000     1.0080   ; qtot -9.820
   840      OC301     25     ARHM     O2    840    -0.360000    15.9994   ; qtot -10.180
   841     CC3161     25     ARHM     C3    841     0.090000    12.0110   ; qtot -10.090
   842       HCA1     25     ARHM     H3    842     0.090000     1.0080   ; qtot -10.000
   843      OC301     25     ARHM     O3    843    -0.360000    15.9994   ; qtot -10.360
   844     CC3161     25     ARHM     C4    844     0.140000    12.0110   ; qtot -10.220
   845       HCA1     25     ARHM     H4    845     0.090000     1.0080   ; qtot -10.130
   846      OC311     25     ARHM     O4    846    -0.650000    15.9994   ; qtot -10.780
   847       HCP1     25     ARHM    HO4    847     0.420000     1.0080   ; qtot -10.360
   848      CC331     25     ARHM     C6    848    -0.270000    12.0110   ; qtot -10.630
   849       HCA3     25     ARHM    H61    849     0.090000     1.0080   ; qtot -10.540
   850       HCA3     25     ARHM    H62    850     0.090000     1.0080   ; qtot -10.450
   851       HCA3     25     ARHM    H63    851     0.090000     1.0080   ; qtot -10.360
   852     CC3162     26   BMANNA     C1    852     0.290000    12.0110   ; qtot -10.070
   853       HCA1     26   BMANNA     H1    853     0.090000     1.0080   ; qtot -9.980
   854     CC3163     26   BMANNA     C5    854     0.110000    12.0110   ; qtot -9.870
   855       HCA1     26   BMANNA     H5    855     0.090000     1.0080   ; qtot -9.780
   856     OC3C61     26   BMANNA     O5    856    -0.400000    15.9994   ; qtot -10.180
   857     CC3161     26   BMANNA     C2    857     0.070000    12.0110   ; qtot -10.110
   858       HCA1     26   BMANNA     H2    858     0.090000     1.0080   ; qtot -10.020
   859      NC2D1     26   BMANNA      N    859    -0.470000    14.0070   ; qtot -10.490
   860       HCP1     26   BMANNA     HN    860     0.310000     1.0080   ; qtot -10.180
   861      CC2O1     26   BMANNA      C    861     0.510000    12.0110   ; qtot -9.670
   862      OC2D1     26   BMANNA      O    862    -0.510000    15.9994   ; qtot -10.180
   863      CC331     26   BMANNA     CT    863    -0.270000    12.0110   ; qtot -10.450
   864       HCA3     26   BMANNA    HT1    864     0.090000     1.0080   ; qtot -10.360
   865       HCA3     26   BMANNA    HT2    865     0.090000     1.0080   ; qtot -10.270
   866       HCA3     26   BMANNA    HT3    866     0.090000     1.0080   ; qtot -10.180
   867     CC3161     26   BMANNA     C3    867     0.140000    12.0110   ; qtot -10.040
   868       HCA1     26   BMANNA     H3    868     0.090000     1.0080   ; qtot -9.950
   869      OC311     26   BMANNA     O3    869    -0.650000    15.9994   ; qtot -10.600
   870       HCP1     26   BMANNA    HO3    870     0.420000     1.0080   ; qtot -10.180
   871     CC3161     26   BMANNA     C4    871     0.140000    12.0110   ; qtot -10.040
   872       HCA1     26   BMANNA     H4    872     0.090000     1.0080   ; qtot -9.950
   873      OC311     26   BMANNA     O4    873    -0.650000    15.9994   ; qtot -10.600
   874       HCP1     26   BMANNA    HO4    874     0.420000     1.0080   ; qtot -10.180
   875      CC321     26   BMANNA     C6    875     0.050000    12.0110   ; qtot -10.130
   876       HCA2     26   BMANNA    H61    876     0.090000     1.0080   ; qtot -10.040
   877       HCA2     26   BMANNA    H62    877     0.090000     1.0080   ; qtot -9.950
   878      OC311     26   BMANNA     O6    878    -0.650000    15.9994   ; qtot -10.600
   879       HCP1     26   BMANNA    HO6    879     0.420000     1.0080   ; qtot -10.180
   880     CC3162     27   BGLCNA     C1    880     0.290000    12.0110   ; qtot -9.890
   881       HCA1     27   BGLCNA     H1    881     0.090000     1.0080   ; qtot -9.800
   882     CC3163     27   BGLCNA     C5    882     0.110000    12.0110   ; qtot -9.690
   883       HCA1     27   BGLCNA     H5    883     0.090000     1.0080   ; qtot -9.600
   884     OC3C61     27   BGLCNA     O5    884    -0.400000    15.9994   ; qtot -10.000
   885     CC3161     27   BGLCNA     C2    885     0.070000    12.0110   ; qtot -9.930
   886       HCA1     27   BGLCNA     H2    886     0.090000     1.0080   ; qtot -9.840
   887      NC2D1     27   BGLCNA      N    887    -0.470000    14.0070   ; qtot -10.310
   888       HCP1     27   BGLCNA     HN    888     0.310000     1.0080   ; qtot -10.000
   889      CC2O1     27   BGLCNA      C    889     0.510000    12.0110   ; qtot -9.490
   890      OC2D1     27   BGLCNA      O    890    -0.510000    15.9994   ; qtot -10.000
   891      CC331     27   BGLCNA     CT    891    -0.270000    12.0110   ; qtot -10.270
   892       HCA3     27   BGLCNA    HT1    892     0.090000     1.0080   ; qtot -10.180
   893       HCA3     27   BGLCNA    HT2    893     0.090000     1.0080   ; qtot -10.090
   894       HCA3     27   BGLCNA    HT3    894     0.090000     1.0080   ; qtot -10.000
   895     CC3161     27   BGLCNA     C3    895     0.090000    12.0110   ; qtot -9.910
   896       HCA1     27   BGLCNA     H3    896     0.090000     1.0080   ; qtot -9.820
   897      OC301     27   BGLCNA     O3    897    -0.360000    15.9994   ; qtot -10.180
   898     CC3161     27   BGLCNA     C4    898     0.140000    12.0110   ; qtot -10.040
   899       HCA1     27   BGLCNA     H4    899     0.090000     1.0080   ; qtot -9.950
   900      OC311     27   BGLCNA     O4    900    -0.650000    15.9994   ; qtot -10.600
   901       HCP1     27   BGLCNA    HO4    901     0.420000     1.0080   ; qtot -10.180
   902      CC321     27   BGLCNA     C6    902     0.050000    12.0110   ; qtot -10.130
   903       HCA2     27   BGLCNA    H61    903     0.090000     1.0080   ; qtot -10.040
   904       HCA2     27   BGLCNA    H62    904     0.090000     1.0080   ; qtot -9.950
   905      OC311     27   BGLCNA     O6    905    -0.650000    15.9994   ; qtot -10.600
   906       HCP1     27   BGLCNA    HO6    906     0.420000     1.0080   ; qtot -10.180
   907     CC3162     28     AGAL     C1    907     0.290000    12.0110   ; qtot -9.890
   908       HCA1     28     AGAL     H1    908     0.090000     1.0080   ; qtot -9.800
   909     CC3163     28     AGAL     C5    909     0.110000    12.0110   ; qtot -9.690
   910       HCA1     28     AGAL     H5    910     0.090000     1.0080   ; qtot -9.600
   911     OC3C61     28     AGAL     O5    911    -0.400000    15.9994   ; qtot -10.000
   912     CC3161     28     AGAL     C2    912     0.090000    12.0110   ; qtot -9.910
   913       HCA1     28     AGAL     H2    913     0.090000     1.0080   ; qtot -9.820
   914      OC301     28     AGAL     O2    914    -0.360000    15.9994   ; qtot -10.180
   915     CC3161     28     AGAL     C3    915     0.140000    12.0110   ; qtot -10.040
   916       HCA1     28     AGAL     H3    916     0.090000     1.0080   ; qtot -9.950
   917      OC311     28     AGAL     O3    917    -0.650000    15.9994   ; qtot -10.600
   918       HCP1     28     AGAL    HO3    918     0.420000     1.0080   ; qtot -10.180
   919     CC3161     28     AGAL     C4    919     0.140000    12.0110   ; qtot -10.040
   920       HCA1     28     AGAL     H4    920     0.090000     1.0080   ; qtot -9.950
   921      OC311     28     AGAL     O4    921    -0.650000    15.9994   ; qtot -10.600
   922       HCP1     28     AGAL    HO4    922     0.420000     1.0080   ; qtot -10.180
   923      CC321     28     AGAL     C6    923     0.050000    12.0110   ; qtot -10.130
   924       HCA2     28     AGAL    H61    924     0.090000     1.0080   ; qtot -10.040
   925       HCA2     28     AGAL    H62    925     0.090000     1.0080   ; qtot -9.950
   926      OC311     28     AGAL     O6    926    -0.650000    15.9994   ; qtot -10.600
   927       HCP1     28     AGAL    HO6    927     0.420000     1.0080   ; qtot -10.180
   928     CC3162     29     ARHM     C1    928     0.290000    12.0110   ; qtot -9.890
   929       HCA1     29     ARHM     H1    929     0.090000     1.0080   ; qtot -9.800
   930     CC3163     29     ARHM     C5    930     0.110000    12.0110   ; qtot -9.690
   931       HCA1     29     ARHM     H5    931     0.090000     1.0080   ; qtot -9.600
   932     OC3C61     29     ARHM     O5    932    -0.400000    15.9994   ; qtot -10.000
   933     CC3161     29     ARHM     C2    933     0.090000    12.0110   ; qtot -9.910
   934       HCA1     29     ARHM     H2    934     0.090000     1.0080   ; qtot -9.820
   935      OC301     29     ARHM     O2    935    -0.360000    15.9994   ; qtot -10.180
   936     CC3161     29     ARHM     C3    936     0.140000    12.0110   ; qtot -10.040
   937       HCA1     29     ARHM     H3    937     0.090000     1.0080   ; qtot -9.950
   938      OC311     29     ARHM     O3    938    -0.650000    15.9994   ; qtot -10.600
   939       HCP1     29     ARHM    HO3    939     0.420000     1.0080   ; qtot -10.180
   940     CC3161     29     ARHM     C4    940     0.140000    12.0110   ; qtot -10.040
   941       HCA1     29     ARHM     H4    941     0.090000     1.0080   ; qtot -9.950
   942      OC311     29     ARHM     O4    942    -0.650000    15.9994   ; qtot -10.600
   943       HCP1     29     ARHM    HO4    943     0.420000     1.0080   ; qtot -10.180
   944      CC331     29     ARHM     C6    944    -0.270000    12.0110   ; qtot -10.450
   945       HCA3     29     ARHM    H61    945     0.090000     1.0080   ; qtot -10.360
   946       HCA3     29     ARHM    H62    946     0.090000     1.0080   ; qtot -10.270
   947       HCA3     29     ARHM    H63    947     0.090000     1.0080   ; qtot -10.180
   948     CC3162     30     ARHM     C1    948     0.290000    12.0110   ; qtot -9.890
   949       HCA1     30     ARHM     H1    949     0.090000     1.0080   ; qtot -9.800
   950     CC3163     30     ARHM     C5    950     0.110000    12.0110   ; qtot -9.690
   951       HCA1     30     ARHM     H5    951     0.090000     1.0080   ; qtot -9.600
   952     OC3C61     30     ARHM     O5    952    -0.400000    15.9994   ; qtot -10.000
   953     CC3161     30     ARHM     C2    953     0.090000    12.0110   ; qtot -9.910
   954       HCA1     30     ARHM     H2    954     0.090000     1.0080   ; qtot -9.820
   955      OC301     30     ARHM     O2    955    -0.360000    15.9994   ; qtot -10.180
   956     CC3161     30     ARHM     C3    956     0.090000    12.0110   ; qtot -10.090
   957       HCA1     30     ARHM     H3    957     0.090000     1.0080   ; qtot -10.000
   958      OC301     30     ARHM     O3    958    -0.360000    15.9994   ; qtot -10.360
   959     CC3161     30     ARHM     C4    959     0.140000    12.0110   ; qtot -10.220
   960       HCA1     30     ARHM     H4    960     0.090000     1.0080   ; qtot -10.130
   961      OC311     30     ARHM     O4    961    -0.650000    15.9994   ; qtot -10.780
   962       HCP1     30     ARHM    HO4    962     0.420000     1.0080   ; qtot -10.360
   963      CC331     30     ARHM     C6    963    -0.270000    12.0110   ; qtot -10.630
   964       HCA3     30     ARHM    H61    964     0.090000     1.0080   ; qtot -10.540
   965       HCA3     30     ARHM    H62    965     0.090000     1.0080   ; qtot -10.450
   966       HCA3     30     ARHM    H63    966     0.090000     1.0080   ; qtot -10.360
   967     CC3162     31   BMANNA     C1    967     0.290000    12.0110   ; qtot -10.070
   968       HCA1     31   BMANNA     H1    968     0.090000     1.0080   ; qtot -9.980
   969     CC3163     31   BMANNA     C5    969     0.110000    12.0110   ; qtot -9.870
   970       HCA1     31   BMANNA     H5    970     0.090000     1.0080   ; qtot -9.780
   971     OC3C61     31   BMANNA     O5    971    -0.400000    15.9994   ; qtot -10.180
   972     CC3161     31   BMANNA     C2    972     0.070000    12.0110   ; qtot -10.110
   973       HCA1     31   BMANNA     H2    973     0.090000     1.0080   ; qtot -10.020
   974      NC2D1     31   BMANNA      N    974    -0.470000    14.0070   ; qtot -10.490
   975       HCP1     31   BMANNA     HN    975     0.310000     1.0080   ; qtot -10.180
   976      CC2O1     31   BMANNA      C    976     0.510000    12.0110   ; qtot -9.670
   977      OC2D1     31   BMANNA      O    977    -0.510000    15.9994   ; qtot -10.180
   978      CC331     31   BMANNA     CT    978    -0.270000    12.0110   ; qtot -10.450
   979       HCA3     31   BMANNA    HT1    979     0.090000     1.0080   ; qtot -10.360
   980       HCA3     31   BMANNA    HT2    980     0.090000     1.0080   ; qtot -10.270
   981       HCA3     31   BMANNA    HT3    981     0.090000     1.0080   ; qtot -10.180
   982     CC3161     31   BMANNA     C3    982     0.140000    12.0110   ; qtot -10.040
   983       HCA1     31   BMANNA     H3    983     0.090000     1.0080   ; qtot -9.950
   984      OC311     31   BMANNA     O3    984    -0.650000    15.9994   ; qtot -10.600
   985       HCP1     31   BMANNA    HO3    985     0.420000     1.0080   ; qtot -10.180
   986     CC3161     31   BMANNA     C4    986     0.140000    12.0110   ; qtot -10.040
   987       HCA1     31   BMANNA     H4    987     0.090000     1.0080   ; qtot -9.950
   988      OC311     31   BMANNA     O4    988    -0.650000    15.9994   ; qtot -10.600
   989       HCP1     31   BMANNA    HO4    989     0.420000     1.0080   ; qtot -10.180
   990      CC321     31   BMANNA     C6    990     0.050000    12.0110   ; qtot -10.130
   991       HCA2     31   BMANNA    H61    991     0.090000     1.0080   ; qtot -10.040
   992       HCA2     31   BMANNA    H62    992     0.090000     1.0080   ; qtot -9.950
   993      OC311     31   BMANNA     O6    993    -0.650000    15.9994   ; qtot -10.600
   994       HCP1     31   BMANNA    HO6    994     0.420000     1.0080   ; qtot -10.180
   995     CC3162     32   BGLCNA     C1    995     0.290000    12.0110   ; qtot -9.890
   996       HCA1     32   BGLCNA     H1    996     0.090000     1.0080   ; qtot -9.800
   997     CC3163     32   BGLCNA     C5    997     0.110000    12.0110   ; qtot -9.690
   998       HCA1     32   BGLCNA     H5    998     0.090000     1.0080   ; qtot -9.600
   999     OC3C61     32   BGLCNA     O5    999    -0.400000    15.9994   ; qtot -10.000
  1000     CC3161     32   BGLCNA     C2   1000     0.070000    12.0110   ; qtot -9.930
  1001       HCA1     32   BGLCNA     H2   1001     0.090000     1.0080   ; qtot -9.840
  1002      NC2D1     32   BGLCNA      N   1002    -0.470000    14.0070   ; qtot -10.310
  1003       HCP1     32   BGLCNA     HN   1003     0.310000     1.0080   ; qtot -10.000
  1004      CC2O1     32   BGLCNA      C   1004     0.510000    12.0110   ; qtot -9.490
  1005      OC2D1     32   BGLCNA      O   1005    -0.510000    15.9994   ; qtot -10.000
  1006      CC331     32   BGLCNA     CT   1006    -0.270000    12.0110   ; qtot -10.270
  1007       HCA3     32   BGLCNA    HT1   1007     0.090000     1.0080   ; qtot -10.180
  1008       HCA3     32   BGLCNA    HT2   1008     0.090000     1.0080   ; qtot -10.090
  1009       HCA3     32   BGLCNA    HT3   1009     0.090000     1.0080   ; qtot -10.000
  1010     CC3161     32   BGLCNA     C3   1010     0.090000    12.0110   ; qtot -9.910
  1011       HCA1     32   BGLCNA     H3   1011     0.090000     1.0080   ; qtot -9.820
  1012      OC301     32   BGLCNA     O3   1012    -0.360000    15.9994   ; qtot -10.180
  1013     CC3161     32   BGLCNA     C4   1013     0.140000    12.0110   ; qtot -10.040
  1014       HCA1     32   BGLCNA     H4   1014     0.090000     1.0080   ; qtot -9.950
  1015      OC311     32   BGLCNA     O4   1015    -0.650000    15.9994   ; qtot -10.600
  1016       HCP1     32   BGLCNA    HO4   1016     0.420000     1.0080   ; qtot -10.180
  1017      CC321     32   BGLCNA     C6   1017     0.050000    12.0110   ; qtot -10.130
  1018       HCA2     32   BGLCNA    H61   1018     0.090000     1.0080   ; qtot -10.040
  1019       HCA2     32   BGLCNA    H62   1019     0.090000     1.0080   ; qtot -9.950
  1020      OC311     32   BGLCNA     O6   1020    -0.650000    15.9994   ; qtot -10.600
  1021       HCP1     32   BGLCNA    HO6   1021     0.420000     1.0080   ; qtot -10.180
  1022     CC3162     33     AGAL     C1   1022     0.290000    12.0110   ; qtot -9.890
  1023       HCA1     33     AGAL     H1   1023     0.090000     1.0080   ; qtot -9.800
  1024     CC3163     33     AGAL     C5   1024     0.110000    12.0110   ; qtot -9.690
  1025       HCA1     33     AGAL     H5   1025     0.090000     1.0080   ; qtot -9.600
  1026     OC3C61     33     AGAL     O5   1026    -0.400000    15.9994   ; qtot -10.000
  1027     CC3161     33     AGAL     C2   1027     0.090000    12.0110   ; qtot -9.910
  1028       HCA1     33     AGAL     H2   1028     0.090000     1.0080   ; qtot -9.820
  1029      OC301     33     AGAL     O2   1029    -0.360000    15.9994   ; qtot -10.180
  1030     CC3161     33     AGAL     C3   1030     0.140000    12.0110   ; qtot -10.040
  1031       HCA1     33     AGAL     H3   1031     0.090000     1.0080   ; qtot -9.950
  1032      OC311     33     AGAL     O3   1032    -0.650000    15.9994   ; qtot -10.600
  1033       HCP1     33     AGAL    HO3   1033     0.420000     1.0080   ; qtot -10.180
  1034     CC3161     33     AGAL     C4   1034     0.140000    12.0110   ; qtot -10.040
  1035       HCA1     33     AGAL     H4   1035     0.090000     1.0080   ; qtot -9.950
  1036      OC311     33     AGAL     O4   1036    -0.650000    15.9994   ; qtot -10.600
  1037       HCP1     33     AGAL    HO4   1037     0.420000     1.0080   ; qtot -10.180
  1038      CC321     33     AGAL     C6   1038     0.050000    12.0110   ; qtot -10.130
  1039       HCA2     33     AGAL    H61   1039     0.090000     1.0080   ; qtot -10.040
  1040       HCA2     33     AGAL    H62   1040     0.090000     1.0080   ; qtot -9.950
  1041      OC311     33     AGAL     O6   1041    -0.650000    15.9994   ; qtot -10.600
  1042       HCP1     33     AGAL    HO6   1042     0.420000     1.0080   ; qtot -10.180
  1043     CC3162     34     ARHM     C1   1043     0.290000    12.0110   ; qtot -9.890
  1044       HCA1     34     ARHM     H1   1044     0.090000     1.0080   ; qtot -9.800
  1045     CC3163     34     ARHM     C5   1045     0.110000    12.0110   ; qtot -9.690
  1046       HCA1     34     ARHM     H5   1046     0.090000     1.0080   ; qtot -9.600
  1047     OC3C61     34     ARHM     O5   1047    -0.400000    15.9994   ; qtot -10.000
  1048     CC3161     34     ARHM     C2   1048     0.090000    12.0110   ; qtot -9.910
  1049       HCA1     34     ARHM     H2   1049     0.090000     1.0080   ; qtot -9.820
  1050      OC301     34     ARHM     O2   1050    -0.360000    15.9994   ; qtot -10.180
  1051     CC3161     34     ARHM     C3   1051     0.140000    12.0110   ; qtot -10.040
  1052       HCA1     34     ARHM     H3   1052     0.090000     1.0080   ; qtot -9.950
  1053      OC311     34     ARHM     O3   1053    -0.650000    15.9994   ; qtot -10.600
  1054       HCP1     34     ARHM    HO3   1054     0.420000     1.0080   ; qtot -10.180
  1055     CC3161     34     ARHM     C4   1055     0.140000    12.0110   ; qtot -10.040
  1056       HCA1     34     ARHM     H4   1056     0.090000     1.0080   ; qtot -9.950
  1057      OC311     34     ARHM     O4   1057    -0.650000    15.9994   ; qtot -10.600
  1058       HCP1     34     ARHM    HO4   1058     0.420000     1.0080   ; qtot -10.180
  1059      CC331     34     ARHM     C6   1059    -0.270000    12.0110   ; qtot -10.450
  1060       HCA3     34     ARHM    H61   1060     0.090000     1.0080   ; qtot -10.360
  1061       HCA3     34     ARHM    H62   1061     0.090000     1.0080   ; qtot -10.270
  1062       HCA3     34     ARHM    H63   1062     0.090000     1.0080   ; qtot -10.180
  1063     CC3162     35     ARHM     C1   1063     0.290000    12.0110   ; qtot -9.890
  1064       HCA1     35     ARHM     H1   1064     0.090000     1.0080   ; qtot -9.800
  1065     CC3163     35     ARHM     C5   1065     0.110000    12.0110   ; qtot -9.690
  1066       HCA1     35     ARHM     H5   1066     0.090000     1.0080   ; qtot -9.600
  1067     OC3C61     35     ARHM     O5   1067    -0.400000    15.9994   ; qtot -10.000
  1068     CC3161     35     ARHM     C2   1068     0.090000    12.0110   ; qtot -9.910
  1069       HCA1     35     ARHM     H2   1069     0.090000     1.0080   ; qtot -9.820
  1070      OC301     35     ARHM     O2   1070    -0.360000    15.9994   ; qtot -10.180
  1071     CC3161     35     ARHM     C3   1071     0.140000    12.0110   ; qtot -10.040
  1072       HCA1     35     ARHM     H3   1072     0.090000     1.0080   ; qtot -9.950
  1073      OC311     35     ARHM     O3   1073    -0.650000    15.9994   ; qtot -10.600
  1074       HCP1     35     ARHM    HO3   1074     0.420000     1.0080   ; qtot -10.180
  1075     CC3161     35     ARHM     C4   1075     0.140000    12.0110   ; qtot -10.040
  1076       HCA1     35     ARHM     H4   1076     0.090000     1.0080   ; qtot -9.950
  1077      OC311     35     ARHM     O4   1077    -0.650000    15.9994   ; qtot -10.600
  1078       HCP1     35     ARHM    HO4   1078     0.420000     1.0080   ; qtot -10.180
  1079      CC331     35     ARHM     C6   1079    -0.270000    12.0110   ; qtot -10.450
  1080       HCA3     35     ARHM    H61   1080     0.090000     1.0080   ; qtot -10.360
  1081       HCA3     35     ARHM    H62   1081     0.090000     1.0080   ; qtot -10.270
  1082       HCA3     35     ARHM    H63   1082     0.090000     1.0080   ; qtot -10.180
  1083     CC3162     36   BMANNA     C1   1083     0.290000    12.0110   ; qtot -9.890
  1084       HCA1     36   BMANNA     H1   1084     0.090000     1.0080   ; qtot -9.800
  1085     CC3163     36   BMANNA     C5   1085     0.110000    12.0110   ; qtot -9.690
  1086       HCA1     36   BMANNA     H5   1086     0.090000     1.0080   ; qtot -9.600
  1087     OC3C61     36   BMANNA     O5   1087    -0.400000    15.9994   ; qtot -10.000
  1088     CC3161     36   BMANNA     C2   1088     0.070000    12.0110   ; qtot -9.930
  1089       HCA1     36   BMANNA     H2   1089     0.090000     1.0080   ; qtot -9.840
  1090      NC2D1     36   BMANNA      N   1090    -0.470000    14.0070   ; qtot -10.310
  1091       HCP1     36   BMANNA     HN   1091     0.310000     1.0080   ; qtot -10.000
  1092      CC2O1     36   BMANNA      C   1092     0.510000    12.0110   ; qtot -9.490
  1093      OC2D1     36   BMANNA      O   1093    -0.510000    15.9994   ; qtot -10.000
  1094      CC331     36   BMANNA     CT   1094    -0.270000    12.0110   ; qtot -10.270
  1095       HCA3     36   BMANNA    HT1   1095     0.090000     1.0080   ; qtot -10.180
  1096       HCA3     36   BMANNA    HT2   1096     0.090000     1.0080   ; qtot -10.090
  1097       HCA3     36   BMANNA    HT3   1097     0.090000     1.0080   ; qtot -10.000
  1098     CC3161     36   BMANNA     C3   1098     0.140000    12.0110   ; qtot -9.860
  1099       HCA1     36   BMANNA     H3   1099     0.090000     1.0080   ; qtot -9.770
  1100      OC311     36   BMANNA     O3   1100    -0.650000    15.9994   ; qtot -10.420
  1101       HCP1     36   BMANNA    HO3   1101     0.420000     1.0080   ; qtot -10.000
  1102     CC3161     36   BMANNA     C4   1102     0.140000    12.0110   ; qtot -9.860
  1103       HCA1     36   BMANNA     H4   1103     0.090000     1.0080   ; qtot -9.770
  1104      OC311     36   BMANNA     O4   1104    -0.650000    15.9994   ; qtot -10.420
  1105       HCP1     36   BMANNA    HO4   1105     0.420000     1.0080   ; qtot -10.000
  1106      CC321     36   BMANNA     C6   1106     0.050000    12.0110   ; qtot -9.950
  1107       HCA2     36   BMANNA    H61   1107     0.090000     1.0080   ; qtot -9.860
  1108       HCA2     36   BMANNA    H62   1108     0.090000     1.0080   ; qtot -9.770
  1109      OC311     36   BMANNA     O6   1109    -0.650000    15.9994   ; qtot -10.420
  1110       HCP1     36   BMANNA    HO6   1110     0.420000     1.0080   ; qtot -10.000

[ bonds ]
; ai	aj	funct	b0	Kb
    3     1     1
    3     2     1
    2   300     1
    3     4     1
    5     3     1
    5     6     1
    5     7     1
   14     5     1
    6     8     1
    8     9     1
    8    10     1
    8    29     1
   11    10     1
   11    12     1
   11    13     1
   11    37     1
   14    15     1
   16    14     1
   21    14     1
   17    16     1
   17    18     1
   17    19     1
   17    20     1
   21    22     1
   21    23     1
   29    21     1
   22    24     1
   24    25     1
   24    26     1
   26    27     1
   26    28     1
   26    59     1
   29    30     1
   29    31     1
   31    32     1
   31   138     1
   33    34     1
   33    35     1
   37    33     1
   33    47     1
   35    36     1
   37    38     1
   39    37     1
   40    39     1
   40    41     1
   40    42     1
   55    40     1
   42    46     1
   46    43     1
   46    44     1
   46    45     1
   47    48     1
   47    49     1
   47    55     1
   49    50     1
   50    51     1
   50    52     1
   52    53     1
   52    54     1
   52   216     1
   55    56     1
   55    57     1
   57    58     1
   57   254     1
   59    60     1
   59    61     1
   59   104     1
   62    61     1
   63    62     1
   62    64     1
   64    65     1
   64    66     1
   64    67     1
   67    68     1
   67    69     1
   67    70     1
   70    71     1
   70    72     1
   70    73     1
   73    74     1
   73    75     1
   73    76     1
   76    77     1
   76    78     1
   76    79     1
   79    80     1
   79    81     1
   79    82     1
   82    83     1
   82    84     1
   82    85     1
   85    86     1
   85    87     1
   85    88     1
   88    89     1
   88    90     1
   88    91     1
   91    92     1
   91    93     1
   91    94     1
   94    95     1
   94    96     1
   94    97     1
   97    98     1
   97    99     1
   97   100     1
  100   101     1
  100   102     1
  100   103     1
  104   105     1
  104   106     1
  104   107     1
  107   108     1
  107   109     1
  107   110     1
  110   111     1
  110   112     1
  110   113     1
  113   114     1
  113   115     1
  113   116     1
  116   117     1
  116   118     1
  116   119     1
  119   120     1
  119   121     1
  119   122     1
  122   123     1
  122   124     1
  122   125     1
  125   126     1
  125   127     1
  125   128     1
  128   129     1
  128   130     1
  128   131     1
  131   132     1
  131   133     1
  131   134     1
  134   135     1
  134   136     1
  134   137     1
  138   139     1
  138   140     1
  140   141     1
  140   142     1
  140   143     1
  143   144     1
  143   145     1
  143   182     1
  145   146     1
  147   146     1
  146   148     1
  148   149     1
  148   150     1
  148   151     1
  151   152     1
  151   153     1
  151   154     1
  154   155     1
  154   156     1
  154   157     1
  157   158     1
  157   159     1
  157   160     1
  160   161     1
  160   162     1
  160   163     1
  163   164     1
  163   165     1
  163   166     1
  166   167     1
  166   168     1
  166   169     1
  169   170     1
  169   171     1
  169   172     1
  172   173     1
  172   174     1
  172   175     1
  175   176     1
  175   177     1
  175   178     1
  178   179     1
  178   180     1
  178   181     1
  182   183     1
  182   184     1
  182   185     1
  185   186     1
  185   187     1
  185   188     1
  188   189     1
  188   190     1
  188   191     1
  191   192     1
  191   193     1
  191   194     1
  194   195     1
  194   196     1
  194   197     1
  197   198     1
  197   199     1
  197   200     1
  200   201     1
  200   202     1
  200   203     1
  203   204     1
  203   205     1
  203   206     1
  206   207     1
  206   208     1
  206   209     1
  209   210     1
  209   211     1
  209   212     1
  212   213     1
  212   214     1
  212   215     1
  216   217     1
  216   218     1
  216   220     1
  218   219     1
  220   221     1
  220   222     1
  220   223     1
  223   224     1
  223   225     1
  223   226     1
  226   227     1
  226   228     1
  226   229     1
  229   230     1
  229   231     1
  229   232     1
  232   233     1
  232   234     1
  232   235     1
  235   236     1
  235   237     1
  235   238     1
  238   239     1
  238   240     1
  238   241     1
  241   242     1
  241   243     1
  241   244     1
  244   245     1
  244   246     1
  244   247     1
  247   248     1
  247   249     1
  247   250     1
  250   251     1
  250   252     1
  250   253     1
  254   255     1
  254   256     1
  256   257     1
  256   258     1
  256   259     1
  259   260     1
  259   261     1
  259   263     1
  261   262     1
  263   264     1
  263   265     1
  263   266     1
  266   267     1
  266   268     1
  266   269     1
  269   270     1
  269   271     1
  269   272     1
  272   273     1
  272   274     1
  272   275     1
  275   276     1
  275   277     1
  275   278     1
  278   279     1
  278   280     1
  278   281     1
  281   282     1
  281   283     1
  281   284     1
  284   285     1
  284   286     1
  284   287     1
  287   288     1
  287   289     1
  287   290     1
  290   291     1
  290   292     1
  290   293     1
  293   294     1
  293   295     1
  293   296     1
  297   298     1
  297   299     1
  297   300     1
  300   303     1
  300   304     1
  301   302     1
  301   303     1
  310   301     1
  301   313     1
  304   305     1
  304   306     1
  304   307     1
  307   308     1
  307   309     1
  307   310     1
  309   325     1
  310   311     1
  310   312     1
  312   349     1
  313   314     1
  313   315     1
  313   317     1
  315   316     1
  317   318     1
  317   319     1
  317   320     1
  320   321     1
  322   323     1
  322   324     1
  322   325     1
  325   328     1
  325   329     1
  326   327     1
  326   328     1
  336   326     1
  326   340     1
  329   330     1
  329   331     1
  329   332     1
  332   333     1
  332   334     1
  332   336     1
  334   335     1
  336   337     1
  336   338     1
  338   339     1
  340   341     1
  340   342     1
  340   344     1
  342   343     1
  344   345     1
  344   346     1
  344   347     1
  347   348     1
  349   350     1
  349   353     1
  349   354     1
  351   352     1
  351   353     1
  361   351     1
  351   368     1
  354   355     1
  354   356     1
  354   358     1
  356   357     1
  358   359     1
  358   360     1
  358   361     1
  360   377     1
  361   362     1
  361   363     1
  363   364     1
  365   364     1
  366   364     1
  367   364     1
  368   369     1
  368   370     1
  368   372     1
  370   371     1
  372   373     1
  372   374     1
  372   375     1
  375   376     1
  377   378     1
  377   381     1
  377   382     1
  379   380     1
  379   381     1
  389   379     1
  379   396     1
  382   383     1
  382   384     1
  382   386     1
  384   385     1
  386   387     1
  386   388     1
  386   389     1
  388   430     1
  389   390     1
  389   391     1
  391   392     1
  393   392     1
  394   392     1
  395   392     1
  396   397     1
  396   398     1
  396   400     1
  398   399     1
  400   401     1
  400   402     1
  400   403     1
  403   404     1
  404   405     1
  404   408     1
  404   409     1
  406   407     1
  406   408     1
  417   406     1
  406   421     1
  409   410     1
  409   411     1
  409   413     1
  411   412     1
  413   414     1
  413   415     1
  413   417     1
  415   416     1
  417   418     1
  417   419     1
  419   420     1
  421   422     1
  421   423     1
  421   425     1
  423   424     1
  425   426     1
  425   427     1
  425   428     1
  428   429     1
  430   431     1
  430   434     1
  430   435     1
  432   433     1
  432   434     1
  442   432     1
  432   446     1
  435   436     1
  435   437     1
  435   439     1
  437   438     1
  439   440     1
  439   441     1
  439   442     1
  441   451     1
  442   443     1
  442   444     1
  444   445     1
  446   447     1
  446   448     1
  446   449     1
  449   450     1
  451   452     1
  451   455     1
  451   456     1
  453   454     1
  453   455     1
  462   453     1
  453   466     1
  456   457     1
  456   458     1
  456   459     1
  458   471     1
  459   460     1
  459   461     1
  459   462     1
  461   514     1
  462   463     1
  462   464     1
  464   465     1
  466   467     1
  466   468     1
  466   469     1
  469   470     1
  471   472     1
  471   475     1
  471   476     1
  473   474     1
  473   475     1
  483   473     1
  473   487     1
  476   477     1
  476   478     1
  476   479     1
  478   492     1
  479   480     1
  479   481     1
  479   483     1
  481   482     1
  483   484     1
  483   485     1
  485   486     1
  487   488     1
  487   489     1
  487   490     1
  490   491     1
  492   493     1
  492   496     1
  492   497     1
  494   495     1
  494   496     1
  505   494     1
  494   509     1
  497   498     1
  497   499     1
  497   501     1
  499   500     1
  501   502     1
  501   503     1
  501   505     1
  503   504     1
  505   506     1
  505   507     1
  507   508     1
  509   510     1
  509   511     1
  509   512     1
  512   513     1
  514   515     1
  514   518     1
  514   519     1
  516   517     1
  516   518     1
  526   516     1
  516   530     1
  519   520     1
  519   521     1
  519   523     1
  521   522     1
  523   524     1
  523   525     1
  523   526     1
  525   535     1
  526   527     1
  526   528     1
  528   529     1
  530   531     1
  530   532     1
  530   533     1
  533   534     1
  535   536     1
  535   539     1
  535   540     1
  537   538     1
  537   539     1
  553   537     1
  537   557     1
  540   541     1
  540   542     1
  540   550     1
  542   543     1
  542   544     1
  544   545     1
  544   546     1
  546   547     1
  546   548     1
  546   549     1
  550   551     1
  550   552     1
  550   553     1
  552   562     1
  553   554     1
  553   555     1
  555   556     1
  557   558     1
  557   559     1
  557   560     1
  560   561     1
  562   563     1
  562   566     1
  562   567     1
  564   565     1
  564   566     1
  574   564     1
  564   578     1
  567   568     1
  567   569     1
  567   570     1
  569   583     1
  570   571     1
  570   572     1
  570   574     1
  572   573     1
  574   575     1
  574   576     1
  576   577     1
  578   579     1
  578   580     1
  578   581     1
  581   582     1
  583   584     1
  583   587     1
  583   588     1
  585   586     1
  585   587     1
  595   585     1
  585   599     1
  588   589     1
  588   590     1
  588   591     1
  590   603     1
  591   592     1
  591   593     1
  591   595     1
  593   594     1
  595   596     1
  595   597     1
  597   598     1
  599   600     1
  599   601     1
  599   602     1
  603   604     1
  603   607     1
  603   608     1
  605   606     1
  605   607     1
  614   605     1
  605   618     1
  608   609     1
  608   610     1
  608   611     1
  610   622     1
  611   612     1
  611   613     1
  611   614     1
  613   650     1
  614   615     1
  614   616     1
  616   617     1
  618   619     1
  618   620     1
  618   621     1
  622   623     1
  622   626     1
  622   627     1
  624   625     1
  624   626     1
  641   624     1
  624   645     1
  627   628     1
  627   629     1
  627   637     1
  629   630     1
  629   631     1
  631   632     1
  631   633     1
  633   634     1
  633   635     1
  633   636     1
  637   638     1
  637   639     1
  637   641     1
  639   640     1
  641   642     1
  641   643     1
  643   644     1
  645   646     1
  645   647     1
  645   648     1
  648   649     1
  650   651     1
  650   654     1
  650   655     1
  652   653     1
  652   654     1
  668   652     1
  652   672     1
  655   656     1
  655   657     1
  655   665     1
  657   658     1
  657   659     1
  659   660     1
  659   661     1
  661   662     1
  661   663     1
  661   664     1
  665   666     1
  665   667     1
  665   668     1
  667   677     1
  668   669     1
  668   670     1
  670   671     1
  672   673     1
  672   674     1
  672   675     1
  675   676     1
  677   678     1
  677   681     1
  677   682     1
  679   680     1
  679   681     1
  689   679     1
  679   693     1
  682   683     1
  682   684     1
  682   685     1
  684   698     1
  685   686     1
  685   687     1
  685   689     1
  687   688     1
  689   690     1
  689   691     1
  691   692     1
  693   694     1
  693   695     1
  693   696     1
  696   697     1
  698   699     1
  698   702     1
  698   703     1
  700   701     1
  700   702     1
  710   700     1
  700   714     1
  703   704     1
  703   705     1
  703   706     1
  705   718     1
  706   707     1
  706   708     1
  706   710     1
  708   709     1
  710   711     1
  710   712     1
  712   713     1
  714   715     1
  714   716     1
  714   717     1
  718   719     1
  718   722     1
  718   723     1
  720   721     1
  720   722     1
  729   720     1
  720   733     1
  723   724     1
  723   725     1
  723   726     1
  725   737     1
  726   727     1
  726   728     1
  726   729     1
  728   765     1
  729   730     1
  729   731     1
  731   732     1
  733   734     1
  733   735     1
  733   736     1
  737   738     1
  737   741     1
  737   742     1
  739   740     1
  739   741     1
  756   739     1
  739   760     1
  742   743     1
  742   744     1
  742   752     1
  744   745     1
  744   746     1
  746   747     1
  746   748     1
  748   749     1
  748   750     1
  748   751     1
  752   753     1
  752   754     1
  752   756     1
  754   755     1
  756   757     1
  756   758     1
  758   759     1
  760   761     1
  760   762     1
  760   763     1
  763   764     1
  765   766     1
  765   769     1
  765   770     1
  767   768     1
  767   769     1
  783   767     1
  767   787     1
  770   771     1
  770   772     1
  770   780     1
  772   773     1
  772   774     1
  774   775     1
  774   776     1
  776   777     1
  776   778     1
  776   779     1
  780   781     1
  780   782     1
  780   783     1
  782   792     1
  783   784     1
  783   785     1
  785   786     1
  787   788     1
  787   789     1
  787   790     1
  790   791     1
  792   793     1
  792   796     1
  792   797     1
  794   795     1
  794   796     1
  804   794     1
  794   808     1
  797   798     1
  797   799     1
  797   800     1
  799   813     1
  800   801     1
  800   802     1
  800   804     1
  802   803     1
  804   805     1
  804   806     1
  806   807     1
  808   809     1
  808   810     1
  808   811     1
  811   812     1
  813   814     1
  813   817     1
  813   818     1
  815   816     1
  815   817     1
  825   815     1
  815   829     1
  818   819     1
  818   820     1
  818   821     1
  820   833     1
  821   822     1
  821   823     1
  821   825     1
  823   824     1
  825   826     1
  825   827     1
  827   828     1
  829   830     1
  829   831     1
  829   832     1
  833   834     1
  833   837     1
  833   838     1
  835   836     1
  835   837     1
  844   835     1
  835   848     1
  838   839     1
  838   840     1
  838   841     1
  840   852     1
  841   842     1
  841   843     1
  841   844     1
  843   880     1
  844   845     1
  844   846     1
  846   847     1
  848   849     1
  848   850     1
  848   851     1
  852   853     1
  852   856     1
  852   857     1
  854   855     1
  854   856     1
  871   854     1
  854   875     1
  857   858     1
  857   859     1
  857   867     1
  859   860     1
  859   861     1
  861   862     1
  861   863     1
  863   864     1
  863   865     1
  863   866     1
  867   868     1
  867   869     1
  867   871     1
  869   870     1
  871   872     1
  871   873     1
  873   874     1
  875   876     1
  875   877     1
  875   878     1
  878   879     1
  880   881     1
  880   884     1
  880   885     1
  882   883     1
  882   884     1
  898   882     1
  882   902     1
  885   886     1
  885   887     1
  885   895     1
  887   888     1
  887   889     1
  889   890     1
  889   891     1
  891   892     1
  891   893     1
  891   894     1
  895   896     1
  895   897     1
  895   898     1
  897   907     1
  898   899     1
  898   900     1
  900   901     1
  902   903     1
  902   904     1
  902   905     1
  905   906     1
  907   908     1
  907   911     1
  907   912     1
  909   910     1
  909   911     1
  919   909     1
  909   923     1
  912   913     1
  912   914     1
  912   915     1
  914   928     1
  915   916     1
  915   917     1
  915   919     1
  917   918     1
  919   920     1
  919   921     1
  921   922     1
  923   924     1
  923   925     1
  923   926     1
  926   927     1
  928   929     1
  928   932     1
  928   933     1
  930   931     1
  930   932     1
  940   930     1
  930   944     1
  933   934     1
  933   935     1
  933   936     1
  935   948     1
  936   937     1
  936   938     1
  936   940     1
  938   939     1
  940   941     1
  940   942     1
  942   943     1
  944   945     1
  944   946     1
  944   947     1
  948   949     1
  948   952     1
  948   953     1
  950   951     1
  950   952     1
  959   950     1
  950   963     1
  953   954     1
  953   955     1
  953   956     1
  955   967     1
  956   957     1
  956   958     1
  956   959     1
  958   995     1
  959   960     1
  959   961     1
  961   962     1
  963   964     1
  963   965     1
  963   966     1
  967   968     1
  967   971     1
  967   972     1
  969   970     1
  969   971     1
  986   969     1
  969   990     1
  972   973     1
  972   974     1
  972   982     1
  974   975     1
  974   976     1
  976   977     1
  976   978     1
  978   979     1
  978   980     1
  978   981     1
  982   983     1
  982   984     1
  982   986     1
  984   985     1
  986   987     1
  986   988     1
  988   989     1
  990   991     1
  990   992     1
  990   993     1
  993   994     1
  995   996     1
  995   999     1
  995  1000     1
  997   998     1
  997   999     1
 1013   997     1
  997  1017     1
 1000  1001     1
 1000  1002     1
 1000  1010     1
 1002  1003     1
 1002  1004     1
 1004  1005     1
 1004  1006     1
 1006  1007     1
 1006  1008     1
 1006  1009     1
 1010  1011     1
 1010  1012     1
 1010  1013     1
 1012  1022     1
 1013  1014     1
 1013  1015     1
 1015  1016     1
 1017  1018     1
 1017  1019     1
 1017  1020     1
 1020  1021     1
 1022  1023     1
 1022  1026     1
 1022  1027     1
 1024  1025     1
 1024  1026     1
 1034  1024     1
 1024  1038     1
 1027  1028     1
 1027  1029     1
 1027  1030     1
 1029  1043     1
 1030  1031     1
 1030  1032     1
 1030  1034     1
 1032  1033     1
 1034  1035     1
 1034  1036     1
 1036  1037     1
 1038  1039     1
 1038  1040     1
 1038  1041     1
 1041  1042     1
 1043  1044     1
 1043  1047     1
 1043  1048     1
 1045  1046     1
 1045  1047     1
 1055  1045     1
 1045  1059     1
 1048  1049     1
 1048  1050     1
 1048  1051     1
 1050  1063     1
 1051  1052     1
 1051  1053     1
 1051  1055     1
 1053  1054     1
 1055  1056     1
 1055  1057     1
 1057  1058     1
 1059  1060     1
 1059  1061     1
 1059  1062     1
 1063  1064     1
 1063  1067     1
 1063  1068     1
 1065  1066     1
 1065  1067     1
 1075  1065     1
 1065  1079     1
 1068  1069     1
 1068  1070     1
 1068  1071     1
 1070  1083     1
 1071  1072     1
 1071  1073     1
 1071  1075     1
 1073  1074     1
 1075  1076     1
 1075  1077     1
 1077  1078     1
 1079  1080     1
 1079  1081     1
 1079  1082     1
 1083  1084     1
 1083  1087     1
 1083  1088     1
 1085  1086     1
 1085  1087     1
 1102  1085     1
 1085  1106     1
 1088  1089     1
 1088  1090     1
 1088  1098     1
 1090  1091     1
 1090  1092     1
 1092  1093     1
 1092  1094     1
 1094  1095     1
 1094  1096     1
 1094  1097     1
 1098  1099     1
 1098  1100     1
 1098  1102     1
 1100  1101     1
 1102  1103     1
 1102  1104     1
 1104  1105     1
 1106  1107     1
 1106  1108     1
 1106  1109     1
 1109  1110     1

[ pairs ]
; ai	aj	funct	c6	c12 or
; ai	aj	funct	fudgeQQ	q1	q2	c6	c12
    1     6     1
    1     7     1
    1    14     1
    1   300     1
    2     6     1
    2     7     1
    2    14     1
    2   298     1
    2   299     1
    2   301     1
    2   305     1
    2   306     1
    2   307     1
    3     8     1
    3    15     1
    3    16     1
    3    21     1
    3   297     1
    3   303     1
    3   304     1
    4     6     1
    4     7     1
    4    14     1
    4   300     1
    5     9     1
    5    10     1
    5    17     1
    5    22     1
    5    23     1
    5    29     1
    5   300     1
    6    11     1
    6    15     1
    6    16     1
    6    21     1
    6    30     1
    6    31     1
    7     8     1
    7    15     1
    7    16     1
    7    21     1
    8    12     1
    8    13     1
    8    14     1
    8    22     1
    8    23     1
    8    32     1
    8    37     1
    8   138     1
    9    11     1
    9    21     1
    9    30     1
    9    31     1
   10    21     1
   10    30     1
   10    31     1
   10    33     1
   10    38     1
   10    39     1
   11    29     1
   11    34     1
   11    35     1
   11    40     1
   11    47     1
   12    33     1
   12    38     1
   12    39     1
   13    33     1
   13    38     1
   13    39     1
   14    18     1
   14    19     1
   14    20     1
   14    24     1
   14    30     1
   14    31     1
   15    17     1
   15    22     1
   15    23     1
   15    29     1
   16    22     1
   16    23     1
   16    29     1
   17    21     1
   21    25     1
   21    26     1
   21    32     1
   21   138     1
   22    27     1
   22    28     1
   22    30     1
   22    31     1
   22    59     1
   23    24     1
   23    30     1
   23    31     1
   24    29     1
   24    60     1
   24    61     1
   24   104     1
   25    27     1
   25    28     1
   25    59     1
   26    62     1
   26   105     1
   26   106     1
   26   107     1
   27    60     1
   27    61     1
   27   104     1
   28    60     1
   28    61     1
   28   104     1
   29   139     1
   29   140     1
   30    32     1
   30   138     1
   31   141     1
   31   142     1
   31   143     1
   32   139     1
   32   140     1
   33    40     1
   33    50     1
   33    56     1
   33    57     1
   34    36     1
   34    38     1
   34    39     1
   34    48     1
   34    49     1
   34    55     1
   35    38     1
   35    39     1
   35    48     1
   35    49     1
   35    55     1
   36    37     1
   36    47     1
   37    41     1
   37    42     1
   37    48     1
   37    49     1
   37    55     1
   38    40     1
   38    47     1
   39    46     1
   39    47     1
   39    56     1
   39    57     1
   40    43     1
   40    44     1
   40    45     1
   40    48     1
   40    49     1
   40    58     1
   40   254     1
   41    46     1
   41    47     1
   41    56     1
   41    57     1
   42    47     1
   42    56     1
   42    57     1
   46    55     1
   47    51     1
   47    52     1
   47    58     1
   47   254     1
   48    50     1
   48    56     1
   48    57     1
   49    53     1
   49    54     1
   49    56     1
   49    57     1
   49   216     1
   50    55     1
   50   217     1
   50   218     1
   50   220     1
   51    53     1
   51    54     1
   51   216     1
   52   219     1
   52   221     1
   52   222     1
   52   223     1
   53   217     1
   53   218     1
   53   220     1
   54   217     1
   54   218     1
   54   220     1
   55   255     1
   55   256     1
   56    58     1
   56   254     1
   57   257     1
   57   258     1
   57   259     1
   58   255     1
   58   256     1
   59    63     1
   59    64     1
   59   108     1
   59   109     1
   59   110     1
   60    62     1
   60   105     1
   60   106     1
   60   107     1
   61    65     1
   61    66     1
   61    67     1
   61   105     1
   61   106     1
   61   107     1
   62    68     1
   62    69     1
   62    70     1
   62   104     1
   63    65     1
   63    66     1
   63    67     1
   64    71     1
   64    72     1
   64    73     1
   65    68     1
   65    69     1
   65    70     1
   66    68     1
   66    69     1
   66    70     1
   67    74     1
   67    75     1
   67    76     1
   68    71     1
   68    72     1
   68    73     1
   69    71     1
   69    72     1
   69    73     1
   70    77     1
   70    78     1
   70    79     1
   71    74     1
   71    75     1
   71    76     1
   72    74     1
   72    75     1
   72    76     1
   73    80     1
   73    81     1
   73    82     1
   74    77     1
   74    78     1
   74    79     1
   75    77     1
   75    78     1
   75    79     1
   76    83     1
   76    84     1
   76    85     1
   77    80     1
   77    81     1
   77    82     1
   78    80     1
   78    81     1
   78    82     1
   79    86     1
   79    87     1
   79    88     1
   80    83     1
   80    84     1
   80    85     1
   81    83     1
   81    84     1
   81    85     1
   82    89     1
   82    90     1
   82    91     1
   83    86     1
   83    87     1
   83    88     1
   84    86     1
   84    87     1
   84    88     1
   85    92     1
   85    93     1
   85    94     1
   86    89     1
   86    90     1
   86    91     1
   87    89     1
   87    90     1
   87    91     1
   88    95     1
   88    96     1
   88    97     1
   89    92     1
   89    93     1
   89    94     1
   90    92     1
   90    93     1
   90    94     1
   91    98     1
   91    99     1
   91   100     1
   92    95     1
   92    96     1
   92    97     1
   93    95     1
   93    96     1
   93    97     1
   94   101     1
   94   102     1
   94   103     1
   95    98     1
   95    99     1
   95   100     1
   96    98     1
   96    99     1
   96   100     1
   98   101     1
   98   102     1
   98   103     1
   99   101     1
   99   102     1
   99   103     1
  104   111     1
  104   112     1
  104   113     1
  105   108     1
  105   109     1
  105   110     1
  106   108     1
  106   109     1
  106   110     1
  107   114     1
  107   115     1
  107   116     1
  108   111     1
  108   112     1
  108   113     1
  109   111     1
  109   112     1
  109   113     1
  110   117     1
  110   118     1
  110   119     1
  111   114     1
  111   115     1
  111   116     1
  112   114     1
  112   115     1
  112   116     1
  113   120     1
  113   121     1
  113   122     1
  114   117     1
  114   118     1
  114   119     1
  115   117     1
  115   118     1
  115   119     1
  116   123     1
  116   124     1
  116   125     1
  117   120     1
  117   121     1
  117   122     1
  118   120     1
  118   121     1
  118   122     1
  119   126     1
  119   127     1
  119   128     1
  120   123     1
  120   124     1
  120   125     1
  121   123     1
  121   124     1
  121   125     1
  122   129     1
  122   130     1
  122   131     1
  123   126     1
  123   127     1
  123   128     1
  124   126     1
  124   127     1
  124   128     1
  125   132     1
  125   133     1
  125   134     1
  126   129     1
  126   130     1
  126   131     1
  127   129     1
  127   130     1
  127   131     1
  128   135     1
  128   136     1
  128   137     1
  129   132     1
  129   133     1
  129   134     1
  130   132     1
  130   133     1
  130   134     1
  132   135     1
  132   136     1
  132   137     1
  133   135     1
  133   136     1
  133   137     1
  138   144     1
  138   145     1
  138   182     1
  139   141     1
  139   142     1
  139   143     1
  140   146     1
  140   183     1
  140   184     1
  140   185     1
  141   144     1
  141   145     1
  141   182     1
  142   144     1
  142   145     1
  142   182     1
  143   147     1
  143   148     1
  143   186     1
  143   187     1
  143   188     1
  144   146     1
  144   183     1
  144   184     1
  144   185     1
  145   149     1
  145   150     1
  145   151     1
  145   183     1
  145   184     1
  145   185     1
  146   152     1
  146   153     1
  146   154     1
  146   182     1
  147   149     1
  147   150     1
  147   151     1
  148   155     1
  148   156     1
  148   157     1
  149   152     1
  149   153     1
  149   154     1
  150   152     1
  150   153     1
  150   154     1
  151   158     1
  151   159     1
  151   160     1
  152   155     1
  152   156     1
  152   157     1
  153   155     1
  153   156     1
  153   157     1
  154   161     1
  154   162     1
  154   163     1
  155   158     1
  155   159     1
  155   160     1
  156   158     1
  156   159     1
  156   160     1
  157   164     1
  157   165     1
  157   166     1
  158   161     1
  158   162     1
  158   163     1
  159   161     1
  159   162     1
  159   163     1
  160   167     1
  160   168     1
  160   169     1
  161   164     1
  161   165     1
  161   166     1
  162   164     1
  162   165     1
  162   166     1
  163   170     1
  163   171     1
  163   172     1
  164   167     1
  164   168     1
  164   169     1
  165   167     1
  165   168     1
  165   169     1
  166   173     1
  166   174     1
  166   175     1
  167   170     1
  167   171     1
  167   172     1
  168   170     1
  168   171     1
  168   172     1
  169   176     1
  169   177     1
  169   178     1
  170   173     1
  170   174     1
  170   175     1
  171   173     1
  171   174     1
  171   175     1
  172   179     1
  172   180     1
  172   181     1
  173   176     1
  173   177     1
  173   178     1
  174   176     1
  174   177     1
  174   178     1
  176   179     1
  176   180     1
  176   181     1
  177   179     1
  177   180     1
  177   181     1
  182   189     1
  182   190     1
  182   191     1
  183   186     1
  183   187     1
  183   188     1
  184   186     1
  184   187     1
  184   188     1
  185   192     1
  185   193     1
  185   194     1
  186   189     1
  186   190     1
  186   191     1
  187   189     1
  187   190     1
  187   191     1
  188   195     1
  188   196     1
  188   197     1
  189   192     1
  189   193     1
  189   194     1
  190   192     1
  190   193     1
  190   194     1
  191   198     1
  191   199     1
  191   200     1
  192   195     1
  192   196     1
  192   197     1
  193   195     1
  193   196     1
  193   197     1
  194   201     1
  194   202     1
  194   203     1
  195   198     1
  195   199     1
  195   200     1
  196   198     1
  196   199     1
  196   200     1
  197   204     1
  197   205     1
  197   206     1
  198   201     1
  198   202     1
  198   203     1
  199   201     1
  199   202     1
  199   203     1
  200   207     1
  200   208     1
  200   209     1
  201   204     1
  201   205     1
  201   206     1
  202   204     1
  202   205     1
  202   206     1
  203   210     1
  203   211     1
  203   212     1
  204   207     1
  204   208     1
  204   209     1
  205   207     1
  205   208     1
  205   209     1
  206   213     1
  206   214     1
  206   215     1
  207   210     1
  207   211     1
  207   212     1
  208   210     1
  208   211     1
  208   212     1
  210   213     1
  210   214     1
  210   215     1
  211   213     1
  211   214     1
  211   215     1
  216   224     1
  216   225     1
  216   226     1
  217   219     1
  217   221     1
  217   222     1
  217   223     1
  218   221     1
  218   222     1
  218   223     1
  219   220     1
  220   227     1
  220   228     1
  220   229     1
  221   224     1
  221   225     1
  221   226     1
  222   224     1
  222   225     1
  222   226     1
  223   230     1
  223   231     1
  223   232     1
  224   227     1
  224   228     1
  224   229     1
  225   227     1
  225   228     1
  225   229     1
  226   233     1
  226   234     1
  226   235     1
  227   230     1
  227   231     1
  227   232     1
  228   230     1
  228   231     1
  228   232     1
  229   236     1
  229   237     1
  229   238     1
  230   233     1
  230   234     1
  230   235     1
  231   233     1
  231   234     1
  231   235     1
  232   239     1
  232   240     1
  232   241     1
  233   236     1
  233   237     1
  233   238     1
  234   236     1
  234   237     1
  234   238     1
  235   242     1
  235   243     1
  235   244     1
  236   239     1
  236   240     1
  236   241     1
  237   239     1
  237   240     1
  237   241     1
  238   245     1
  238   246     1
  238   247     1
  239   242     1
  239   243     1
  239   244     1
  240   242     1
  240   243     1
  240   244     1
  241   248     1
  241   249     1
  241   250     1
  242   245     1
  242   246     1
  242   247     1
  243   245     1
  243   246     1
  243   247     1
  244   251     1
  244   252     1
  244   253     1
  245   248     1
  245   249     1
  245   250     1
  246   248     1
  246   249     1
  246   250     1
  248   251     1
  248   252     1
  248   253     1
  249   251     1
  249   252     1
  249   253     1
  254   260     1
  254   261     1
  254   263     1
  255   257     1
  255   258     1
  255   259     1
  256   262     1
  256   264     1
  256   265     1
  256   266     1
  257   260     1
  257   261     1
  257   263     1
  258   260     1
  258   261     1
  258   263     1
  259   267     1
  259   268     1
  259   269     1
  260   262     1
  260   264     1
  260   265     1
  260   266     1
  261   264     1
  261   265     1
  261   266     1
  262   263     1
  263   270     1
  263   271     1
  263   272     1
  264   267     1
  264   268     1
  264   269     1
  265   267     1
  265   268     1
  265   269     1
  266   273     1
  266   274     1
  266   275     1
  267   270     1
  267   271     1
  267   272     1
  268   270     1
  268   271     1
  268   272     1
  269   276     1
  269   277     1
  269   278     1
  270   273     1
  270   274     1
  270   275     1
  271   273     1
  271   274     1
  271   275     1
  272   279     1
  272   280     1
  272   281     1
  273   276     1
  273   277     1
  273   278     1
  274   276     1
  274   277     1
  274   278     1
  275   282     1
  275   283     1
  275   284     1
  276   279     1
  276   280     1
  276   281     1
  277   279     1
  277   280     1
  277   281     1
  278   285     1
  278   286     1
  278   287     1
  279   282     1
  279   283     1
  279   284     1
  280   282     1
  280   283     1
  280   284     1
  281   288     1
  281   289     1
  281   290     1
  282   285     1
  282   286     1
  282   287     1
  283   285     1
  283   286     1
  283   287     1
  284   291     1
  284   292     1
  284   293     1
  285   288     1
  285   289     1
  285   290     1
  286   288     1
  286   289     1
  286   290     1
  287   294     1
  287   295     1
  287   296     1
  288   291     1
  288   292     1
  288   293     1
  289   291     1
  289   292     1
  289   293     1
  291   294     1
  291   295     1
  291   296     1
  292   294     1
  292   295     1
  292   296     1
  297   301     1
  297   305     1
  297   306     1
  297   307     1
  298   303     1
  298   304     1
  299   303     1
  299   304     1
  300   302     1
  300   308     1
  300   309     1
  300   310     1
  300   313     1
  301   304     1
  301   308     1
  301   309     1
  301   316     1
  301   318     1
  301   319     1
  301   320     1
  301   349     1
  302   307     1
  302   311     1
  302   312     1
  302   314     1
  302   315     1
  302   317     1
  303   305     1
  303   306     1
  303   307     1
  303   311     1
  303   312     1
  303   314     1
  303   315     1
  303   317     1
  304   311     1
  304   312     1
  304   325     1
  305   308     1
  305   309     1
  305   310     1
  306   308     1
  306   309     1
  306   310     1
  307   313     1
  307   322     1
  307   328     1
  307   329     1
  307   349     1
  308   311     1
  308   312     1
  308   325     1
  309   311     1
  309   312     1
  309   323     1
  309   324     1
  309   326     1
  309   330     1
  309   331     1
  309   332     1
  310   314     1
  310   315     1
  310   317     1
  310   325     1
  310   350     1
  310   353     1
  310   354     1
  311   313     1
  311   349     1
  312   313     1
  312   351     1
  312   355     1
  312   356     1
  312   358     1
  313   321     1
  314   316     1
  314   318     1
  314   319     1
  314   320     1
  315   318     1
  315   319     1
  315   320     1
  316   317     1
  318   321     1
  319   321     1
  322   326     1
  322   330     1
  322   331     1
  322   332     1
  323   328     1
  323   329     1
  324   328     1
  324   329     1
  325   327     1
  325   333     1
  325   334     1
  325   336     1
  325   340     1
  326   329     1
  326   333     1
  326   334     1
  326   339     1
  326   343     1
  326   345     1
  326   346     1
  326   347     1
  327   332     1
  327   337     1
  327   338     1
  327   341     1
  327   342     1
  327   344     1
  328   330     1
  328   331     1
  328   332     1
  328   337     1
  328   338     1
  328   341     1
  328   342     1
  328   344     1
  329   335     1
  329   337     1
  329   338     1
  330   333     1
  330   334     1
  330   336     1
  331   333     1
  331   334     1
  331   336     1
  332   339     1
  332   340     1
  333   335     1
  333   337     1
  333   338     1
  334   337     1
  334   338     1
  335   336     1
  336   341     1
  336   342     1
  336   344     1
  337   339     1
  337   340     1
  338   340     1
  340   348     1
  341   343     1
  341   345     1
  341   346     1
  341   347     1
  342   345     1
  342   346     1
  342   347     1
  343   344     1
  345   348     1
  346   348     1
  349   352     1
  349   357     1
  349   359     1
  349   360     1
  349   361     1
  349   368     1
  350   351     1
  350   355     1
  350   356     1
  350   358     1
  351   354     1
  351   359     1
  351   360     1
  351   364     1
  351   371     1
  351   373     1
  351   374     1
  351   375     1
  352   358     1
  352   362     1
  352   363     1
  352   369     1
  352   370     1
  352   372     1
  353   355     1
  353   356     1
  353   358     1
  353   362     1
  353   363     1
  353   369     1
  353   370     1
  353   372     1
  354   362     1
  354   363     1
  354   377     1
  355   357     1
  355   359     1
  355   360     1
  355   361     1
  356   359     1
  356   360     1
  356   361     1
  357   358     1
  358   364     1
  358   368     1
  358   378     1
  358   381     1
  358   382     1
  359   362     1
  359   363     1
  359   377     1
  360   362     1
  360   363     1
  360   379     1
  360   383     1
  360   384     1
  360   386     1
  361   365     1
  361   366     1
  361   367     1
  361   369     1
  361   370     1
  361   372     1
  361   377     1
  362   364     1
  362   368     1
  363   368     1
  368   376     1
  369   371     1
  369   373     1
  369   374     1
  369   375     1
  370   373     1
  370   374     1
  370   375     1
  371   372     1
  373   376     1
  374   376     1
  377   380     1
  377   385     1
  377   387     1
  377   388     1
  377   389     1
  377   396     1
  378   379     1
  378   383     1
  378   384     1
  378   386     1
  379   382     1
  379   387     1
  379   388     1
  379   392     1
  379   399     1
  379   401     1
  379   402     1
  379   403     1
  380   386     1
  380   390     1
  380   391     1
  380   397     1
  380   398     1
  380   400     1
  381   383     1
  381   384     1
  381   386     1
  381   390     1
  381   391     1
  381   397     1
  381   398     1
  381   400     1
  382   390     1
  382   391     1
  382   430     1
  383   385     1
  383   387     1
  383   388     1
  383   389     1
  384   387     1
  384   388     1
  384   389     1
  385   386     1
  386   392     1
  386   396     1
  386   431     1
  386   434     1
  386   435     1
  387   390     1
  387   391     1
  387   430     1
  388   390     1
  388   391     1
  388   432     1
  388   436     1
  388   437     1
  388   439     1
  389   393     1
  389   394     1
  389   395     1
  389   397     1
  389   398     1
  389   400     1
  389   430     1
  390   392     1
  390   396     1
  391   396     1
  396   404     1
  397   399     1
  397   401     1
  397   402     1
  397   403     1
  398   401     1
  398   402     1
  398   403     1
  399   400     1
  400   405     1
  400   408     1
  400   409     1
  401   404     1
  402   404     1
  403   406     1
  403   410     1
  403   411     1
  403   413     1
  404   407     1
  404   412     1
  404   414     1
  404   415     1
  404   417     1
  404   421     1
  405   406     1
  405   410     1
  405   411     1
  405   413     1
  406   409     1
  406   414     1
  406   415     1
  406   420     1
  406   424     1
  406   426     1
  406   427     1
  406   428     1
  407   413     1
  407   418     1
  407   419     1
  407   422     1
  407   423     1
  407   425     1
  408   410     1
  408   411     1
  408   413     1
  408   418     1
  408   419     1
  408   422     1
  408   423     1
  408   425     1
  409   416     1
  409   418     1
  409   419     1
  410   412     1
  410   414     1
  410   415     1
  410   417     1
  411   414     1
  411   415     1
  411   417     1
  412   413     1
  413   420     1
  413   421     1
  414   416     1
  414   418     1
  414   419     1
  415   418     1
  415   419     1
  416   417     1
  417   422     1
  417   423     1
  417   425     1
  418   420     1
  418   421     1
  419   421     1
  421   429     1
  422   424     1
  422   426     1
  422   427     1
  422   428     1
  423   426     1
  423   427     1
  423   428     1
  424   425     1
  426   429     1
  427   429     1
  430   433     1
  430   438     1
  430   440     1
  430   441     1
  430   442     1
  430   446     1
  431   432     1
  431   436     1
  431   437     1
  431   439     1
  432   435     1
  432   440     1
  432   441     1
  432   445     1
  432   450     1
  433   439     1
  433   443     1
  433   444     1
  433   447     1
  433   448     1
  433   449     1
  434   436     1
  434   437     1
  434   439     1
  434   443     1
  434   444     1
  434   447     1
  434   448     1
  434   449     1
  435   443     1
  435   444     1
  435   451     1
  436   438     1
  436   440     1
  436   441     1
  436   442     1
  437   440     1
  437   441     1
  437   442     1
  438   439     1
  439   445     1
  439   446     1
  439   452     1
  439   455     1
  439   456     1
  440   443     1
  440   444     1
  440   451     1
  441   443     1
  441   444     1
  441   453     1
  441   457     1
  441   458     1
  441   459     1
  442   447     1
  442   448     1
  442   449     1
  442   451     1
  443   445     1
  443   446     1
  444   446     1
  447   450     1
  448   450     1
  451   454     1
  451   460     1
  451   461     1
  451   462     1
  451   466     1
  451   471     1
  452   453     1
  452   457     1
  452   458     1
  452   459     1
  453   456     1
  453   460     1
  453   461     1
  453   465     1
  453   470     1
  454   459     1
  454   463     1
  454   464     1
  454   467     1
  454   468     1
  454   469     1
  455   457     1
  455   458     1
  455   459     1
  455   463     1
  455   464     1
  455   467     1
  455   468     1
  455   469     1
  456   463     1
  456   464     1
  456   472     1
  456   475     1
  456   476     1
  456   514     1
  457   460     1
  457   461     1
  457   462     1
  457   471     1
  458   460     1
  458   461     1
  458   462     1
  458   473     1
  458   477     1
  458   478     1
  458   479     1
  459   465     1
  459   466     1
  459   471     1
  459   515     1
  459   518     1
  459   519     1
  460   463     1
  460   464     1
  460   514     1
  461   463     1
  461   464     1
  461   516     1
  461   520     1
  461   521     1
  461   523     1
  462   467     1
  462   468     1
  462   469     1
  462   514     1
  463   465     1
  463   466     1
  464   466     1
  467   470     1
  468   470     1
  471   474     1
  471   480     1
  471   481     1
  471   483     1
  471   487     1
  471   492     1
  472   473     1
  472   477     1
  472   478     1
  472   479     1
  473   476     1
  473   480     1
  473   481     1
  473   486     1
  473   491     1
  474   479     1
  474   484     1
  474   485     1
  474   488     1
  474   489     1
  474   490     1
  475   477     1
  475   478     1
  475   479     1
  475   484     1
  475   485     1
  475   488     1
  475   489     1
  475   490     1
  476   482     1
  476   484     1
  476   485     1
  476   493     1
  476   496     1
  476   497     1
  477   480     1
  477   481     1
  477   483     1
  477   492     1
  478   480     1
  478   481     1
  478   483     1
  478   494     1
  478   498     1
  478   499     1
  478   501     1
  479   486     1
  479   487     1
  479   492     1
  480   482     1
  480   484     1
  480   485     1
  481   484     1
  481   485     1
  482   483     1
  483   488     1
  483   489     1
  483   490     1
  484   486     1
  484   487     1
  485   487     1
  488   491     1
  489   491     1
  492   495     1
  492   500     1
  492   502     1
  492   503     1
  492   505     1
  492   509     1
  493   494     1
  493   498     1
  493   499     1
  493   501     1
  494   497     1
  494   502     1
  494   503     1
  494   508     1
  494   513     1
  495   501     1
  495   506     1
  495   507     1
  495   510     1
  495   511     1
  495   512     1
  496   498     1
  496   499     1
  496   501     1
  496   506     1
  496   507     1
  496   510     1
  496   511     1
  496   512     1
  497   504     1
  497   506     1
  497   507     1
  498   500     1
  498   502     1
  498   503     1
  498   505     1
  499   502     1
  499   503     1
  499   505     1
  500   501     1
  501   508     1
  501   509     1
  502   504     1
  502   506     1
  502   507     1
  503   506     1
  503   507     1
  504   505     1
  505   510     1
  505   511     1
  505   512     1
  506   508     1
  506   509     1
  507   509     1
  510   513     1
  511   513     1
  514   517     1
  514   522     1
  514   524     1
  514   525     1
  514   526     1
  514   530     1
  515   516     1
  515   520     1
  515   521     1
  515   523     1
  516   519     1
  516   524     1
  516   525     1
  516   529     1
  516   534     1
  517   523     1
  517   527     1
  517   528     1
  517   531     1
  517   532     1
  517   533     1
  518   520     1
  518   521     1
  518   523     1
  518   527     1
  518   528     1
  518   531     1
  518   532     1
  518   533     1
  519   527     1
  519   528     1
  519   535     1
  520   522     1
  520   524     1
  520   525     1
  520   526     1
  521   524     1
  521   525     1
  521   526     1
  522   523     1
  523   529     1
  523   530     1
  523   536     1
  523   539     1
  523   540     1
  524   527     1
  524   528     1
  524   535     1
  525   527     1
  525   528     1
  525   537     1
  525   541     1
  525   542     1
  525   550     1
  526   531     1
  526   532     1
  526   533     1
  526   535     1
  527   529     1
  527   530     1
  528   530     1
  531   534     1
  532   534     1
  535   538     1
  535   543     1
  535   544     1
  535   551     1
  535   552     1
  535   553     1
  535   557     1
  536   537     1
  536   541     1
  536   542     1
  536   550     1
  537   540     1
  537   551     1
  537   552     1
  537   556     1
  537   561     1
  538   550     1
  538   554     1
  538   555     1
  538   558     1
  538   559     1
  538   560     1
  539   541     1
  539   542     1
  539   550     1
  539   554     1
  539   555     1
  539   558     1
  539   559     1
  539   560     1
  540   545     1
  540   546     1
  540   554     1
  540   555     1
  540   562     1
  541   543     1
  541   544     1
  541   551     1
  541   552     1
  541   553     1
  542   547     1
  542   548     1
  542   549     1
  542   551     1
  542   552     1
  542   553     1
  543   545     1
  543   546     1
  543   550     1
  544   550     1
  545   547     1
  545   548     1
  545   549     1
  550   556     1
  550   557     1
  550   563     1
  550   566     1
  550   567     1
  551   554     1
  551   555     1
  551   562     1
  552   554     1
  552   555     1
  552   564     1
  552   568     1
  552   569     1
  552   570     1
  553   558     1
  553   559     1
  553   560     1
  553   562     1
  554   556     1
  554   557     1
  555   557     1
  558   561     1
  559   561     1
  562   565     1
  562   571     1
  562   572     1
  562   574     1
  562   578     1
  562   583     1
  563   564     1
  563   568     1
  563   569     1
  563   570     1
  564   567     1
  564   571     1
  564   572     1
  564   577     1
  564   582     1
  565   570     1
  565   575     1
  565   576     1
  565   579     1
  565   580     1
  565   581     1
  566   568     1
  566   569     1
  566   570     1
  566   575     1
  566   576     1
  566   579     1
  566   580     1
  566   581     1
  567   573     1
  567   575     1
  567   576     1
  567   584     1
  567   587     1
  567   588     1
  568   571     1
  568   572     1
  568   574     1
  568   583     1
  569   571     1
  569   572     1
  569   574     1
  569   585     1
  569   589     1
  569   590     1
  569   591     1
  570   577     1
  570   578     1
  570   583     1
  571   573     1
  571   575     1
  571   576     1
  572   575     1
  572   576     1
  573   574     1
  574   579     1
  574   580     1
  574   581     1
  575   577     1
  575   578     1
  576   578     1
  579   582     1
  580   582     1
  583   586     1
  583   592     1
  583   593     1
  583   595     1
  583   599     1
  583   603     1
  584   585     1
  584   589     1
  584   590     1
  584   591     1
  585   588     1
  585   592     1
  585   593     1
  585   598     1
  586   591     1
  586   596     1
  586   597     1
  586   600     1
  586   601     1
  586   602     1
  587   589     1
  587   590     1
  587   591     1
  587   596     1
  587   597     1
  587   600     1
  587   601     1
  587   602     1
  588   594     1
  588   596     1
  588   597     1
  588   604     1
  588   607     1
  588   608     1
  589   592     1
  589   593     1
  589   595     1
  589   603     1
  590   592     1
  590   593     1
  590   595     1
  590   605     1
  590   609     1
  590   610     1
  590   611     1
  591   598     1
  591   599     1
  591   603     1
  592   594     1
  592   596     1
  592   597     1
  593   596     1
  593   597     1
  594   595     1
  595   600     1
  595   601     1
  595   602     1
  596   598     1
  596   599     1
  597   599     1
  603   606     1
  603   612     1
  603   613     1
  603   614     1
  603   618     1
  603   622     1
  604   605     1
  604   609     1
  604   610     1
  604   611     1
  605   608     1
  605   612     1
  605   613     1
  605   617     1
  606   611     1
  606   615     1
  606   616     1
  606   619     1
  606   620     1
  606   621     1
  607   609     1
  607   610     1
  607   611     1
  607   615     1
  607   616     1
  607   619     1
  607   620     1
  607   621     1
  608   615     1
  608   616     1
  608   623     1
  608   626     1
  608   627     1
  608   650     1
  609   612     1
  609   613     1
  609   614     1
  609   622     1
  610   612     1
  610   613     1
  610   614     1
  610   624     1
  610   628     1
  610   629     1
  610   637     1
  611   617     1
  611   618     1
  611   622     1
  611   651     1
  611   654     1
  611   655     1
  612   615     1
  612   616     1
  612   650     1
  613   615     1
  613   616     1
  613   652     1
  613   656     1
  613   657     1
  613   665     1
  614   619     1
  614   620     1
  614   621     1
  614   650     1
  615   617     1
  615   618     1
  616   618     1
  622   625     1
  622   630     1
  622   631     1
  622   638     1
  622   639     1
  622   641     1
  622   645     1
  623   624     1
  623   628     1
  623   629     1
  623   637     1
  624   627     1
  624   638     1
  624   639     1
  624   644     1
  624   649     1
  625   637     1
  625   642     1
  625   643     1
  625   646     1
  625   647     1
  625   648     1
  626   628     1
  626   629     1
  626   637     1
  626   642     1
  626   643     1
  626   646     1
  626   647     1
  626   648     1
  627   632     1
  627   633     1
  627   640     1
  627   642     1
  627   643     1
  628   630     1
  628   631     1
  628   638     1
  628   639     1
  628   641     1
  629   634     1
  629   635     1
  629   636     1
  629   638     1
  629   639     1
  629   641     1
  630   632     1
  630   633     1
  630   637     1
  631   637     1
  632   634     1
  632   635     1
  632   636     1
  637   644     1
  637   645     1
  638   640     1
  638   642     1
  638   643     1
  639   642     1
  639   643     1
  640   641     1
  641   646     1
  641   647     1
  641   648     1
  642   644     1
  642   645     1
  643   645     1
  646   649     1
  647   649     1
  650   653     1
  650   658     1
  650   659     1
  650   666     1
  650   667     1
  650   668     1
  650   672     1
  651   652     1
  651   656     1
  651   657     1
  651   665     1
  652   655     1
  652   666     1
  652   667     1
  652   671     1
  652   676     1
  653   665     1
  653   669     1
  653   670     1
  653   673     1
  653   674     1
  653   675     1
  654   656     1
  654   657     1
  654   665     1
  654   669     1
  654   670     1
  654   673     1
  654   674     1
  654   675     1
  655   660     1
  655   661     1
  655   669     1
  655   670     1
  655   677     1
  656   658     1
  656   659     1
  656   666     1
  656   667     1
  656   668     1
  657   662     1
  657   663     1
  657   664     1
  657   666     1
  657   667     1
  657   668     1
  658   660     1
  658   661     1
  658   665     1
  659   665     1
  660   662     1
  660   663     1
  660   664     1
  665   671     1
  665   672     1
  665   678     1
  665   681     1
  665   682     1
  666   669     1
  666   670     1
  666   677     1
  667   669     1
  667   670     1
  667   679     1
  667   683     1
  667   684     1
  667   685     1
  668   673     1
  668   674     1
  668   675     1
  668   677     1
  669   671     1
  669   672     1
  670   672     1
  673   676     1
  674   676     1
  677   680     1
  677   686     1
  677   687     1
  677   689     1
  677   693     1
  677   698     1
  678   679     1
  678   683     1
  678   684     1
  678   685     1
  679   682     1
  679   686     1
  679   687     1
  679   692     1
  679   697     1
  680   685     1
  680   690     1
  680   691     1
  680   694     1
  680   695     1
  680   696     1
  681   683     1
  681   684     1
  681   685     1
  681   690     1
  681   691     1
  681   694     1
  681   695     1
  681   696     1
  682   688     1
  682   690     1
  682   691     1
  682   699     1
  682   702     1
  682   703     1
  683   686     1
  683   687     1
  683   689     1
  683   698     1
  684   686     1
  684   687     1
  684   689     1
  684   700     1
  684   704     1
  684   705     1
  684   706     1
  685   692     1
  685   693     1
  685   698     1
  686   688     1
  686   690     1
  686   691     1
  687   690     1
  687   691     1
  688   689     1
  689   694     1
  689   695     1
  689   696     1
  690   692     1
  690   693     1
  691   693     1
  694   697     1
  695   697     1
  698   701     1
  698   707     1
  698   708     1
  698   710     1
  698   714     1
  698   718     1
  699   700     1
  699   704     1
  699   705     1
  699   706     1
  700   703     1
  700   707     1
  700   708     1
  700   713     1
  701   706     1
  701   711     1
  701   712     1
  701   715     1
  701   716     1
  701   717     1
  702   704     1
  702   705     1
  702   706     1
  702   711     1
  702   712     1
  702   715     1
  702   716     1
  702   717     1
  703   709     1
  703   711     1
  703   712     1
  703   719     1
  703   722     1
  703   723     1
  704   707     1
  704   708     1
  704   710     1
  704   718     1
  705   707     1
  705   708     1
  705   710     1
  705   720     1
  705   724     1
  705   725     1
  705   726     1
  706   713     1
  706   714     1
  706   718     1
  707   709     1
  707   711     1
  707   712     1
  708   711     1
  708   712     1
  709   710     1
  710   715     1
  710   716     1
  710   717     1
  711   713     1
  711   714     1
  712   714     1
  718   721     1
  718   727     1
  718   728     1
  718   729     1
  718   733     1
  718   737     1
  719   720     1
  719   724     1
  719   725     1
  719   726     1
  720   723     1
  720   727     1
  720   728     1
  720   732     1
  721   726     1
  721   730     1
  721   731     1
  721   734     1
  721   735     1
  721   736     1
  722   724     1
  722   725     1
  722   726     1
  722   730     1
  722   731     1
  722   734     1
  722   735     1
  722   736     1
  723   730     1
  723   731     1
  723   738     1
  723   741     1
  723   742     1
  723   765     1
  724   727     1
  724   728     1
  724   729     1
  724   737     1
  725   727     1
  725   728     1
  725   729     1
  725   739     1
  725   743     1
  725   744     1
  725   752     1
  726   732     1
  726   733     1
  726   737     1
  726   766     1
  726   769     1
  726   770     1
  727   730     1
  727   731     1
  727   765     1
  728   730     1
  728   731     1
  728   767     1
  728   771     1
  728   772     1
  728   780     1
  729   734     1
  729   735     1
  729   736     1
  729   765     1
  730   732     1
  730   733     1
  731   733     1
  737   740     1
  737   745     1
  737   746     1
  737   753     1
  737   754     1
  737   756     1
  737   760     1
  738   739     1
  738   743     1
  738   744     1
  738   752     1
  739   742     1
  739   753     1
  739   754     1
  739   759     1
  739   764     1
  740   752     1
  740   757     1
  740   758     1
  740   761     1
  740   762     1
  740   763     1
  741   743     1
  741   744     1
  741   752     1
  741   757     1
  741   758     1
  741   761     1
  741   762     1
  741   763     1
  742   747     1
  742   748     1
  742   755     1
  742   757     1
  742   758     1
  743   745     1
  743   746     1
  743   753     1
  743   754     1
  743   756     1
  744   749     1
  744   750     1
  744   751     1
  744   753     1
  744   754     1
  744   756     1
  745   747     1
  745   748     1
  745   752     1
  746   752     1
  747   749     1
  747   750     1
  747   751     1
  752   759     1
  752   760     1
  753   755     1
  753   757     1
  753   758     1
  754   757     1
  754   758     1
  755   756     1
  756   761     1
  756   762     1
  756   763     1
  757   759     1
  757   760     1
  758   760     1
  761   764     1
  762   764     1
  765   768     1
  765   773     1
  765   774     1
  765   781     1
  765   782     1
  765   783     1
  765   787     1
  766   767     1
  766   771     1
  766   772     1
  766   780     1
  767   770     1
  767   781     1
  767   782     1
  767   786     1
  767   791     1
  768   780     1
  768   784     1
  768   785     1
  768   788     1
  768   789     1
  768   790     1
  769   771     1
  769   772     1
  769   780     1
  769   784     1
  769   785     1
  769   788     1
  769   789     1
  769   790     1
  770   775     1
  770   776     1
  770   784     1
  770   785     1
  770   792     1
  771   773     1
  771   774     1
  771   781     1
  771   782     1
  771   783     1
  772   777     1
  772   778     1
  772   779     1
  772   781     1
  772   782     1
  772   783     1
  773   775     1
  773   776     1
  773   780     1
  774   780     1
  775   777     1
  775   778     1
  775   779     1
  780   786     1
  780   787     1
  780   793     1
  780   796     1
  780   797     1
  781   784     1
  781   785     1
  781   792     1
  782   784     1
  782   785     1
  782   794     1
  782   798     1
  782   799     1
  782   800     1
  783   788     1
  783   789     1
  783   790     1
  783   792     1
  784   786     1
  784   787     1
  785   787     1
  788   791     1
  789   791     1
  792   795     1
  792   801     1
  792   802     1
  792   804     1
  792   808     1
  792   813     1
  793   794     1
  793   798     1
  793   799     1
  793   800     1
  794   797     1
  794   801     1
  794   802     1
  794   807     1
  794   812     1
  795   800     1
  795   805     1
  795   806     1
  795   809     1
  795   810     1
  795   811     1
  796   798     1
  796   799     1
  796   800     1
  796   805     1
  796   806     1
  796   809     1
  796   810     1
  796   811     1
  797   803     1
  797   805     1
  797   806     1
  797   814     1
  797   817     1
  797   818     1
  798   801     1
  798   802     1
  798   804     1
  798   813     1
  799   801     1
  799   802     1
  799   804     1
  799   815     1
  799   819     1
  799   820     1
  799   821     1
  800   807     1
  800   808     1
  800   813     1
  801   803     1
  801   805     1
  801   806     1
  802   805     1
  802   806     1
  803   804     1
  804   809     1
  804   810     1
  804   811     1
  805   807     1
  805   808     1
  806   808     1
  809   812     1
  810   812     1
  813   816     1
  813   822     1
  813   823     1
  813   825     1
  813   829     1
  813   833     1
  814   815     1
  814   819     1
  814   820     1
  814   821     1
  815   818     1
  815   822     1
  815   823     1
  815   828     1
  816   821     1
  816   826     1
  816   827     1
  816   830     1
  816   831     1
  816   832     1
  817   819     1
  817   820     1
  817   821     1
  817   826     1
  817   827     1
  817   830     1
  817   831     1
  817   832     1
  818   824     1
  818   826     1
  818   827     1
  818   834     1
  818   837     1
  818   838     1
  819   822     1
  819   823     1
  819   825     1
  819   833     1
  820   822     1
  820   823     1
  820   825     1
  820   835     1
  820   839     1
  820   840     1
  820   841     1
  821   828     1
  821   829     1
  821   833     1
  822   824     1
  822   826     1
  822   827     1
  823   826     1
  823   827     1
  824   825     1
  825   830     1
  825   831     1
  825   832     1
  826   828     1
  826   829     1
  827   829     1
  833   836     1
  833   842     1
  833   843     1
  833   844     1
  833   848     1
  833   852     1
  834   835     1
  834   839     1
  834   840     1
  834   841     1
  835   838     1
  835   842     1
  835   843     1
  835   847     1
  836   841     1
  836   845     1
  836   846     1
  836   849     1
  836   850     1
  836   851     1
  837   839     1
  837   840     1
  837   841     1
  837   845     1
  837   846     1
  837   849     1
  837   850     1
  837   851     1
  838   845     1
  838   846     1
  838   853     1
  838   856     1
  838   857     1
  838   880     1
  839   842     1
  839   843     1
  839   844     1
  839   852     1
  840   842     1
  840   843     1
  840   844     1
  840   854     1
  840   858     1
  840   859     1
  840   867     1
  841   847     1
  841   848     1
  841   852     1
  841   881     1
  841   884     1
  841   885     1
  842   845     1
  842   846     1
  842   880     1
  843   845     1
  843   846     1
  843   882     1
  843   886     1
  843   887     1
  843   895     1
  844   849     1
  844   850     1
  844   851     1
  844   880     1
  845   847     1
  845   848     1
  846   848     1
  852   855     1
  852   860     1
  852   861     1
  852   868     1
  852   869     1
  852   871     1
  852   875     1
  853   854     1
  853   858     1
  853   859     1
  853   867     1
  854   857     1
  854   868     1
  854   869     1
  854   874     1
  854   879     1
  855   867     1
  855   872     1
  855   873     1
  855   876     1
  855   877     1
  855   878     1
  856   858     1
  856   859     1
  856   867     1
  856   872     1
  856   873     1
  856   876     1
  856   877     1
  856   878     1
  857   862     1
  857   863     1
  857   870     1
  857   872     1
  857   873     1
  858   860     1
  858   861     1
  858   868     1
  858   869     1
  858   871     1
  859   864     1
  859   865     1
  859   866     1
  859   868     1
  859   869     1
  859   871     1
  860   862     1
  860   863     1
  860   867     1
  861   867     1
  862   864     1
  862   865     1
  862   866     1
  867   874     1
  867   875     1
  868   870     1
  868   872     1
  868   873     1
  869   872     1
  869   873     1
  870   871     1
  871   876     1
  871   877     1
  871   878     1
  872   874     1
  872   875     1
  873   875     1
  876   879     1
  877   879     1
  880   883     1
  880   888     1
  880   889     1
  880   896     1
  880   897     1
  880   898     1
  880   902     1
  881   882     1
  881   886     1
  881   887     1
  881   895     1
  882   885     1
  882   896     1
  882   897     1
  882   901     1
  882   906     1
  883   895     1
  883   899     1
  883   900     1
  883   903     1
  883   904     1
  883   905     1
  884   886     1
  884   887     1
  884   895     1
  884   899     1
  884   900     1
  884   903     1
  884   904     1
  884   905     1
  885   890     1
  885   891     1
  885   899     1
  885   900     1
  885   907     1
  886   888     1
  886   889     1
  886   896     1
  886   897     1
  886   898     1
  887   892     1
  887   893     1
  887   894     1
  887   896     1
  887   897     1
  887   898     1
  888   890     1
  888   891     1
  888   895     1
  889   895     1
  890   892     1
  890   893     1
  890   894     1
  895   901     1
  895   902     1
  895   908     1
  895   911     1
  895   912     1
  896   899     1
  896   900     1
  896   907     1
  897   899     1
  897   900     1
  897   909     1
  897   913     1
  897   914     1
  897   915     1
  898   903     1
  898   904     1
  898   905     1
  898   907     1
  899   901     1
  899   902     1
  900   902     1
  903   906     1
  904   906     1
  907   910     1
  907   916     1
  907   917     1
  907   919     1
  907   923     1
  907   928     1
  908   909     1
  908   913     1
  908   914     1
  908   915     1
  909   912     1
  909   916     1
  909   917     1
  909   922     1
  909   927     1
  910   915     1
  910   920     1
  910   921     1
  910   924     1
  910   925     1
  910   926     1
  911   913     1
  911   914     1
  911   915     1
  911   920     1
  911   921     1
  911   924     1
  911   925     1
  911   926     1
  912   918     1
  912   920     1
  912   921     1
  912   929     1
  912   932     1
  912   933     1
  913   916     1
  913   917     1
  913   919     1
  913   928     1
  914   916     1
  914   917     1
  914   919     1
  914   930     1
  914   934     1
  914   935     1
  914   936     1
  915   922     1
  915   923     1
  915   928     1
  916   918     1
  916   920     1
  916   921     1
  917   920     1
  917   921     1
  918   919     1
  919   924     1
  919   925     1
  919   926     1
  920   922     1
  920   923     1
  921   923     1
  924   927     1
  925   927     1
  928   931     1
  928   937     1
  928   938     1
  928   940     1
  928   944     1
  928   948     1
  929   930     1
  929   934     1
  929   935     1
  929   936     1
  930   933     1
  930   937     1
  930   938     1
  930   943     1
  931   936     1
  931   941     1
  931   942     1
  931   945     1
  931   946     1
  931   947     1
  932   934     1
  932   935     1
  932   936     1
  932   941     1
  932   942     1
  932   945     1
  932   946     1
  932   947     1
  933   939     1
  933   941     1
  933   942     1
  933   949     1
  933   952     1
  933   953     1
  934   937     1
  934   938     1
  934   940     1
  934   948     1
  935   937     1
  935   938     1
  935   940     1
  935   950     1
  935   954     1
  935   955     1
  935   956     1
  936   943     1
  936   944     1
  936   948     1
  937   939     1
  937   941     1
  937   942     1
  938   941     1
  938   942     1
  939   940     1
  940   945     1
  940   946     1
  940   947     1
  941   943     1
  941   944     1
  942   944     1
  948   951     1
  948   957     1
  948   958     1
  948   959     1
  948   963     1
  948   967     1
  949   950     1
  949   954     1
  949   955     1
  949   956     1
  950   953     1
  950   957     1
  950   958     1
  950   962     1
  951   956     1
  951   960     1
  951   961     1
  951   964     1
  951   965     1
  951   966     1
  952   954     1
  952   955     1
  952   956     1
  952   960     1
  952   961     1
  952   964     1
  952   965     1
  952   966     1
  953   960     1
  953   961     1
  953   968     1
  953   971     1
  953   972     1
  953   995     1
  954   957     1
  954   958     1
  954   959     1
  954   967     1
  955   957     1
  955   958     1
  955   959     1
  955   969     1
  955   973     1
  955   974     1
  955   982     1
  956   962     1
  956   963     1
  956   967     1
  956   996     1
  956   999     1
  956  1000     1
  957   960     1
  957   961     1
  957   995     1
  958   960     1
  958   961     1
  958   997     1
  958  1001     1
  958  1002     1
  958  1010     1
  959   964     1
  959   965     1
  959   966     1
  959   995     1
  960   962     1
  960   963     1
  961   963     1
  967   970     1
  967   975     1
  967   976     1
  967   983     1
  967   984     1
  967   986     1
  967   990     1
  968   969     1
  968   973     1
  968   974     1
  968   982     1
  969   972     1
  969   983     1
  969   984     1
  969   989     1
  969   994     1
  970   982     1
  970   987     1
  970   988     1
  970   991     1
  970   992     1
  970   993     1
  971   973     1
  971   974     1
  971   982     1
  971   987     1
  971   988     1
  971   991     1
  971   992     1
  971   993     1
  972   977     1
  972   978     1
  972   985     1
  972   987     1
  972   988     1
  973   975     1
  973   976     1
  973   983     1
  973   984     1
  973   986     1
  974   979     1
  974   980     1
  974   981     1
  974   983     1
  974   984     1
  974   986     1
  975   977     1
  975   978     1
  975   982     1
  976   982     1
  977   979     1
  977   980     1
  977   981     1
  982   989     1
  982   990     1
  983   985     1
  983   987     1
  983   988     1
  984   987     1
  984   988     1
  985   986     1
  986   991     1
  986   992     1
  986   993     1
  987   989     1
  987   990     1
  988   990     1
  991   994     1
  992   994     1
  995   998     1
  995  1003     1
  995  1004     1
  995  1011     1
  995  1012     1
  995  1013     1
  995  1017     1
  996   997     1
  996  1001     1
  996  1002     1
  996  1010     1
  997  1000     1
  997  1011     1
  997  1012     1
  997  1016     1
  997  1021     1
  998  1010     1
  998  1014     1
  998  1015     1
  998  1018     1
  998  1019     1
  998  1020     1
  999  1001     1
  999  1002     1
  999  1010     1
  999  1014     1
  999  1015     1
  999  1018     1
  999  1019     1
  999  1020     1
 1000  1005     1
 1000  1006     1
 1000  1014     1
 1000  1015     1
 1000  1022     1
 1001  1003     1
 1001  1004     1
 1001  1011     1
 1001  1012     1
 1001  1013     1
 1002  1007     1
 1002  1008     1
 1002  1009     1
 1002  1011     1
 1002  1012     1
 1002  1013     1
 1003  1005     1
 1003  1006     1
 1003  1010     1
 1004  1010     1
 1005  1007     1
 1005  1008     1
 1005  1009     1
 1010  1016     1
 1010  1017     1
 1010  1023     1
 1010  1026     1
 1010  1027     1
 1011  1014     1
 1011  1015     1
 1011  1022     1
 1012  1014     1
 1012  1015     1
 1012  1024     1
 1012  1028     1
 1012  1029     1
 1012  1030     1
 1013  1018     1
 1013  1019     1
 1013  1020     1
 1013  1022     1
 1014  1016     1
 1014  1017     1
 1015  1017     1
 1018  1021     1
 1019  1021     1
 1022  1025     1
 1022  1031     1
 1022  1032     1
 1022  1034     1
 1022  1038     1
 1022  1043     1
 1023  1024     1
 1023  1028     1
 1023  1029     1
 1023  1030     1
 1024  1027     1
 1024  1031     1
 1024  1032     1
 1024  1037     1
 1024  1042     1
 1025  1030     1
 1025  1035     1
 1025  1036     1
 1025  1039     1
 1025  1040     1
 1025  1041     1
 1026  1028     1
 1026  1029     1
 1026  1030     1
 1026  1035     1
 1026  1036     1
 1026  1039     1
 1026  1040     1
 1026  1041     1
 1027  1033     1
 1027  1035     1
 1027  1036     1
 1027  1044     1
 1027  1047     1
 1027  1048     1
 1028  1031     1
 1028  1032     1
 1028  1034     1
 1028  1043     1
 1029  1031     1
 1029  1032     1
 1029  1034     1
 1029  1045     1
 1029  1049     1
 1029  1050     1
 1029  1051     1
 1030  1037     1
 1030  1038     1
 1030  1043     1
 1031  1033     1
 1031  1035     1
 1031  1036     1
 1032  1035     1
 1032  1036     1
 1033  1034     1
 1034  1039     1
 1034  1040     1
 1034  1041     1
 1035  1037     1
 1035  1038     1
 1036  1038     1
 1039  1042     1
 1040  1042     1
 1043  1046     1
 1043  1052     1
 1043  1053     1
 1043  1055     1
 1043  1059     1
 1043  1063     1
 1044  1045     1
 1044  1049     1
 1044  1050     1
 1044  1051     1
 1045  1048     1
 1045  1052     1
 1045  1053     1
 1045  1058     1
 1046  1051     1
 1046  1056     1
 1046  1057     1
 1046  1060     1
 1046  1061     1
 1046  1062     1
 1047  1049     1
 1047  1050     1
 1047  1051     1
 1047  1056     1
 1047  1057     1
 1047  1060     1
 1047  1061     1
 1047  1062     1
 1048  1054     1
 1048  1056     1
 1048  1057     1
 1048  1064     1
 1048  1067     1
 1048  1068     1
 1049  1052     1
 1049  1053     1
 1049  1055     1
 1049  1063     1
 1050  1052     1
 1050  1053     1
 1050  1055     1
 1050  1065     1
 1050  1069     1
 1050  1070     1
 1050  1071     1
 1051  1058     1
 1051  1059     1
 1051  1063     1
 1052  1054     1
 1052  1056     1
 1052  1057     1
 1053  1056     1
 1053  1057     1
 1054  1055     1
 1055  1060     1
 1055  1061     1
 1055  1062     1
 1056  1058     1
 1056  1059     1
 1057  1059     1
 1063  1066     1
 1063  1072     1
 1063  1073     1
 1063  1075     1
 1063  1079     1
 1063  1083     1
 1064  1065     1
 1064  1069     1
 1064  1070     1
 1064  1071     1
 1065  1068     1
 1065  1072     1
 1065  1073     1
 1065  1078     1
 1066  1071     1
 1066  1076     1
 1066  1077     1
 1066  1080     1
 1066  1081     1
 1066  1082     1
 1067  1069     1
 1067  1070     1
 1067  1071     1
 1067  1076     1
 1067  1077     1
 1067  1080     1
 1067  1081     1
 1067  1082     1
 1068  1074     1
 1068  1076     1
 1068  1077     1
 1068  1084     1
 1068  1087     1
 1068  1088     1
 1069  1072     1
 1069  1073     1
 1069  1075     1
 1069  1083     1
 1070  1072     1
 1070  1073     1
 1070  1075     1
 1070  1085     1
 1070  1089     1
 1070  1090     1
 1070  1098     1
 1071  1078     1
 1071  1079     1
 1071  1083     1
 1072  1074     1
 1072  1076     1
 1072  1077     1
 1073  1076     1
 1073  1077     1
 1074  1075     1
 1075  1080     1
 1075  1081     1
 1075  1082     1
 1076  1078     1
 1076  1079     1
 1077  1079     1
 1083  1086     1
 1083  1091     1
 1083  1092     1
 1083  1099     1
 1083  1100     1
 1083  1102     1
 1083  1106     1
 1084  1085     1
 1084  1089     1
 1084  1090     1
 1084  1098     1
 1085  1088     1
 1085  1099     1
 1085  1100     1
 1085  1105     1
 1085  1110     1
 1086  1098     1
 1086  1103     1
 1086  1104     1
 1086  1107     1
 1086  1108     1
 1086  1109     1
 1087  1089     1
 1087  1090     1
 1087  1098     1
 1087  1103     1
 1087  1104     1
 1087  1107     1
 1087  1108     1
 1087  1109     1
 1088  1093     1
 1088  1094     1
 1088  1101     1
 1088  1103     1
 1088  1104     1
 1089  1091     1
 1089  1092     1
 1089  1099     1
 1089  1100     1
 1089  1102     1
 1090  1095     1
 1090  1096     1
 1090  1097     1
 1090  1099     1
 1090  1100     1
 1090  1102     1
 1091  1093     1
 1091  1094     1
 1091  1098     1
 1092  1098     1
 1093  1095     1
 1093  1096     1
 1093  1097     1
 1098  1105     1
 1098  1106     1
 1099  1101     1
 1099  1103     1
 1099  1104     1
 1100  1103     1
 1100  1104     1
 1101  1102     1
 1102  1107     1
 1102  1108     1
 1102  1109     1
 1103  1105     1
 1103  1106     1
 1104  1106     1
 1107  1110     1
 1108  1110     1

[ angles ] 
; ai	aj	ak	funct	th0	cth	S0	Kub
    3     2   300     5
    1     3     2     5
    1     3     4     5
    1     3     5     5
    2     3     4     5
    2     3     5     5
    4     3     5     5
    3     5     6     5
    3     5     7     5
    3     5    14     5
    6     5     7     5
    6     5    14     5
    7     5    14     5
    5     6     8     5
    6     8     9     5
    6     8    10     5
    6     8    29     5
    9     8    10     5
    9     8    29     5
   10     8    29     5
    8    10    11     5
   10    11    12     5
   10    11    13     5
   10    11    37     5
   12    11    13     5
   12    11    37     5
   13    11    37     5
    5    14    15     5
    5    14    16     5
    5    14    21     5
   15    14    16     5
   15    14    21     5
   16    14    21     5
   14    16    17     5
   16    17    18     5
   16    17    19     5
   16    17    20     5
   18    17    19     5
   18    17    20     5
   19    17    20     5
   14    21    22     5
   14    21    23     5
   14    21    29     5
   22    21    23     5
   22    21    29     5
   23    21    29     5
   21    22    24     5
   22    24    25     5
   22    24    26     5
   25    24    26     5
   24    26    27     5
   24    26    28     5
   24    26    59     5
   27    26    28     5
   27    26    59     5
   28    26    59     5
    8    29    21     5
    8    29    30     5
    8    29    31     5
   21    29    30     5
   21    29    31     5
   30    29    31     5
   29    31    32     5
   29    31   138     5
   32    31   138     5
   34    33    35     5
   34    33    37     5
   34    33    47     5
   35    33    37     5
   35    33    47     5
   37    33    47     5
   33    35    36     5
   11    37    33     5
   11    37    38     5
   11    37    39     5
   33    37    38     5
   33    37    39     5
   38    37    39     5
   37    39    40     5
   39    40    41     5
   39    40    42     5
   39    40    55     5
   41    40    42     5
   41    40    55     5
   42    40    55     5
   40    42    46     5
   42    46    43     5
   42    46    44     5
   42    46    45     5
   43    46    44     5
   43    46    45     5
   44    46    45     5
   33    47    48     5
   33    47    49     5
   33    47    55     5
   48    47    49     5
   48    47    55     5
   49    47    55     5
   47    49    50     5
   49    50    51     5
   49    50    52     5
   51    50    52     5
   50    52    53     5
   50    52    54     5
   50    52   216     5
   53    52    54     5
   53    52   216     5
   54    52   216     5
   40    55    47     5
   40    55    56     5
   40    55    57     5
   47    55    56     5
   47    55    57     5
   56    55    57     5
   55    57    58     5
   55    57   254     5
   58    57   254     5
   26    59    60     5
   26    59    61     5
   26    59   104     5
   60    59    61     5
   60    59   104     5
   61    59   104     5
   59    61    62     5
   61    62    63     5
   61    62    64     5
   63    62    64     5
   62    64    65     5
   62    64    66     5
   62    64    67     5
   65    64    66     5
   65    64    67     5
   66    64    67     5
   64    67    68     5
   64    67    69     5
   64    67    70     5
   68    67    69     5
   68    67    70     5
   69    67    70     5
   67    70    71     5
   67    70    72     5
   67    70    73     5
   71    70    72     5
   71    70    73     5
   72    70    73     5
   70    73    74     5
   70    73    75     5
   70    73    76     5
   74    73    75     5
   74    73    76     5
   75    73    76     5
   73    76    77     5
   73    76    78     5
   73    76    79     5
   77    76    78     5
   77    76    79     5
   78    76    79     5
   76    79    80     5
   76    79    81     5
   76    79    82     5
   80    79    81     5
   80    79    82     5
   81    79    82     5
   79    82    83     5
   79    82    84     5
   79    82    85     5
   83    82    84     5
   83    82    85     5
   84    82    85     5
   82    85    86     5
   82    85    87     5
   82    85    88     5
   86    85    87     5
   86    85    88     5
   87    85    88     5
   85    88    89     5
   85    88    90     5
   85    88    91     5
   89    88    90     5
   89    88    91     5
   90    88    91     5
   88    91    92     5
   88    91    93     5
   88    91    94     5
   92    91    93     5
   92    91    94     5
   93    91    94     5
   91    94    95     5
   91    94    96     5
   91    94    97     5
   95    94    96     5
   95    94    97     5
   96    94    97     5
   94    97    98     5
   94    97    99     5
   94    97   100     5
   98    97    99     5
   98    97   100     5
   99    97   100     5
   97   100   101     5
   97   100   102     5
   97   100   103     5
  101   100   102     5
  101   100   103     5
  102   100   103     5
   59   104   105     5
   59   104   106     5
   59   104   107     5
  105   104   106     5
  105   104   107     5
  106   104   107     5
  104   107   108     5
  104   107   109     5
  104   107   110     5
  108   107   109     5
  108   107   110     5
  109   107   110     5
  107   110   111     5
  107   110   112     5
  107   110   113     5
  111   110   112     5
  111   110   113     5
  112   110   113     5
  110   113   114     5
  110   113   115     5
  110   113   116     5
  114   113   115     5
  114   113   116     5
  115   113   116     5
  113   116   117     5
  113   116   118     5
  113   116   119     5
  117   116   118     5
  117   116   119     5
  118   116   119     5
  116   119   120     5
  116   119   121     5
  116   119   122     5
  120   119   121     5
  120   119   122     5
  121   119   122     5
  119   122   123     5
  119   122   124     5
  119   122   125     5
  123   122   124     5
  123   122   125     5
  124   122   125     5
  122   125   126     5
  122   125   127     5
  122   125   128     5
  126   125   127     5
  126   125   128     5
  127   125   128     5
  125   128   129     5
  125   128   130     5
  125   128   131     5
  129   128   130     5
  129   128   131     5
  130   128   131     5
  128   131   132     5
  128   131   133     5
  128   131   134     5
  132   131   133     5
  132   131   134     5
  133   131   134     5
  131   134   135     5
  131   134   136     5
  131   134   137     5
  135   134   136     5
  135   134   137     5
  136   134   137     5
   31   138   139     5
   31   138   140     5
  139   138   140     5
  138   140   141     5
  138   140   142     5
  138   140   143     5
  141   140   142     5
  141   140   143     5
  142   140   143     5
  140   143   144     5
  140   143   145     5
  140   143   182     5
  144   143   145     5
  144   143   182     5
  145   143   182     5
  143   145   146     5
  145   146   147     5
  145   146   148     5
  147   146   148     5
  146   148   149     5
  146   148   150     5
  146   148   151     5
  149   148   150     5
  149   148   151     5
  150   148   151     5
  148   151   152     5
  148   151   153     5
  148   151   154     5
  152   151   153     5
  152   151   154     5
  153   151   154     5
  151   154   155     5
  151   154   156     5
  151   154   157     5
  155   154   156     5
  155   154   157     5
  156   154   157     5
  154   157   158     5
  154   157   159     5
  154   157   160     5
  158   157   159     5
  158   157   160     5
  159   157   160     5
  157   160   161     5
  157   160   162     5
  157   160   163     5
  161   160   162     5
  161   160   163     5
  162   160   163     5
  160   163   164     5
  160   163   165     5
  160   163   166     5
  164   163   165     5
  164   163   166     5
  165   163   166     5
  163   166   167     5
  163   166   168     5
  163   166   169     5
  167   166   168     5
  167   166   169     5
  168   166   169     5
  166   169   170     5
  166   169   171     5
  166   169   172     5
  170   169   171     5
  170   169   172     5
  171   169   172     5
  169   172   173     5
  169   172   174     5
  169   172   175     5
  173   172   174     5
  173   172   175     5
  174   172   175     5
  172   175   176     5
  172   175   177     5
  172   175   178     5
  176   175   177     5
  176   175   178     5
  177   175   178     5
  175   178   179     5
  175   178   180     5
  175   178   181     5
  179   178   180     5
  179   178   181     5
  180   178   181     5
  143   182   183     5
  143   182   184     5
  143   182   185     5
  183   182   184     5
  183   182   185     5
  184   182   185     5
  182   185   186     5
  182   185   187     5
  182   185   188     5
  186   185   187     5
  186   185   188     5
  187   185   188     5
  185   188   189     5
  185   188   190     5
  185   188   191     5
  189   188   190     5
  189   188   191     5
  190   188   191     5
  188   191   192     5
  188   191   193     5
  188   191   194     5
  192   191   193     5
  192   191   194     5
  193   191   194     5
  191   194   195     5
  191   194   196     5
  191   194   197     5
  195   194   196     5
  195   194   197     5
  196   194   197     5
  194   197   198     5
  194   197   199     5
  194   197   200     5
  198   197   199     5
  198   197   200     5
  199   197   200     5
  197   200   201     5
  197   200   202     5
  197   200   203     5
  201   200   202     5
  201   200   203     5
  202   200   203     5
  200   203   204     5
  200   203   205     5
  200   203   206     5
  204   203   205     5
  204   203   206     5
  205   203   206     5
  203   206   207     5
  203   206   208     5
  203   206   209     5
  207   206   208     5
  207   206   209     5
  208   206   209     5
  206   209   210     5
  206   209   211     5
  206   209   212     5
  210   209   211     5
  210   209   212     5
  211   209   212     5
  209   212   213     5
  209   212   214     5
  209   212   215     5
  213   212   214     5
  213   212   215     5
  214   212   215     5
   52   216   217     5
   52   216   218     5
   52   216   220     5
  217   216   218     5
  217   216   220     5
  218   216   220     5
  216   218   219     5
  216   220   221     5
  216   220   222     5
  216   220   223     5
  221   220   222     5
  221   220   223     5
  222   220   223     5
  220   223   224     5
  220   223   225     5
  220   223   226     5
  224   223   225     5
  224   223   226     5
  225   223   226     5
  223   226   227     5
  223   226   228     5
  223   226   229     5
  227   226   228     5
  227   226   229     5
  228   226   229     5
  226   229   230     5
  226   229   231     5
  226   229   232     5
  230   229   231     5
  230   229   232     5
  231   229   232     5
  229   232   233     5
  229   232   234     5
  229   232   235     5
  233   232   234     5
  233   232   235     5
  234   232   235     5
  232   235   236     5
  232   235   237     5
  232   235   238     5
  236   235   237     5
  236   235   238     5
  237   235   238     5
  235   238   239     5
  235   238   240     5
  235   238   241     5
  239   238   240     5
  239   238   241     5
  240   238   241     5
  238   241   242     5
  238   241   243     5
  238   241   244     5
  242   241   243     5
  242   241   244     5
  243   241   244     5
  241   244   245     5
  241   244   246     5
  241   244   247     5
  245   244   246     5
  245   244   247     5
  246   244   247     5
  244   247   248     5
  244   247   249     5
  244   247   250     5
  248   247   249     5
  248   247   250     5
  249   247   250     5
  247   250   251     5
  247   250   252     5
  247   250   253     5
  251   250   252     5
  251   250   253     5
  252   250   253     5
   57   254   255     5
   57   254   256     5
  255   254   256     5
  254   256   257     5
  254   256   258     5
  254   256   259     5
  257   256   258     5
  257   256   259     5
  258   256   259     5
  256   259   260     5
  256   259   261     5
  256   259   263     5
  260   259   261     5
  260   259   263     5
  261   259   263     5
  259   261   262     5
  259   263   264     5
  259   263   265     5
  259   263   266     5
  264   263   265     5
  264   263   266     5
  265   263   266     5
  263   266   267     5
  263   266   268     5
  263   266   269     5
  267   266   268     5
  267   266   269     5
  268   266   269     5
  266   269   270     5
  266   269   271     5
  266   269   272     5
  270   269   271     5
  270   269   272     5
  271   269   272     5
  269   272   273     5
  269   272   274     5
  269   272   275     5
  273   272   274     5
  273   272   275     5
  274   272   275     5
  272   275   276     5
  272   275   277     5
  272   275   278     5
  276   275   277     5
  276   275   278     5
  277   275   278     5
  275   278   279     5
  275   278   280     5
  275   278   281     5
  279   278   280     5
  279   278   281     5
  280   278   281     5
  278   281   282     5
  278   281   283     5
  278   281   284     5
  282   281   283     5
  282   281   284     5
  283   281   284     5
  281   284   285     5
  281   284   286     5
  281   284   287     5
  285   284   286     5
  285   284   287     5
  286   284   287     5
  284   287   288     5
  284   287   289     5
  284   287   290     5
  288   287   289     5
  288   287   290     5
  289   287   290     5
  287   290   291     5
  287   290   292     5
  287   290   293     5
  291   290   292     5
  291   290   293     5
  292   290   293     5
  290   293   294     5
  290   293   295     5
  290   293   296     5
  294   293   295     5
  294   293   296     5
  295   293   296     5
  298   297   299     5
  298   297   300     5
  299   297   300     5
    2   300   297     5
    2   300   303     5
    2   300   304     5
  297   300   303     5
  297   300   304     5
  303   300   304     5
  302   301   303     5
  302   301   310     5
  302   301   313     5
  303   301   310     5
  303   301   313     5
  310   301   313     5
  300   303   301     5
  300   304   305     5
  300   304   306     5
  300   304   307     5
  305   304   306     5
  305   304   307     5
  306   304   307     5
  304   307   308     5
  304   307   309     5
  304   307   310     5
  308   307   309     5
  308   307   310     5
  309   307   310     5
  307   309   325     5
  301   310   307     5
  301   310   311     5
  301   310   312     5
  307   310   311     5
  307   310   312     5
  311   310   312     5
  310   312   349     5
  301   313   314     5
  301   313   315     5
  301   313   317     5
  314   313   315     5
  314   313   317     5
  315   313   317     5
  313   315   316     5
  313   317   318     5
  313   317   319     5
  313   317   320     5
  318   317   319     5
  318   317   320     5
  319   317   320     5
  317   320   321     5
  323   322   324     5
  323   322   325     5
  324   322   325     5
  309   325   322     5
  309   325   328     5
  309   325   329     5
  322   325   328     5
  322   325   329     5
  328   325   329     5
  327   326   328     5
  327   326   336     5
  327   326   340     5
  328   326   336     5
  328   326   340     5
  336   326   340     5
  325   328   326     5
  325   329   330     5
  325   329   331     5
  325   329   332     5
  330   329   331     5
  330   329   332     5
  331   329   332     5
  329   332   333     5
  329   332   334     5
  329   332   336     5
  333   332   334     5
  333   332   336     5
  334   332   336     5
  332   334   335     5
  326   336   332     5
  326   336   337     5
  326   336   338     5
  332   336   337     5
  332   336   338     5
  337   336   338     5
  336   338   339     5
  326   340   341     5
  326   340   342     5
  326   340   344     5
  341   340   342     5
  341   340   344     5
  342   340   344     5
  340   342   343     5
  340   344   345     5
  340   344   346     5
  340   344   347     5
  345   344   346     5
  345   344   347     5
  346   344   347     5
  344   347   348     5
  312   349   350     5
  312   349   353     5
  312   349   354     5
  350   349   353     5
  350   349   354     5
  353   349   354     5
  352   351   353     5
  352   351   361     5
  352   351   368     5
  353   351   361     5
  353   351   368     5
  361   351   368     5
  349   353   351     5
  349   354   355     5
  349   354   356     5
  349   354   358     5
  355   354   356     5
  355   354   358     5
  356   354   358     5
  354   356   357     5
  354   358   359     5
  354   358   360     5
  354   358   361     5
  359   358   360     5
  359   358   361     5
  360   358   361     5
  358   360   377     5
  351   361   358     5
  351   361   362     5
  351   361   363     5
  358   361   362     5
  358   361   363     5
  362   361   363     5
  361   363   364     5
  363   364   365     5
  363   364   366     5
  363   364   367     5
  365   364   366     5
  365   364   367     5
  366   364   367     5
  351   368   369     5
  351   368   370     5
  351   368   372     5
  369   368   370     5
  369   368   372     5
  370   368   372     5
  368   370   371     5
  368   372   373     5
  368   372   374     5
  368   372   375     5
  373   372   374     5
  373   372   375     5
  374   372   375     5
  372   375   376     5
  360   377   378     5
  360   377   381     5
  360   377   382     5
  378   377   381     5
  378   377   382     5
  381   377   382     5
  380   379   381     5
  380   379   389     5
  380   379   396     5
  381   379   389     5
  381   379   396     5
  389   379   396     5
  377   381   379     5
  377   382   383     5
  377   382   384     5
  377   382   386     5
  383   382   384     5
  383   382   386     5
  384   382   386     5
  382   384   385     5
  382   386   387     5
  382   386   388     5
  382   386   389     5
  387   386   388     5
  387   386   389     5
  388   386   389     5
  386   388   430     5
  379   389   386     5
  379   389   390     5
  379   389   391     5
  386   389   390     5
  386   389   391     5
  390   389   391     5
  389   391   392     5
  391   392   393     5
  391   392   394     5
  391   392   395     5
  393   392   394     5
  393   392   395     5
  394   392   395     5
  379   396   397     5
  379   396   398     5
  379   396   400     5
  397   396   398     5
  397   396   400     5
  398   396   400     5
  396   398   399     5
  396   400   401     5
  396   400   402     5
  396   400   403     5
  401   400   402     5
  401   400   403     5
  402   400   403     5
  400   403   404     5
  403   404   405     5
  403   404   408     5
  403   404   409     5
  405   404   408     5
  405   404   409     5
  408   404   409     5
  407   406   408     5
  407   406   417     5
  407   406   421     5
  408   406   417     5
  408   406   421     5
  417   406   421     5
  404   408   406     5
  404   409   410     5
  404   409   411     5
  404   409   413     5
  410   409   411     5
  410   409   413     5
  411   409   413     5
  409   411   412     5
  409   413   414     5
  409   413   415     5
  409   413   417     5
  414   413   415     5
  414   413   417     5
  415   413   417     5
  413   415   416     5
  406   417   413     5
  406   417   418     5
  406   417   419     5
  413   417   418     5
  413   417   419     5
  418   417   419     5
  417   419   420     5
  406   421   422     5
  406   421   423     5
  406   421   425     5
  422   421   423     5
  422   421   425     5
  423   421   425     5
  421   423   424     5
  421   425   426     5
  421   425   427     5
  421   425   428     5
  426   425   427     5
  426   425   428     5
  427   425   428     5
  425   428   429     5
  388   430   431     5
  388   430   434     5
  388   430   435     5
  431   430   434     5
  431   430   435     5
  434   430   435     5
  433   432   434     5
  433   432   442     5
  433   432   446     5
  434   432   442     5
  434   432   446     5
  442   432   446     5
  430   434   432     5
  430   435   436     5
  430   435   437     5
  430   435   439     5
  436   435   437     5
  436   435   439     5
  437   435   439     5
  435   437   438     5
  435   439   440     5
  435   439   441     5
  435   439   442     5
  440   439   441     5
  440   439   442     5
  441   439   442     5
  439   441   451     5
  432   442   439     5
  432   442   443     5
  432   442   444     5
  439   442   443     5
  439   442   444     5
  443   442   444     5
  442   444   445     5
  432   446   447     5
  432   446   448     5
  432   446   449     5
  447   446   448     5
  447   446   449     5
  448   446   449     5
  446   449   450     5
  441   451   452     5
  441   451   455     5
  441   451   456     5
  452   451   455     5
  452   451   456     5
  455   451   456     5
  454   453   455     5
  454   453   462     5
  454   453   466     5
  455   453   462     5
  455   453   466     5
  462   453   466     5
  451   455   453     5
  451   456   457     5
  451   456   458     5
  451   456   459     5
  457   456   458     5
  457   456   459     5
  458   456   459     5
  456   458   471     5
  456   459   460     5
  456   459   461     5
  456   459   462     5
  460   459   461     5
  460   459   462     5
  461   459   462     5
  459   461   514     5
  453   462   459     5
  453   462   463     5
  453   462   464     5
  459   462   463     5
  459   462   464     5
  463   462   464     5
  462   464   465     5
  453   466   467     5
  453   466   468     5
  453   466   469     5
  467   466   468     5
  467   466   469     5
  468   466   469     5
  466   469   470     5
  458   471   472     5
  458   471   475     5
  458   471   476     5
  472   471   475     5
  472   471   476     5
  475   471   476     5
  474   473   475     5
  474   473   483     5
  474   473   487     5
  475   473   483     5
  475   473   487     5
  483   473   487     5
  471   475   473     5
  471   476   477     5
  471   476   478     5
  471   476   479     5
  477   476   478     5
  477   476   479     5
  478   476   479     5
  476   478   492     5
  476   479   480     5
  476   479   481     5
  476   479   483     5
  480   479   481     5
  480   479   483     5
  481   479   483     5
  479   481   482     5
  473   483   479     5
  473   483   484     5
  473   483   485     5
  479   483   484     5
  479   483   485     5
  484   483   485     5
  483   485   486     5
  473   487   488     5
  473   487   489     5
  473   487   490     5
  488   487   489     5
  488   487   490     5
  489   487   490     5
  487   490   491     5
  478   492   493     5
  478   492   496     5
  478   492   497     5
  493   492   496     5
  493   492   497     5
  496   492   497     5
  495   494   496     5
  495   494   505     5
  495   494   509     5
  496   494   505     5
  496   494   509     5
  505   494   509     5
  492   496   494     5
  492   497   498     5
  492   497   499     5
  492   497   501     5
  498   497   499     5
  498   497   501     5
  499   497   501     5
  497   499   500     5
  497   501   502     5
  497   501   503     5
  497   501   505     5
  502   501   503     5
  502   501   505     5
  503   501   505     5
  501   503   504     5
  494   505   501     5
  494   505   506     5
  494   505   507     5
  501   505   506     5
  501   505   507     5
  506   505   507     5
  505   507   508     5
  494   509   510     5
  494   509   511     5
  494   509   512     5
  510   509   511     5
  510   509   512     5
  511   509   512     5
  509   512   513     5
  461   514   515     5
  461   514   518     5
  461   514   519     5
  515   514   518     5
  515   514   519     5
  518   514   519     5
  517   516   518     5
  517   516   526     5
  517   516   530     5
  518   516   526     5
  518   516   530     5
  526   516   530     5
  514   518   516     5
  514   519   520     5
  514   519   521     5
  514   519   523     5
  520   519   521     5
  520   519   523     5
  521   519   523     5
  519   521   522     5
  519   523   524     5
  519   523   525     5
  519   523   526     5
  524   523   525     5
  524   523   526     5
  525   523   526     5
  523   525   535     5
  516   526   523     5
  516   526   527     5
  516   526   528     5
  523   526   527     5
  523   526   528     5
  527   526   528     5
  526   528   529     5
  516   530   531     5
  516   530   532     5
  516   530   533     5
  531   530   532     5
  531   530   533     5
  532   530   533     5
  530   533   534     5
  525   535   536     5
  525   535   539     5
  525   535   540     5
  536   535   539     5
  536   535   540     5
  539   535   540     5
  538   537   539     5
  538   537   553     5
  538   537   557     5
  539   537   553     5
  539   537   557     5
  553   537   557     5
  535   539   537     5
  535   540   541     5
  535   540   542     5
  535   540   550     5
  541   540   542     5
  541   540   550     5
  542   540   550     5
  540   542   543     5
  540   542   544     5
  543   542   544     5
  542   544   545     5
  542   544   546     5
  545   544   546     5
  544   546   547     5
  544   546   548     5
  544   546   549     5
  547   546   548     5
  547   546   549     5
  548   546   549     5
  540   550   551     5
  540   550   552     5
  540   550   553     5
  551   550   552     5
  551   550   553     5
  552   550   553     5
  550   552   562     5
  537   553   550     5
  537   553   554     5
  537   553   555     5
  550   553   554     5
  550   553   555     5
  554   553   555     5
  553   555   556     5
  537   557   558     5
  537   557   559     5
  537   557   560     5
  558   557   559     5
  558   557   560     5
  559   557   560     5
  557   560   561     5
  552   562   563     5
  552   562   566     5
  552   562   567     5
  563   562   566     5
  563   562   567     5
  566   562   567     5
  565   564   566     5
  565   564   574     5
  565   564   578     5
  566   564   574     5
  566   564   578     5
  574   564   578     5
  562   566   564     5
  562   567   568     5
  562   567   569     5
  562   567   570     5
  568   567   569     5
  568   567   570     5
  569   567   570     5
  567   569   583     5
  567   570   571     5
  567   570   572     5
  567   570   574     5
  571   570   572     5
  571   570   574     5
  572   570   574     5
  570   572   573     5
  564   574   570     5
  564   574   575     5
  564   574   576     5
  570   574   575     5
  570   574   576     5
  575   574   576     5
  574   576   577     5
  564   578   579     5
  564   578   580     5
  564   578   581     5
  579   578   580     5
  579   578   581     5
  580   578   581     5
  578   581   582     5
  569   583   584     5
  569   583   587     5
  569   583   588     5
  584   583   587     5
  584   583   588     5
  587   583   588     5
  586   585   587     5
  586   585   595     5
  586   585   599     5
  587   585   595     5
  587   585   599     5
  595   585   599     5
  583   587   585     5
  583   588   589     5
  583   588   590     5
  583   588   591     5
  589   588   590     5
  589   588   591     5
  590   588   591     5
  588   590   603     5
  588   591   592     5
  588   591   593     5
  588   591   595     5
  592   591   593     5
  592   591   595     5
  593   591   595     5
  591   593   594     5
  585   595   591     5
  585   595   596     5
  585   595   597     5
  591   595   596     5
  591   595   597     5
  596   595   597     5
  595   597   598     5
  585   599   600     5
  585   599   601     5
  585   599   602     5
  600   599   601     5
  600   599   602     5
  601   599   602     5
  590   603   604     5
  590   603   607     5
  590   603   608     5
  604   603   607     5
  604   603   608     5
  607   603   608     5
  606   605   607     5
  606   605   614     5
  606   605   618     5
  607   605   614     5
  607   605   618     5
  614   605   618     5
  603   607   605     5
  603   608   609     5
  603   608   610     5
  603   608   611     5
  609   608   610     5
  609   608   611     5
  610   608   611     5
  608   610   622     5
  608   611   612     5
  608   611   613     5
  608   611   614     5
  612   611   613     5
  612   611   614     5
  613   611   614     5
  611   613   650     5
  605   614   611     5
  605   614   615     5
  605   614   616     5
  611   614   615     5
  611   614   616     5
  615   614   616     5
  614   616   617     5
  605   618   619     5
  605   618   620     5
  605   618   621     5
  619   618   620     5
  619   618   621     5
  620   618   621     5
  610   622   623     5
  610   622   626     5
  610   622   627     5
  623   622   626     5
  623   622   627     5
  626   622   627     5
  625   624   626     5
  625   624   641     5
  625   624   645     5
  626   624   641     5
  626   624   645     5
  641   624   645     5
  622   626   624     5
  622   627   628     5
  622   627   629     5
  622   627   637     5
  628   627   629     5
  628   627   637     5
  629   627   637     5
  627   629   630     5
  627   629   631     5
  630   629   631     5
  629   631   632     5
  629   631   633     5
  632   631   633     5
  631   633   634     5
  631   633   635     5
  631   633   636     5
  634   633   635     5
  634   633   636     5
  635   633   636     5
  627   637   638     5
  627   637   639     5
  627   637   641     5
  638   637   639     5
  638   637   641     5
  639   637   641     5
  637   639   640     5
  624   641   637     5
  624   641   642     5
  624   641   643     5
  637   641   642     5
  637   641   643     5
  642   641   643     5
  641   643   644     5
  624   645   646     5
  624   645   647     5
  624   645   648     5
  646   645   647     5
  646   645   648     5
  647   645   648     5
  645   648   649     5
  613   650   651     5
  613   650   654     5
  613   650   655     5
  651   650   654     5
  651   650   655     5
  654   650   655     5
  653   652   654     5
  653   652   668     5
  653   652   672     5
  654   652   668     5
  654   652   672     5
  668   652   672     5
  650   654   652     5
  650   655   656     5
  650   655   657     5
  650   655   665     5
  656   655   657     5
  656   655   665     5
  657   655   665     5
  655   657   658     5
  655   657   659     5
  658   657   659     5
  657   659   660     5
  657   659   661     5
  660   659   661     5
  659   661   662     5
  659   661   663     5
  659   661   664     5
  662   661   663     5
  662   661   664     5
  663   661   664     5
  655   665   666     5
  655   665   667     5
  655   665   668     5
  666   665   667     5
  666   665   668     5
  667   665   668     5
  665   667   677     5
  652   668   665     5
  652   668   669     5
  652   668   670     5
  665   668   669     5
  665   668   670     5
  669   668   670     5
  668   670   671     5
  652   672   673     5
  652   672   674     5
  652   672   675     5
  673   672   674     5
  673   672   675     5
  674   672   675     5
  672   675   676     5
  667   677   678     5
  667   677   681     5
  667   677   682     5
  678   677   681     5
  678   677   682     5
  681   677   682     5
  680   679   681     5
  680   679   689     5
  680   679   693     5
  681   679   689     5
  681   679   693     5
  689   679   693     5
  677   681   679     5
  677   682   683     5
  677   682   684     5
  677   682   685     5
  683   682   684     5
  683   682   685     5
  684   682   685     5
  682   684   698     5
  682   685   686     5
  682   685   687     5
  682   685   689     5
  686   685   687     5
  686   685   689     5
  687   685   689     5
  685   687   688     5
  679   689   685     5
  679   689   690     5
  679   689   691     5
  685   689   690     5
  685   689   691     5
  690   689   691     5
  689   691   692     5
  679   693   694     5
  679   693   695     5
  679   693   696     5
  694   693   695     5
  694   693   696     5
  695   693   696     5
  693   696   697     5
  684   698   699     5
  684   698   702     5
  684   698   703     5
  699   698   702     5
  699   698   703     5
  702   698   703     5
  701   700   702     5
  701   700   710     5
  701   700   714     5
  702   700   710     5
  702   700   714     5
  710   700   714     5
  698   702   700     5
  698   703   704     5
  698   703   705     5
  698   703   706     5
  704   703   705     5
  704   703   706     5
  705   703   706     5
  703   705   718     5
  703   706   707     5
  703   706   708     5
  703   706   710     5
  707   706   708     5
  707   706   710     5
  708   706   710     5
  706   708   709     5
  700   710   706     5
  700   710   711     5
  700   710   712     5
  706   710   711     5
  706   710   712     5
  711   710   712     5
  710   712   713     5
  700   714   715     5
  700   714   716     5
  700   714   717     5
  715   714   716     5
  715   714   717     5
  716   714   717     5
  705   718   719     5
  705   718   722     5
  705   718   723     5
  719   718   722     5
  719   718   723     5
  722   718   723     5
  721   720   722     5
  721   720   729     5
  721   720   733     5
  722   720   729     5
  722   720   733     5
  729   720   733     5
  718   722   720     5
  718   723   724     5
  718   723   725     5
  718   723   726     5
  724   723   725     5
  724   723   726     5
  725   723   726     5
  723   725   737     5
  723   726   727     5
  723   726   728     5
  723   726   729     5
  727   726   728     5
  727   726   729     5
  728   726   729     5
  726   728   765     5
  720   729   726     5
  720   729   730     5
  720   729   731     5
  726   729   730     5
  726   729   731     5
  730   729   731     5
  729   731   732     5
  720   733   734     5
  720   733   735     5
  720   733   736     5
  734   733   735     5
  734   733   736     5
  735   733   736     5
  725   737   738     5
  725   737   741     5
  725   737   742     5
  738   737   741     5
  738   737   742     5
  741   737   742     5
  740   739   741     5
  740   739   756     5
  740   739   760     5
  741   739   756     5
  741   739   760     5
  756   739   760     5
  737   741   739     5
  737   742   743     5
  737   742   744     5
  737   742   752     5
  743   742   744     5
  743   742   752     5
  744   742   752     5
  742   744   745     5
  742   744   746     5
  745   744   746     5
  744   746   747     5
  744   746   748     5
  747   746   748     5
  746   748   749     5
  746   748   750     5
  746   748   751     5
  749   748   750     5
  749   748   751     5
  750   748   751     5
  742   752   753     5
  742   752   754     5
  742   752   756     5
  753   752   754     5
  753   752   756     5
  754   752   756     5
  752   754   755     5
  739   756   752     5
  739   756   757     5
  739   756   758     5
  752   756   757     5
  752   756   758     5
  757   756   758     5
  756   758   759     5
  739   760   761     5
  739   760   762     5
  739   760   763     5
  761   760   762     5
  761   760   763     5
  762   760   763     5
  760   763   764     5
  728   765   766     5
  728   765   769     5
  728   765   770     5
  766   765   769     5
  766   765   770     5
  769   765   770     5
  768   767   769     5
  768   767   783     5
  768   767   787     5
  769   767   783     5
  769   767   787     5
  783   767   787     5
  765   769   767     5
  765   770   771     5
  765   770   772     5
  765   770   780     5
  771   770   772     5
  771   770   780     5
  772   770   780     5
  770   772   773     5
  770   772   774     5
  773   772   774     5
  772   774   775     5
  772   774   776     5
  775   774   776     5
  774   776   777     5
  774   776   778     5
  774   776   779     5
  777   776   778     5
  777   776   779     5
  778   776   779     5
  770   780   781     5
  770   780   782     5
  770   780   783     5
  781   780   782     5
  781   780   783     5
  782   780   783     5
  780   782   792     5
  767   783   780     5
  767   783   784     5
  767   783   785     5
  780   783   784     5
  780   783   785     5
  784   783   785     5
  783   785   786     5
  767   787   788     5
  767   787   789     5
  767   787   790     5
  788   787   789     5
  788   787   790     5
  789   787   790     5
  787   790   791     5
  782   792   793     5
  782   792   796     5
  782   792   797     5
  793   792   796     5
  793   792   797     5
  796   792   797     5
  795   794   796     5
  795   794   804     5
  795   794   808     5
  796   794   804     5
  796   794   808     5
  804   794   808     5
  792   796   794     5
  792   797   798     5
  792   797   799     5
  792   797   800     5
  798   797   799     5
  798   797   800     5
  799   797   800     5
  797   799   813     5
  797   800   801     5
  797   800   802     5
  797   800   804     5
  801   800   802     5
  801   800   804     5
  802   800   804     5
  800   802   803     5
  794   804   800     5
  794   804   805     5
  794   804   806     5
  800   804   805     5
  800   804   806     5
  805   804   806     5
  804   806   807     5
  794   808   809     5
  794   808   810     5
  794   808   811     5
  809   808   810     5
  809   808   811     5
  810   808   811     5
  808   811   812     5
  799   813   814     5
  799   813   817     5
  799   813   818     5
  814   813   817     5
  814   813   818     5
  817   813   818     5
  816   815   817     5
  816   815   825     5
  816   815   829     5
  817   815   825     5
  817   815   829     5
  825   815   829     5
  813   817   815     5
  813   818   819     5
  813   818   820     5
  813   818   821     5
  819   818   820     5
  819   818   821     5
  820   818   821     5
  818   820   833     5
  818   821   822     5
  818   821   823     5
  818   821   825     5
  822   821   823     5
  822   821   825     5
  823   821   825     5
  821   823   824     5
  815   825   821     5
  815   825   826     5
  815   825   827     5
  821   825   826     5
  821   825   827     5
  826   825   827     5
  825   827   828     5
  815   829   830     5
  815   829   831     5
  815   829   832     5
  830   829   831     5
  830   829   832     5
  831   829   832     5
  820   833   834     5
  820   833   837     5
  820   833   838     5
  834   833   837     5
  834   833   838     5
  837   833   838     5
  836   835   837     5
  836   835   844     5
  836   835   848     5
  837   835   844     5
  837   835   848     5
  844   835   848     5
  833   837   835     5
  833   838   839     5
  833   838   840     5
  833   838   841     5
  839   838   840     5
  839   838   841     5
  840   838   841     5
  838   840   852     5
  838   841   842     5
  838   841   843     5
  838   841   844     5
  842   841   843     5
  842   841   844     5
  843   841   844     5
  841   843   880     5
  835   844   841     5
  835   844   845     5
  835   844   846     5
  841   844   845     5
  841   844   846     5
  845   844   846     5
  844   846   847     5
  835   848   849     5
  835   848   850     5
  835   848   851     5
  849   848   850     5
  849   848   851     5
  850   848   851     5
  840   852   853     5
  840   852   856     5
  840   852   857     5
  853   852   856     5
  853   852   857     5
  856   852   857     5
  855   854   856     5
  855   854   871     5
  855   854   875     5
  856   854   871     5
  856   854   875     5
  871   854   875     5
  852   856   854     5
  852   857   858     5
  852   857   859     5
  852   857   867     5
  858   857   859     5
  858   857   867     5
  859   857   867     5
  857   859   860     5
  857   859   861     5
  860   859   861     5
  859   861   862     5
  859   861   863     5
  862   861   863     5
  861   863   864     5
  861   863   865     5
  861   863   866     5
  864   863   865     5
  864   863   866     5
  865   863   866     5
  857   867   868     5
  857   867   869     5
  857   867   871     5
  868   867   869     5
  868   867   871     5
  869   867   871     5
  867   869   870     5
  854   871   867     5
  854   871   872     5
  854   871   873     5
  867   871   872     5
  867   871   873     5
  872   871   873     5
  871   873   874     5
  854   875   876     5
  854   875   877     5
  854   875   878     5
  876   875   877     5
  876   875   878     5
  877   875   878     5
  875   878   879     5
  843   880   881     5
  843   880   884     5
  843   880   885     5
  881   880   884     5
  881   880   885     5
  884   880   885     5
  883   882   884     5
  883   882   898     5
  883   882   902     5
  884   882   898     5
  884   882   902     5
  898   882   902     5
  880   884   882     5
  880   885   886     5
  880   885   887     5
  880   885   895     5
  886   885   887     5
  886   885   895     5
  887   885   895     5
  885   887   888     5
  885   887   889     5
  888   887   889     5
  887   889   890     5
  887   889   891     5
  890   889   891     5
  889   891   892     5
  889   891   893     5
  889   891   894     5
  892   891   893     5
  892   891   894     5
  893   891   894     5
  885   895   896     5
  885   895   897     5
  885   895   898     5
  896   895   897     5
  896   895   898     5
  897   895   898     5
  895   897   907     5
  882   898   895     5
  882   898   899     5
  882   898   900     5
  895   898   899     5
  895   898   900     5
  899   898   900     5
  898   900   901     5
  882   902   903     5
  882   902   904     5
  882   902   905     5
  903   902   904     5
  903   902   905     5
  904   902   905     5
  902   905   906     5
  897   907   908     5
  897   907   911     5
  897   907   912     5
  908   907   911     5
  908   907   912     5
  911   907   912     5
  910   909   911     5
  910   909   919     5
  910   909   923     5
  911   909   919     5
  911   909   923     5
  919   909   923     5
  907   911   909     5
  907   912   913     5
  907   912   914     5
  907   912   915     5
  913   912   914     5
  913   912   915     5
  914   912   915     5
  912   914   928     5
  912   915   916     5
  912   915   917     5
  912   915   919     5
  916   915   917     5
  916   915   919     5
  917   915   919     5
  915   917   918     5
  909   919   915     5
  909   919   920     5
  909   919   921     5
  915   919   920     5
  915   919   921     5
  920   919   921     5
  919   921   922     5
  909   923   924     5
  909   923   925     5
  909   923   926     5
  924   923   925     5
  924   923   926     5
  925   923   926     5
  923   926   927     5
  914   928   929     5
  914   928   932     5
  914   928   933     5
  929   928   932     5
  929   928   933     5
  932   928   933     5
  931   930   932     5
  931   930   940     5
  931   930   944     5
  932   930   940     5
  932   930   944     5
  940   930   944     5
  928   932   930     5
  928   933   934     5
  928   933   935     5
  928   933   936     5
  934   933   935     5
  934   933   936     5
  935   933   936     5
  933   935   948     5
  933   936   937     5
  933   936   938     5
  933   936   940     5
  937   936   938     5
  937   936   940     5
  938   936   940     5
  936   938   939     5
  930   940   936     5
  930   940   941     5
  930   940   942     5
  936   940   941     5
  936   940   942     5
  941   940   942     5
  940   942   943     5
  930   944   945     5
  930   944   946     5
  930   944   947     5
  945   944   946     5
  945   944   947     5
  946   944   947     5
  935   948   949     5
  935   948   952     5
  935   948   953     5
  949   948   952     5
  949   948   953     5
  952   948   953     5
  951   950   952     5
  951   950   959     5
  951   950   963     5
  952   950   959     5
  952   950   963     5
  959   950   963     5
  948   952   950     5
  948   953   954     5
  948   953   955     5
  948   953   956     5
  954   953   955     5
  954   953   956     5
  955   953   956     5
  953   955   967     5
  953   956   957     5
  953   956   958     5
  953   956   959     5
  957   956   958     5
  957   956   959     5
  958   956   959     5
  956   958   995     5
  950   959   956     5
  950   959   960     5
  950   959   961     5
  956   959   960     5
  956   959   961     5
  960   959   961     5
  959   961   962     5
  950   963   964     5
  950   963   965     5
  950   963   966     5
  964   963   965     5
  964   963   966     5
  965   963   966     5
  955   967   968     5
  955   967   971     5
  955   967   972     5
  968   967   971     5
  968   967   972     5
  971   967   972     5
  970   969   971     5
  970   969   986     5
  970   969   990     5
  971   969   986     5
  971   969   990     5
  986   969   990     5
  967   971   969     5
  967   972   973     5
  967   972   974     5
  967   972   982     5
  973   972   974     5
  973   972   982     5
  974   972   982     5
  972   974   975     5
  972   974   976     5
  975   974   976     5
  974   976   977     5
  974   976   978     5
  977   976   978     5
  976   978   979     5
  976   978   980     5
  976   978   981     5
  979   978   980     5
  979   978   981     5
  980   978   981     5
  972   982   983     5
  972   982   984     5
  972   982   986     5
  983   982   984     5
  983   982   986     5
  984   982   986     5
  982   984   985     5
  969   986   982     5
  969   986   987     5
  969   986   988     5
  982   986   987     5
  982   986   988     5
  987   986   988     5
  986   988   989     5
  969   990   991     5
  969   990   992     5
  969   990   993     5
  991   990   992     5
  991   990   993     5
  992   990   993     5
  990   993   994     5
  958   995   996     5
  958   995   999     5
  958   995  1000     5
  996   995   999     5
  996   995  1000     5
  999   995  1000     5
  998   997   999     5
  998   997  1013     5
  998   997  1017     5
  999   997  1013     5
  999   997  1017     5
 1013   997  1017     5
  995   999   997     5
  995  1000  1001     5
  995  1000  1002     5
  995  1000  1010     5
 1001  1000  1002     5
 1001  1000  1010     5
 1002  1000  1010     5
 1000  1002  1003     5
 1000  1002  1004     5
 1003  1002  1004     5
 1002  1004  1005     5
 1002  1004  1006     5
 1005  1004  1006     5
 1004  1006  1007     5
 1004  1006  1008     5
 1004  1006  1009     5
 1007  1006  1008     5
 1007  1006  1009     5
 1008  1006  1009     5
 1000  1010  1011     5
 1000  1010  1012     5
 1000  1010  1013     5
 1011  1010  1012     5
 1011  1010  1013     5
 1012  1010  1013     5
 1010  1012  1022     5
  997  1013  1010     5
  997  1013  1014     5
  997  1013  1015     5
 1010  1013  1014     5
 1010  1013  1015     5
 1014  1013  1015     5
 1013  1015  1016     5
  997  1017  1018     5
  997  1017  1019     5
  997  1017  1020     5
 1018  1017  1019     5
 1018  1017  1020     5
 1019  1017  1020     5
 1017  1020  1021     5
 1012  1022  1023     5
 1012  1022  1026     5
 1012  1022  1027     5
 1023  1022  1026     5
 1023  1022  1027     5
 1026  1022  1027     5
 1025  1024  1026     5
 1025  1024  1034     5
 1025  1024  1038     5
 1026  1024  1034     5
 1026  1024  1038     5
 1034  1024  1038     5
 1022  1026  1024     5
 1022  1027  1028     5
 1022  1027  1029     5
 1022  1027  1030     5
 1028  1027  1029     5
 1028  1027  1030     5
 1029  1027  1030     5
 1027  1029  1043     5
 1027  1030  1031     5
 1027  1030  1032     5
 1027  1030  1034     5
 1031  1030  1032     5
 1031  1030  1034     5
 1032  1030  1034     5
 1030  1032  1033     5
 1024  1034  1030     5
 1024  1034  1035     5
 1024  1034  1036     5
 1030  1034  1035     5
 1030  1034  1036     5
 1035  1034  1036     5
 1034  1036  1037     5
 1024  1038  1039     5
 1024  1038  1040     5
 1024  1038  1041     5
 1039  1038  1040     5
 1039  1038  1041     5
 1040  1038  1041     5
 1038  1041  1042     5
 1029  1043  1044     5
 1029  1043  1047     5
 1029  1043  1048     5
 1044  1043  1047     5
 1044  1043  1048     5
 1047  1043  1048     5
 1046  1045  1047     5
 1046  1045  1055     5
 1046  1045  1059     5
 1047  1045  1055     5
 1047  1045  1059     5
 1055  1045  1059     5
 1043  1047  1045     5
 1043  1048  1049     5
 1043  1048  1050     5
 1043  1048  1051     5
 1049  1048  1050     5
 1049  1048  1051     5
 1050  1048  1051     5
 1048  1050  1063     5
 1048  1051  1052     5
 1048  1051  1053     5
 1048  1051  1055     5
 1052  1051  1053     5
 1052  1051  1055     5
 1053  1051  1055     5
 1051  1053  1054     5
 1045  1055  1051     5
 1045  1055  1056     5
 1045  1055  1057     5
 1051  1055  1056     5
 1051  1055  1057     5
 1056  1055  1057     5
 1055  1057  1058     5
 1045  1059  1060     5
 1045  1059  1061     5
 1045  1059  1062     5
 1060  1059  1061     5
 1060  1059  1062     5
 1061  1059  1062     5
 1050  1063  1064     5
 1050  1063  1067     5
 1050  1063  1068     5
 1064  1063  1067     5
 1064  1063  1068     5
 1067  1063  1068     5
 1066  1065  1067     5
 1066  1065  1075     5
 1066  1065  1079     5
 1067  1065  1075     5
 1067  1065  1079     5
 1075  1065  1079     5
 1063  1067  1065     5
 1063  1068  1069     5
 1063  1068  1070     5
 1063  1068  1071     5
 1069  1068  1070     5
 1069  1068  1071     5
 1070  1068  1071     5
 1068  1070  1083     5
 1068  1071  1072     5
 1068  1071  1073     5
 1068  1071  1075     5
 1072  1071  1073     5
 1072  1071  1075     5
 1073  1071  1075     5
 1071  1073  1074     5
 1065  1075  1071     5
 1065  1075  1076     5
 1065  1075  1077     5
 1071  1075  1076     5
 1071  1075  1077     5
 1076  1075  1077     5
 1075  1077  1078     5
 1065  1079  1080     5
 1065  1079  1081     5
 1065  1079  1082     5
 1080  1079  1081     5
 1080  1079  1082     5
 1081  1079  1082     5
 1070  1083  1084     5
 1070  1083  1087     5
 1070  1083  1088     5
 1084  1083  1087     5
 1084  1083  1088     5
 1087  1083  1088     5
 1086  1085  1087     5
 1086  1085  1102     5
 1086  1085  1106     5
 1087  1085  1102     5
 1087  1085  1106     5
 1102  1085  1106     5
 1083  1087  1085     5
 1083  1088  1089     5
 1083  1088  1090     5
 1083  1088  1098     5
 1089  1088  1090     5
 1089  1088  1098     5
 1090  1088  1098     5
 1088  1090  1091     5
 1088  1090  1092     5
 1091  1090  1092     5
 1090  1092  1093     5
 1090  1092  1094     5
 1093  1092  1094     5
 1092  1094  1095     5
 1092  1094  1096     5
 1092  1094  1097     5
 1095  1094  1096     5
 1095  1094  1097     5
 1096  1094  1097     5
 1088  1098  1099     5
 1088  1098  1100     5
 1088  1098  1102     5
 1099  1098  1100     5
 1099  1098  1102     5
 1100  1098  1102     5
 1098  1100  1101     5
 1085  1102  1098     5
 1085  1102  1103     5
 1085  1102  1104     5
 1098  1102  1103     5
 1098  1102  1104     5
 1103  1102  1104     5
 1102  1104  1105     5
 1085  1106  1107     5
 1085  1106  1108     5
 1085  1106  1109     5
 1107  1106  1108     5
 1107  1106  1109     5
 1108  1106  1109     5
 1106  1109  1110     5

[ dihedrals ]
; ai	aj	ak	al	funct	phi0	cp	mult
    3     2   300   297     9
    3     2   300   303     9
    3     2   300   304     9
    1     3     2   300     9
    4     3     2   300     9
    5     3     2   300     9
    1     3     5     6     9
    1     3     5     7     9
    1     3     5    14     9
    2     3     5     6     9
    2     3     5     7     9
    2     3     5    14     9
    4     3     5     6     9
    4     3     5     7     9
    4     3     5    14     9
    3     5     6     8     9
    7     5     6     8     9
    3     5    14    15     9
    3     5    14    16     9
    3     5    14    21     9
    6     5    14    15     9
    6     5    14    16     9
    6     5    14    21     9
    7     5    14    15     9
    7     5    14    16     9
    7     5    14    21     9
    8     6     5    14     9
    5     6     8     9     9
    5     6     8    10     9
    5     6     8    29     9
    6     8    10    11     9
    9     8    10    11     9
    6     8    29    21     9
    6     8    29    30     9
    6     8    29    31     9
    9     8    29    21     9
    9     8    29    30     9
    9     8    29    31     9
   10     8    29    21     9
   10     8    29    30     9
   10     8    29    31     9
   11    10     8    29     9
    8    10    11    12     9
    8    10    11    13     9
    8    10    11    37     9
   10    11    37    33     9
   10    11    37    38     9
   10    11    37    39     9
   12    11    37    33     9
   12    11    37    38     9
   12    11    37    39     9
   13    11    37    33     9
   13    11    37    38     9
   13    11    37    39     9
    5    14    16    17     9
   15    14    16    17     9
    5    14    21    22     9
    5    14    21    23     9
    5    14    21    29     9
   15    14    21    22     9
   15    14    21    23     9
   15    14    21    29     9
   16    14    21    22     9
   16    14    21    23     9
   16    14    21    29     9
   17    16    14    21     9
   14    16    17    18     9
   14    16    17    19     9
   14    16    17    20     9
   14    21    22    24     9
   23    21    22    24     9
   14    21    29    30     9
   14    21    29    31     9
   22    21    29    30     9
   22    21    29    31     9
   23    21    29    30     9
   23    21    29    31     9
   24    22    21    29     9
   21    22    24    25     9
   21    22    24    26     9
   22    24    26    27     9
   22    24    26    28     9
   22    24    26    59     9
   25    24    26    27     9
   25    24    26    28     9
   25    24    26    59     9
   24    26    59    60     9
   24    26    59    61     9
   24    26    59   104     9
   27    26    59    60     9
   27    26    59    61     9
   27    26    59   104     9
   28    26    59    60     9
   28    26    59    61     9
   28    26    59   104     9
    8    29    21    14     9
    8    29    21    22     9
    8    29    21    23     9
    8    29    31    32     9
    8    29    31   138     9
   21    29    31    32     9
   21    29    31   138     9
   30    29    31    32     9
   30    29    31   138     9
   29    31   138   139     9
   29    31   138   140     9
   32    31   138   139     9
   32    31   138   140     9
   34    33    35    36     9
   34    33    37    38     9
   34    33    37    39     9
   35    33    37    38     9
   35    33    37    39     9
   34    33    47    48     9
   34    33    47    49     9
   34    33    47    55     9
   35    33    47    48     9
   35    33    47    49     9
   35    33    47    55     9
   37    33    47    48     9
   37    33    47    49     9
   37    33    47    55     9
   36    35    33    37     9
   36    35    33    47     9
   11    37    33    34     9
   11    37    33    35     9
   11    37    33    47     9
   38    37    33    47     9
   39    37    33    47     9
   11    37    39    40     9
   33    37    39    40     9
   38    37    39    40     9
   37    39    40    41     9
   37    39    40    42     9
   37    39    40    55     9
   39    40    42    46     9
   41    40    42    46     9
   39    40    55    47     9
   39    40    55    56     9
   39    40    55    57     9
   41    40    55    47     9
   41    40    55    56     9
   41    40    55    57     9
   42    40    55    47     9
   42    40    55    56     9
   42    40    55    57     9
   46    42    40    55     9
   40    42    46    43     9
   40    42    46    44     9
   40    42    46    45     9
   33    47    49    50     9
   48    47    49    50     9
   33    47    55    40     9
   33    47    55    56     9
   33    47    55    57     9
   48    47    55    56     9
   48    47    55    57     9
   49    47    55    56     9
   49    47    55    57     9
   50    49    47    55     9
   47    49    50    51     9
   47    49    50    52     9
   49    50    52    53     9
   49    50    52    54     9
   49    50    52   216     9
   51    50    52    53     9
   51    50    52    54     9
   51    50    52   216     9
   50    52   216   217     9
   50    52   216   218     9
   50    52   216   220     9
   53    52   216   217     9
   53    52   216   218     9
   53    52   216   220     9
   54    52   216   217     9
   54    52   216   218     9
   54    52   216   220     9
   40    55    47    48     9
   40    55    47    49     9
   40    55    57    58     9
   40    55    57   254     9
   47    55    57    58     9
   47    55    57   254     9
   56    55    57    58     9
   56    55    57   254     9
   55    57   254   255     9
   55    57   254   256     9
   58    57   254   255     9
   58    57   254   256     9
   26    59    61    62     9
   60    59    61    62     9
   26    59   104   105     9
   26    59   104   106     9
   26    59   104   107     9
   60    59   104   105     9
   60    59   104   106     9
   60    59   104   107     9
   61    59   104   105     9
   61    59   104   106     9
   61    59   104   107     9
   62    61    59   104     9
   59    61    62    63     9
   59    61    62    64     9
   61    62    64    65     9
   61    62    64    66     9
   61    62    64    67     9
   63    62    64    65     9
   63    62    64    66     9
   63    62    64    67     9
   62    64    67    68     9
   62    64    67    69     9
   62    64    67    70     9
   65    64    67    68     9
   65    64    67    69     9
   65    64    67    70     9
   66    64    67    68     9
   66    64    67    69     9
   66    64    67    70     9
   64    67    70    71     9
   64    67    70    72     9
   64    67    70    73     9
   68    67    70    71     9
   68    67    70    72     9
   68    67    70    73     9
   69    67    70    71     9
   69    67    70    72     9
   69    67    70    73     9
   67    70    73    74     9
   67    70    73    75     9
   67    70    73    76     9
   71    70    73    74     9
   71    70    73    75     9
   71    70    73    76     9
   72    70    73    74     9
   72    70    73    75     9
   72    70    73    76     9
   70    73    76    77     9
   70    73    76    78     9
   70    73    76    79     9
   74    73    76    77     9
   74    73    76    78     9
   74    73    76    79     9
   75    73    76    77     9
   75    73    76    78     9
   75    73    76    79     9
   73    76    79    80     9
   73    76    79    81     9
   73    76    79    82     9
   77    76    79    80     9
   77    76    79    81     9
   77    76    79    82     9
   78    76    79    80     9
   78    76    79    81     9
   78    76    79    82     9
   76    79    82    83     9
   76    79    82    84     9
   76    79    82    85     9
   80    79    82    83     9
   80    79    82    84     9
   80    79    82    85     9
   81    79    82    83     9
   81    79    82    84     9
   81    79    82    85     9
   79    82    85    86     9
   79    82    85    87     9
   79    82    85    88     9
   83    82    85    86     9
   83    82    85    87     9
   83    82    85    88     9
   84    82    85    86     9
   84    82    85    87     9
   84    82    85    88     9
   82    85    88    89     9
   82    85    88    90     9
   82    85    88    91     9
   86    85    88    89     9
   86    85    88    90     9
   86    85    88    91     9
   87    85    88    89     9
   87    85    88    90     9
   87    85    88    91     9
   85    88    91    92     9
   85    88    91    93     9
   85    88    91    94     9
   89    88    91    92     9
   89    88    91    93     9
   89    88    91    94     9
   90    88    91    92     9
   90    88    91    93     9
   90    88    91    94     9
   88    91    94    95     9
   88    91    94    96     9
   88    91    94    97     9
   92    91    94    95     9
   92    91    94    96     9
   92    91    94    97     9
   93    91    94    95     9
   93    91    94    96     9
   93    91    94    97     9
   91    94    97    98     9
   91    94    97    99     9
   91    94    97   100     9
   95    94    97    98     9
   95    94    97    99     9
   95    94    97   100     9
   96    94    97    98     9
   96    94    97    99     9
   96    94    97   100     9
   94    97   100   101     9
   94    97   100   102     9
   94    97   100   103     9
   98    97   100   101     9
   98    97   100   102     9
   98    97   100   103     9
   99    97   100   101     9
   99    97   100   102     9
   99    97   100   103     9
   59   104   107   108     9
   59   104   107   109     9
   59   104   107   110     9
  105   104   107   108     9
  105   104   107   109     9
  105   104   107   110     9
  106   104   107   108     9
  106   104   107   109     9
  106   104   107   110     9
  104   107   110   111     9
  104   107   110   112     9
  104   107   110   113     9
  108   107   110   111     9
  108   107   110   112     9
  108   107   110   113     9
  109   107   110   111     9
  109   107   110   112     9
  109   107   110   113     9
  107   110   113   114     9
  107   110   113   115     9
  107   110   113   116     9
  111   110   113   114     9
  111   110   113   115     9
  111   110   113   116     9
  112   110   113   114     9
  112   110   113   115     9
  112   110   113   116     9
  110   113   116   117     9
  110   113   116   118     9
  110   113   116   119     9
  114   113   116   117     9
  114   113   116   118     9
  114   113   116   119     9
  115   113   116   117     9
  115   113   116   118     9
  115   113   116   119     9
  113   116   119   120     9
  113   116   119   121     9
  113   116   119   122     9
  117   116   119   120     9
  117   116   119   121     9
  117   116   119   122     9
  118   116   119   120     9
  118   116   119   121     9
  118   116   119   122     9
  116   119   122   123     9
  116   119   122   124     9
  116   119   122   125     9
  120   119   122   123     9
  120   119   122   124     9
  120   119   122   125     9
  121   119   122   123     9
  121   119   122   124     9
  121   119   122   125     9
  119   122   125   126     9
  119   122   125   127     9
  119   122   125   128     9
  123   122   125   126     9
  123   122   125   127     9
  123   122   125   128     9
  124   122   125   126     9
  124   122   125   127     9
  124   122   125   128     9
  122   125   128   129     9
  122   125   128   130     9
  122   125   128   131     9
  126   125   128   129     9
  126   125   128   130     9
  126   125   128   131     9
  127   125   128   129     9
  127   125   128   130     9
  127   125   128   131     9
  125   128   131   132     9
  125   128   131   133     9
  125   128   131   134     9
  129   128   131   132     9
  129   128   131   133     9
  129   128   131   134     9
  130   128   131   132     9
  130   128   131   133     9
  130   128   131   134     9
  128   131   134   135     9
  128   131   134   136     9
  128   131   134   137     9
  132   131   134   135     9
  132   131   134   136     9
  132   131   134   137     9
  133   131   134   135     9
  133   131   134   136     9
  133   131   134   137     9
   31   138   140   141     9
   31   138   140   142     9
   31   138   140   143     9
  139   138   140   141     9
  139   138   140   142     9
  139   138   140   143     9
  138   140   143   144     9
  138   140   143   145     9
  138   140   143   182     9
  141   140   143   144     9
  141   140   143   145     9
  141   140   143   182     9
  142   140   143   144     9
  142   140   143   145     9
  142   140   143   182     9
  140   143   145   146     9
  144   143   145   146     9
  140   143   182   183     9
  140   143   182   184     9
  140   143   182   185     9
  144   143   182   183     9
  144   143   182   184     9
  144   143   182   185     9
  145   143   182   183     9
  145   143   182   184     9
  145   143   182   185     9
  146   145   143   182     9
  143   145   146   147     9
  143   145   146   148     9
  145   146   148   149     9
  145   146   148   150     9
  145   146   148   151     9
  147   146   148   149     9
  147   146   148   150     9
  147   146   148   151     9
  146   148   151   152     9
  146   148   151   153     9
  146   148   151   154     9
  149   148   151   152     9
  149   148   151   153     9
  149   148   151   154     9
  150   148   151   152     9
  150   148   151   153     9
  150   148   151   154     9
  148   151   154   155     9
  148   151   154   156     9
  148   151   154   157     9
  152   151   154   155     9
  152   151   154   156     9
  152   151   154   157     9
  153   151   154   155     9
  153   151   154   156     9
  153   151   154   157     9
  151   154   157   158     9
  151   154   157   159     9
  151   154   157   160     9
  155   154   157   158     9
  155   154   157   159     9
  155   154   157   160     9
  156   154   157   158     9
  156   154   157   159     9
  156   154   157   160     9
  154   157   160   161     9
  154   157   160   162     9
  154   157   160   163     9
  158   157   160   161     9
  158   157   160   162     9
  158   157   160   163     9
  159   157   160   161     9
  159   157   160   162     9
  159   157   160   163     9
  157   160   163   164     9
  157   160   163   165     9
  157   160   163   166     9
  161   160   163   164     9
  161   160   163   165     9
  161   160   163   166     9
  162   160   163   164     9
  162   160   163   165     9
  162   160   163   166     9
  160   163   166   167     9
  160   163   166   168     9
  160   163   166   169     9
  164   163   166   167     9
  164   163   166   168     9
  164   163   166   169     9
  165   163   166   167     9
  165   163   166   168     9
  165   163   166   169     9
  163   166   169   170     9
  163   166   169   171     9
  163   166   169   172     9
  167   166   169   170     9
  167   166   169   171     9
  167   166   169   172     9
  168   166   169   170     9
  168   166   169   171     9
  168   166   169   172     9
  166   169   172   173     9
  166   169   172   174     9
  166   169   172   175     9
  170   169   172   173     9
  170   169   172   174     9
  170   169   172   175     9
  171   169   172   173     9
  171   169   172   174     9
  171   169   172   175     9
  169   172   175   176     9
  169   172   175   177     9
  169   172   175   178     9
  173   172   175   176     9
  173   172   175   177     9
  173   172   175   178     9
  174   172   175   176     9
  174   172   175   177     9
  174   172   175   178     9
  172   175   178   179     9
  172   175   178   180     9
  172   175   178   181     9
  176   175   178   179     9
  176   175   178   180     9
  176   175   178   181     9
  177   175   178   179     9
  177   175   178   180     9
  177   175   178   181     9
  143   182   185   186     9
  143   182   185   187     9
  143   182   185   188     9
  183   182   185   186     9
  183   182   185   187     9
  183   182   185   188     9
  184   182   185   186     9
  184   182   185   187     9
  184   182   185   188     9
  182   185   188   189     9
  182   185   188   190     9
  182   185   188   191     9
  186   185   188   189     9
  186   185   188   190     9
  186   185   188   191     9
  187   185   188   189     9
  187   185   188   190     9
  187   185   188   191     9
  185   188   191   192     9
  185   188   191   193     9
  185   188   191   194     9
  189   188   191   192     9
  189   188   191   193     9
  189   188   191   194     9
  190   188   191   192     9
  190   188   191   193     9
  190   188   191   194     9
  188   191   194   195     9
  188   191   194   196     9
  188   191   194   197     9
  192   191   194   195     9
  192   191   194   196     9
  192   191   194   197     9
  193   191   194   195     9
  193   191   194   196     9
  193   191   194   197     9
  191   194   197   198     9
  191   194   197   199     9
  191   194   197   200     9
  195   194   197   198     9
  195   194   197   199     9
  195   194   197   200     9
  196   194   197   198     9
  196   194   197   199     9
  196   194   197   200     9
  194   197   200   201     9
  194   197   200   202     9
  194   197   200   203     9
  198   197   200   201     9
  198   197   200   202     9
  198   197   200   203     9
  199   197   200   201     9
  199   197   200   202     9
  199   197   200   203     9
  197   200   203   204     9
  197   200   203   205     9
  197   200   203   206     9
  201   200   203   204     9
  201   200   203   205     9
  201   200   203   206     9
  202   200   203   204     9
  202   200   203   205     9
  202   200   203   206     9
  200   203   206   207     9
  200   203   206   208     9
  200   203   206   209     9
  204   203   206   207     9
  204   203   206   208     9
  204   203   206   209     9
  205   203   206   207     9
  205   203   206   208     9
  205   203   206   209     9
  203   206   209   210     9
  203   206   209   211     9
  203   206   209   212     9
  207   206   209   210     9
  207   206   209   211     9
  207   206   209   212     9
  208   206   209   210     9
  208   206   209   211     9
  208   206   209   212     9
  206   209   212   213     9
  206   209   212   214     9
  206   209   212   215     9
  210   209   212   213     9
  210   209   212   214     9
  210   209   212   215     9
  211   209   212   213     9
  211   209   212   214     9
  211   209   212   215     9
   52   216   218   219     9
  217   216   218   219     9
   52   216   220   221     9
   52   216   220   222     9
   52   216   220   223     9
  217   216   220   221     9
  217   216   220   222     9
  217   216   220   223     9
  218   216   220   221     9
  218   216   220   222     9
  218   216   220   223     9
  219   218   216   220     9
  216   220   223   224     9
  216   220   223   225     9
  216   220   223   226     9
  221   220   223   224     9
  221   220   223   225     9
  221   220   223   226     9
  222   220   223   224     9
  222   220   223   225     9
  222   220   223   226     9
  220   223   226   227     9
  220   223   226   228     9
  220   223   226   229     9
  224   223   226   227     9
  224   223   226   228     9
  224   223   226   229     9
  225   223   226   227     9
  225   223   226   228     9
  225   223   226   229     9
  223   226   229   230     9
  223   226   229   231     9
  223   226   229   232     9
  227   226   229   230     9
  227   226   229   231     9
  227   226   229   232     9
  228   226   229   230     9
  228   226   229   231     9
  228   226   229   232     9
  226   229   232   233     9
  226   229   232   234     9
  226   229   232   235     9
  230   229   232   233     9
  230   229   232   234     9
  230   229   232   235     9
  231   229   232   233     9
  231   229   232   234     9
  231   229   232   235     9
  229   232   235   236     9
  229   232   235   237     9
  229   232   235   238     9
  233   232   235   236     9
  233   232   235   237     9
  233   232   235   238     9
  234   232   235   236     9
  234   232   235   237     9
  234   232   235   238     9
  232   235   238   239     9
  232   235   238   240     9
  232   235   238   241     9
  236   235   238   239     9
  236   235   238   240     9
  236   235   238   241     9
  237   235   238   239     9
  237   235   238   240     9
  237   235   238   241     9
  235   238   241   242     9
  235   238   241   243     9
  235   238   241   244     9
  239   238   241   242     9
  239   238   241   243     9
  239   238   241   244     9
  240   238   241   242     9
  240   238   241   243     9
  240   238   241   244     9
  238   241   244   245     9
  238   241   244   246     9
  238   241   244   247     9
  242   241   244   245     9
  242   241   244   246     9
  242   241   244   247     9
  243   241   244   245     9
  243   241   244   246     9
  243   241   244   247     9
  241   244   247   248     9
  241   244   247   249     9
  241   244   247   250     9
  245   244   247   248     9
  245   244   247   249     9
  245   244   247   250     9
  246   244   247   248     9
  246   244   247   249     9
  246   244   247   250     9
  244   247   250   251     9
  244   247   250   252     9
  244   247   250   253     9
  248   247   250   251     9
  248   247   250   252     9
  248   247   250   253     9
  249   247   250   251     9
  249   247   250   252     9
  249   247   250   253     9
   57   254   256   257     9
   57   254   256   258     9
   57   254   256   259     9
  255   254   256   257     9
  255   254   256   258     9
  255   254   256   259     9
  254   256   259   260     9
  254   256   259   261     9
  254   256   259   263     9
  257   256   259   260     9
  257   256   259   261     9
  257   256   259   263     9
  258   256   259   260     9
  258   256   259   261     9
  258   256   259   263     9
  256   259   261   262     9
  260   259   261   262     9
  256   259   263   264     9
  256   259   263   265     9
  256   259   263   266     9
  260   259   263   264     9
  260   259   263   265     9
  260   259   263   266     9
  261   259   263   264     9
  261   259   263   265     9
  261   259   263   266     9
  262   261   259   263     9
  259   263   266   267     9
  259   263   266   268     9
  259   263   266   269     9
  264   263   266   267     9
  264   263   266   268     9
  264   263   266   269     9
  265   263   266   267     9
  265   263   266   268     9
  265   263   266   269     9
  263   266   269   270     9
  263   266   269   271     9
  263   266   269   272     9
  267   266   269   270     9
  267   266   269   271     9
  267   266   269   272     9
  268   266   269   270     9
  268   266   269   271     9
  268   266   269   272     9
  266   269   272   273     9
  266   269   272   274     9
  266   269   272   275     9
  270   269   272   273     9
  270   269   272   274     9
  270   269   272   275     9
  271   269   272   273     9
  271   269   272   274     9
  271   269   272   275     9
  269   272   275   276     9
  269   272   275   277     9
  269   272   275   278     9
  273   272   275   276     9
  273   272   275   277     9
  273   272   275   278     9
  274   272   275   276     9
  274   272   275   277     9
  274   272   275   278     9
  272   275   278   279     9
  272   275   278   280     9
  272   275   278   281     9
  276   275   278   279     9
  276   275   278   280     9
  276   275   278   281     9
  277   275   278   279     9
  277   275   278   280     9
  277   275   278   281     9
  275   278   281   282     9
  275   278   281   283     9
  275   278   281   284     9
  279   278   281   282     9
  279   278   281   283     9
  279   278   281   284     9
  280   278   281   282     9
  280   278   281   283     9
  280   278   281   284     9
  278   281   284   285     9
  278   281   284   286     9
  278   281   284   287     9
  282   281   284   285     9
  282   281   284   286     9
  282   281   284   287     9
  283   281   284   285     9
  283   281   284   286     9
  283   281   284   287     9
  281   284   287   288     9
  281   284   287   289     9
  281   284   287   290     9
  285   284   287   288     9
  285   284   287   289     9
  285   284   287   290     9
  286   284   287   288     9
  286   284   287   289     9
  286   284   287   290     9
  284   287   290   291     9
  284   287   290   292     9
  284   287   290   293     9
  288   287   290   291     9
  288   287   290   292     9
  288   287   290   293     9
  289   287   290   291     9
  289   287   290   292     9
  289   287   290   293     9
  287   290   293   294     9
  287   290   293   295     9
  287   290   293   296     9
  291   290   293   294     9
  291   290   293   295     9
  291   290   293   296     9
  292   290   293   294     9
  292   290   293   295     9
  292   290   293   296     9
  298   297   300   303     9
  298   297   300   304     9
  299   297   300   303     9
  299   297   300   304     9
    2   300   297   298     9
    2   300   297   299     9
    2   300   303   301     9
  297   300   303   301     9
    2   300   304   305     9
    2   300   304   306     9
    2   300   304   307     9
  297   300   304   305     9
  297   300   304   306     9
  297   300   304   307     9
  303   300   304   305     9
  303   300   304   306     9
  303   300   304   307     9
  302   301   310   307     9
  302   301   310   311     9
  302   301   310   312     9
  303   301   310   307     9
  303   301   310   311     9
  303   301   310   312     9
  302   301   313   314     9
  302   301   313   315     9
  302   301   313   317     9
  303   301   313   314     9
  303   301   313   315     9
  303   301   313   317     9
  310   301   313   314     9
  310   301   313   315     9
  310   301   313   317     9
  301   303   300   304     9
  300   303   301   302     9
  300   303   301   310     9
  300   303   301   313     9
  300   304   307   308     9
  300   304   307   309     9
  300   304   307   310     9
  305   304   307   308     9
  305   304   307   309     9
  305   304   307   310     9
  306   304   307   308     9
  306   304   307   309     9
  306   304   307   310     9
  304   307   309   325     9
  308   307   309   325     9
  310   307   309   325     9
  304   307   310   311     9
  304   307   310   312     9
  308   307   310   311     9
  308   307   310   312     9
  309   307   310   311     9
  309   307   310   312     9
  307   309   325   322     9
  307   309   325   328     9
  307   309   325   329     9
  307   310   301   313     9
  311   310   301   313     9
  312   310   301   313     9
  301   310   307   304     9
  301   310   307   308     9
  301   310   307   309     9
  301   310   312   349     9
  307   310   312   349     9
  311   310   312   349     9
  310   312   349   350     9
  310   312   349   353     9
  310   312   349   354     9
  301   313   315   316     9
  314   313   315   316     9
  301   313   317   318     9
  301   313   317   319     9
  301   313   317   320     9
  314   313   317   318     9
  314   313   317   319     9
  314   313   317   320     9
  315   313   317   318     9
  315   313   317   319     9
  315   313   317   320     9
  316   315   313   317     9
  313   317   320   321     9
  318   317   320   321     9
  319   317   320   321     9
  323   322   325   328     9
  323   322   325   329     9
  324   322   325   328     9
  324   322   325   329     9
  309   325   322   323     9
  309   325   322   324     9
  309   325   328   326     9
  322   325   328   326     9
  309   325   329   330     9
  309   325   329   331     9
  309   325   329   332     9
  322   325   329   330     9
  322   325   329   331     9
  322   325   329   332     9
  328   325   329   330     9
  328   325   329   331     9
  328   325   329   332     9
  327   326   336   332     9
  327   326   336   337     9
  327   326   336   338     9
  328   326   336   332     9
  328   326   336   337     9
  328   326   336   338     9
  327   326   340   341     9
  327   326   340   342     9
  327   326   340   344     9
  328   326   340   341     9
  328   326   340   342     9
  328   326   340   344     9
  336   326   340   341     9
  336   326   340   342     9
  336   326   340   344     9
  326   328   325   329     9
  325   328   326   327     9
  325   328   326   336     9
  325   328   326   340     9
  325   329   332   333     9
  325   329   332   334     9
  325   329   332   336     9
  330   329   332   333     9
  330   329   332   334     9
  330   329   332   336     9
  331   329   332   333     9
  331   329   332   334     9
  331   329   332   336     9
  329   332   334   335     9
  333   332   334   335     9
  329   332   336   337     9
  329   332   336   338     9
  333   332   336   337     9
  333   332   336   338     9
  334   332   336   337     9
  334   332   336   338     9
  335   334   332   336     9
  332   336   326   340     9
  337   336   326   340     9
  338   336   326   340     9
  326   336   332   329     9
  326   336   332   333     9
  326   336   332   334     9
  326   336   338   339     9
  332   336   338   339     9
  337   336   338   339     9
  326   340   342   343     9
  341   340   342   343     9
  326   340   344   345     9
  326   340   344   346     9
  326   340   344   347     9
  341   340   344   345     9
  341   340   344   346     9
  341   340   344   347     9
  342   340   344   345     9
  342   340   344   346     9
  342   340   344   347     9
  343   342   340   344     9
  340   344   347   348     9
  345   344   347   348     9
  346   344   347   348     9
  312   349   353   351     9
  350   349   353   351     9
  312   349   354   355     9
  312   349   354   356     9
  312   349   354   358     9
  350   349   354   355     9
  350   349   354   356     9
  350   349   354   358     9
  353   349   354   355     9
  353   349   354   356     9
  353   349   354   358     9
  352   351   361   358     9
  352   351   361   362     9
  352   351   361   363     9
  353   351   361   358     9
  353   351   361   362     9
  353   351   361   363     9
  352   351   368   369     9
  352   351   368   370     9
  352   351   368   372     9
  353   351   368   369     9
  353   351   368   370     9
  353   351   368   372     9
  361   351   368   369     9
  361   351   368   370     9
  361   351   368   372     9
  351   353   349   354     9
  349   353   351   352     9
  349   353   351   361     9
  349   353   351   368     9
  349   354   356   357     9
  355   354   356   357     9
  349   354   358   359     9
  349   354   358   360     9
  349   354   358   361     9
  355   354   358   359     9
  355   354   358   360     9
  355   354   358   361     9
  356   354   358   359     9
  356   354   358   360     9
  356   354   358   361     9
  357   356   354   358     9
  354   358   360   377     9
  359   358   360   377     9
  361   358   360   377     9
  354   358   361   362     9
  354   358   361   363     9
  359   358   361   362     9
  359   358   361   363     9
  360   358   361   362     9
  360   358   361   363     9
  358   360   377   378     9
  358   360   377   381     9
  358   360   377   382     9
  358   361   351   368     9
  362   361   351   368     9
  363   361   351   368     9
  351   361   358   354     9
  351   361   358   359     9
  351   361   358   360     9
  351   361   363   364     9
  358   361   363   364     9
  362   361   363   364     9
  361   363   364   365     9
  361   363   364   366     9
  361   363   364   367     9
  351   368   370   371     9
  369   368   370   371     9
  351   368   372   373     9
  351   368   372   374     9
  351   368   372   375     9
  369   368   372   373     9
  369   368   372   374     9
  369   368   372   375     9
  370   368   372   373     9
  370   368   372   374     9
  370   368   372   375     9
  371   370   368   372     9
  368   372   375   376     9
  373   372   375   376     9
  374   372   375   376     9
  360   377   381   379     9
  378   377   381   379     9
  360   377   382   383     9
  360   377   382   384     9
  360   377   382   386     9
  378   377   382   383     9
  378   377   382   384     9
  378   377   382   386     9
  381   377   382   383     9
  381   377   382   384     9
  381   377   382   386     9
  380   379   389   386     9
  380   379   389   390     9
  380   379   389   391     9
  381   379   389   386     9
  381   379   389   390     9
  381   379   389   391     9
  380   379   396   397     9
  380   379   396   398     9
  380   379   396   400     9
  381   379   396   397     9
  381   379   396   398     9
  381   379   396   400     9
  389   379   396   397     9
  389   379   396   398     9
  389   379   396   400     9
  379   381   377   382     9
  377   381   379   380     9
  377   381   379   389     9
  377   381   379   396     9
  377   382   384   385     9
  383   382   384   385     9
  377   382   386   387     9
  377   382   386   388     9
  377   382   386   389     9
  383   382   386   387     9
  383   382   386   388     9
  383   382   386   389     9
  384   382   386   387     9
  384   382   386   388     9
  384   382   386   389     9
  385   384   382   386     9
  382   386   388   430     9
  387   386   388   430     9
  389   386   388   430     9
  382   386   389   390     9
  382   386   389   391     9
  387   386   389   390     9
  387   386   389   391     9
  388   386   389   390     9
  388   386   389   391     9
  386   388   430   431     9
  386   388   430   434     9
  386   388   430   435     9
  386   389   379   396     9
  390   389   379   396     9
  391   389   379   396     9
  379   389   386   382     9
  379   389   386   387     9
  379   389   386   388     9
  379   389   391   392     9
  386   389   391   392     9
  390   389   391   392     9
  389   391   392   393     9
  389   391   392   394     9
  389   391   392   395     9
  379   396   398   399     9
  397   396   398   399     9
  379   396   400   401     9
  379   396   400   402     9
  379   396   400   403     9
  397   396   400   401     9
  397   396   400   402     9
  397   396   400   403     9
  398   396   400   401     9
  398   396   400   402     9
  398   396   400   403     9
  399   398   396   400     9
  396   400   403   404     9
  401   400   403   404     9
  402   400   403   404     9
  400   403   404   405     9
  400   403   404   408     9
  400   403   404   409     9
  403   404   408   406     9
  405   404   408   406     9
  403   404   409   410     9
  403   404   409   411     9
  403   404   409   413     9
  405   404   409   410     9
  405   404   409   411     9
  405   404   409   413     9
  408   404   409   410     9
  408   404   409   411     9
  408   404   409   413     9
  407   406   417   413     9
  407   406   417   418     9
  407   406   417   419     9
  408   406   417   413     9
  408   406   417   418     9
  408   406   417   419     9
  407   406   421   422     9
  407   406   421   423     9
  407   406   421   425     9
  408   406   421   422     9
  408   406   421   423     9
  408   406   421   425     9
  417   406   421   422     9
  417   406   421   423     9
  417   406   421   425     9
  406   408   404   409     9
  404   408   406   407     9
  404   408   406   417     9
  404   408   406   421     9
  404   409   411   412     9
  410   409   411   412     9
  404   409   413   414     9
  404   409   413   415     9
  404   409   413   417     9
  410   409   413   414     9
  410   409   413   415     9
  410   409   413   417     9
  411   409   413   414     9
  411   409   413   415     9
  411   409   413   417     9
  412   411   409   413     9
  409   413   415   416     9
  414   413   415   416     9
  409   413   417   418     9
  409   413   417   419     9
  414   413   417   418     9
  414   413   417   419     9
  415   413   417   418     9
  415   413   417   419     9
  416   415   413   417     9
  413   417   406   421     9
  418   417   406   421     9
  419   417   406   421     9
  406   417   413   409     9
  406   417   413   414     9
  406   417   413   415     9
  406   417   419   420     9
  413   417   419   420     9
  418   417   419   420     9
  406   421   423   424     9
  422   421   423   424     9
  406   421   425   426     9
  406   421   425   427     9
  406   421   425   428     9
  422   421   425   426     9
  422   421   425   427     9
  422   421   425   428     9
  423   421   425   426     9
  423   421   425   427     9
  423   421   425   428     9
  424   423   421   425     9
  421   425   428   429     9
  426   425   428   429     9
  427   425   428   429     9
  388   430   434   432     9
  431   430   434   432     9
  388   430   435   436     9
  388   430   435   437     9
  388   430   435   439     9
  431   430   435   436     9
  431   430   435   437     9
  431   430   435   439     9
  434   430   435   436     9
  434   430   435   437     9
  434   430   435   439     9
  433   432   442   439     9
  433   432   442   443     9
  433   432   442   444     9
  434   432   442   439     9
  434   432   442   443     9
  434   432   442   444     9
  433   432   446   447     9
  433   432   446   448     9
  433   432   446   449     9
  434   432   446   447     9
  434   432   446   448     9
  434   432   446   449     9
  442   432   446   447     9
  442   432   446   448     9
  442   432   446   449     9
  432   434   430   435     9
  430   434   432   433     9
  430   434   432   442     9
  430   434   432   446     9
  430   435   437   438     9
  436   435   437   438     9
  430   435   439   440     9
  430   435   439   441     9
  430   435   439   442     9
  436   435   439   440     9
  436   435   439   441     9
  436   435   439   442     9
  437   435   439   440     9
  437   435   439   441     9
  437   435   439   442     9
  438   437   435   439     9
  435   439   441   451     9
  440   439   441   451     9
  442   439   441   451     9
  435   439   442   443     9
  435   439   442   444     9
  440   439   442   443     9
  440   439   442   444     9
  441   439   442   443     9
  441   439   442   444     9
  439   441   451   452     9
  439   441   451   455     9
  439   441   451   456     9
  439   442   432   446     9
  443   442   432   446     9
  444   442   432   446     9
  432   442   439   435     9
  432   442   439   440     9
  432   442   439   441     9
  432   442   444   445     9
  439   442   444   445     9
  443   442   444   445     9
  432   446   449   450     9
  447   446   449   450     9
  448   446   449   450     9
  441   451   455   453     9
  452   451   455   453     9
  441   451   456   457     9
  441   451   456   458     9
  441   451   456   459     9
  452   451   456   457     9
  452   451   456   458     9
  452   451   456   459     9
  455   451   456   457     9
  455   451   456   458     9
  455   451   456   459     9
  454   453   462   459     9
  454   453   462   463     9
  454   453   462   464     9
  455   453   462   459     9
  455   453   462   463     9
  455   453   462   464     9
  454   453   466   467     9
  454   453   466   468     9
  454   453   466   469     9
  455   453   466   467     9
  455   453   466   468     9
  455   453   466   469     9
  462   453   466   467     9
  462   453   466   468     9
  462   453   466   469     9
  453   455   451   456     9
  451   455   453   454     9
  451   455   453   462     9
  451   455   453   466     9
  451   456   458   471     9
  457   456   458   471     9
  459   456   458   471     9
  451   456   459   460     9
  451   456   459   461     9
  451   456   459   462     9
  457   456   459   460     9
  457   456   459   461     9
  457   456   459   462     9
  458   456   459   460     9
  458   456   459   461     9
  458   456   459   462     9
  456   458   471   472     9
  456   458   471   475     9
  456   458   471   476     9
  456   459   461   514     9
  460   459   461   514     9
  462   459   461   514     9
  456   459   462   463     9
  456   459   462   464     9
  460   459   462   463     9
  460   459   462   464     9
  461   459   462   463     9
  461   459   462   464     9
  459   461   514   515     9
  459   461   514   518     9
  459   461   514   519     9
  459   462   453   466     9
  463   462   453   466     9
  464   462   453   466     9
  453   462   459   456     9
  453   462   459   460     9
  453   462   459   461     9
  453   462   464   465     9
  459   462   464   465     9
  463   462   464   465     9
  453   466   469   470     9
  467   466   469   470     9
  468   466   469   470     9
  458   471   475   473     9
  472   471   475   473     9
  458   471   476   477     9
  458   471   476   478     9
  458   471   476   479     9
  472   471   476   477     9
  472   471   476   478     9
  472   471   476   479     9
  475   471   476   477     9
  475   471   476   478     9
  475   471   476   479     9
  474   473   483   479     9
  474   473   483   484     9
  474   473   483   485     9
  475   473   483   479     9
  475   473   483   484     9
  475   473   483   485     9
  474   473   487   488     9
  474   473   487   489     9
  474   473   487   490     9
  475   473   487   488     9
  475   473   487   489     9
  475   473   487   490     9
  483   473   487   488     9
  483   473   487   489     9
  483   473   487   490     9
  473   475   471   476     9
  471   475   473   474     9
  471   475   473   483     9
  471   475   473   487     9
  471   476   478   492     9
  477   476   478   492     9
  479   476   478   492     9
  471   476   479   480     9
  471   476   479   481     9
  471   476   479   483     9
  477   476   479   480     9
  477   476   479   481     9
  477   476   479   483     9
  478   476   479   480     9
  478   476   479   481     9
  478   476   479   483     9
  476   478   492   493     9
  476   478   492   496     9
  476   478   492   497     9
  476   479   481   482     9
  480   479   481   482     9
  476   479   483   484     9
  476   479   483   485     9
  480   479   483   484     9
  480   479   483   485     9
  481   479   483   484     9
  481   479   483   485     9
  482   481   479   483     9
  479   483   473   487     9
  484   483   473   487     9
  485   483   473   487     9
  473   483   479   476     9
  473   483   479   480     9
  473   483   479   481     9
  473   483   485   486     9
  479   483   485   486     9
  484   483   485   486     9
  473   487   490   491     9
  488   487   490   491     9
  489   487   490   491     9
  478   492   496   494     9
  493   492   496   494     9
  478   492   497   498     9
  478   492   497   499     9
  478   492   497   501     9
  493   492   497   498     9
  493   492   497   499     9
  493   492   497   501     9
  496   492   497   498     9
  496   492   497   499     9
  496   492   497   501     9
  495   494   505   501     9
  495   494   505   506     9
  495   494   505   507     9
  496   494   505   501     9
  496   494   505   506     9
  496   494   505   507     9
  495   494   509   510     9
  495   494   509   511     9
  495   494   509   512     9
  496   494   509   510     9
  496   494   509   511     9
  496   494   509   512     9
  505   494   509   510     9
  505   494   509   511     9
  505   494   509   512     9
  494   496   492   497     9
  492   496   494   495     9
  492   496   494   505     9
  492   496   494   509     9
  492   497   499   500     9
  498   497   499   500     9
  492   497   501   502     9
  492   497   501   503     9
  492   497   501   505     9
  498   497   501   502     9
  498   497   501   503     9
  498   497   501   505     9
  499   497   501   502     9
  499   497   501   503     9
  499   497   501   505     9
  500   499   497   501     9
  497   501   503   504     9
  502   501   503   504     9
  497   501   505   506     9
  497   501   505   507     9
  502   501   505   506     9
  502   501   505   507     9
  503   501   505   506     9
  503   501   505   507     9
  504   503   501   505     9
  501   505   494   509     9
  506   505   494   509     9
  507   505   494   509     9
  494   505   501   497     9
  494   505   501   502     9
  494   505   501   503     9
  494   505   507   508     9
  501   505   507   508     9
  506   505   507   508     9
  494   509   512   513     9
  510   509   512   513     9
  511   509   512   513     9
  461   514   518   516     9
  515   514   518   516     9
  461   514   519   520     9
  461   514   519   521     9
  461   514   519   523     9
  515   514   519   520     9
  515   514   519   521     9
  515   514   519   523     9
  518   514   519   520     9
  518   514   519   521     9
  518   514   519   523     9
  517   516   526   523     9
  517   516   526   527     9
  517   516   526   528     9
  518   516   526   523     9
  518   516   526   527     9
  518   516   526   528     9
  517   516   530   531     9
  517   516   530   532     9
  517   516   530   533     9
  518   516   530   531     9
  518   516   530   532     9
  518   516   530   533     9
  526   516   530   531     9
  526   516   530   532     9
  526   516   530   533     9
  516   518   514   519     9
  514   518   516   517     9
  514   518   516   526     9
  514   518   516   530     9
  514   519   521   522     9
  520   519   521   522     9
  514   519   523   524     9
  514   519   523   525     9
  514   519   523   526     9
  520   519   523   524     9
  520   519   523   525     9
  520   519   523   526     9
  521   519   523   524     9
  521   519   523   525     9
  521   519   523   526     9
  522   521   519   523     9
  519   523   525   535     9
  524   523   525   535     9
  526   523   525   535     9
  519   523   526   527     9
  519   523   526   528     9
  524   523   526   527     9
  524   523   526   528     9
  525   523   526   527     9
  525   523   526   528     9
  523   525   535   536     9
  523   525   535   539     9
  523   525   535   540     9
  523   526   516   530     9
  527   526   516   530     9
  528   526   516   530     9
  516   526   523   519     9
  516   526   523   524     9
  516   526   523   525     9
  516   526   528   529     9
  523   526   528   529     9
  527   526   528   529     9
  516   530   533   534     9
  531   530   533   534     9
  532   530   533   534     9
  525   535   539   537     9
  536   535   539   537     9
  525   535   540   541     9
  525   535   540   542     9
  525   535   540   550     9
  536   535   540   541     9
  536   535   540   542     9
  536   535   540   550     9
  539   535   540   541     9
  539   535   540   542     9
  539   535   540   550     9
  538   537   553   550     9
  538   537   553   554     9
  538   537   553   555     9
  539   537   553   550     9
  539   537   553   554     9
  539   537   553   555     9
  538   537   557   558     9
  538   537   557   559     9
  538   537   557   560     9
  539   537   557   558     9
  539   537   557   559     9
  539   537   557   560     9
  553   537   557   558     9
  553   537   557   559     9
  553   537   557   560     9
  537   539   535   540     9
  535   539   537   538     9
  535   539   537   553     9
  535   539   537   557     9
  535   540   542   543     9
  535   540   542   544     9
  541   540   542   543     9
  541   540   542   544     9
  535   540   550   551     9
  535   540   550   552     9
  535   540   550   553     9
  541   540   550   551     9
  541   540   550   552     9
  541   540   550   553     9
  542   540   550   551     9
  542   540   550   552     9
  542   540   550   553     9
  543   542   540   550     9
  544   542   540   550     9
  540   542   544   545     9
  540   542   544   546     9
  543   542   544   545     9
  543   542   544   546     9
  542   544   546   547     9
  542   544   546   548     9
  542   544   546   549     9
  545   544   546   547     9
  545   544   546   548     9
  545   544   546   549     9
  540   550   552   562     9
  551   550   552   562     9
  553   550   552   562     9
  540   550   553   554     9
  540   550   553   555     9
  551   550   553   554     9
  551   550   553   555     9
  552   550   553   554     9
  552   550   553   555     9
  550   552   562   563     9
  550   552   562   566     9
  550   552   562   567     9
  550   553   537   557     9
  554   553   537   557     9
  555   553   537   557     9
  537   553   550   540     9
  537   553   550   551     9
  537   553   550   552     9
  537   553   555   556     9
  550   553   555   556     9
  554   553   555   556     9
  537   557   560   561     9
  558   557   560   561     9
  559   557   560   561     9
  552   562   566   564     9
  563   562   566   564     9
  552   562   567   568     9
  552   562   567   569     9
  552   562   567   570     9
  563   562   567   568     9
  563   562   567   569     9
  563   562   567   570     9
  566   562   567   568     9
  566   562   567   569     9
  566   562   567   570     9
  565   564   574   570     9
  565   564   574   575     9
  565   564   574   576     9
  566   564   574   570     9
  566   564   574   575     9
  566   564   574   576     9
  565   564   578   579     9
  565   564   578   580     9
  565   564   578   581     9
  566   564   578   579     9
  566   564   578   580     9
  566   564   578   581     9
  574   564   578   579     9
  574   564   578   580     9
  574   564   578   581     9
  564   566   562   567     9
  562   566   564   565     9
  562   566   564   574     9
  562   566   564   578     9
  562   567   569   583     9
  568   567   569   583     9
  570   567   569   583     9
  562   567   570   571     9
  562   567   570   572     9
  562   567   570   574     9
  568   567   570   571     9
  568   567   570   572     9
  568   567   570   574     9
  569   567   570   571     9
  569   567   570   572     9
  569   567   570   574     9
  567   569   583   584     9
  567   569   583   587     9
  567   569   583   588     9
  567   570   572   573     9
  571   570   572   573     9
  567   570   574   575     9
  567   570   574   576     9
  571   570   574   575     9
  571   570   574   576     9
  572   570   574   575     9
  572   570   574   576     9
  573   572   570   574     9
  570   574   564   578     9
  575   574   564   578     9
  576   574   564   578     9
  564   574   570   567     9
  564   574   570   571     9
  564   574   570   572     9
  564   574   576   577     9
  570   574   576   577     9
  575   574   576   577     9
  564   578   581   582     9
  579   578   581   582     9
  580   578   581   582     9
  569   583   587   585     9
  584   583   587   585     9
  569   583   588   589     9
  569   583   588   590     9
  569   583   588   591     9
  584   583   588   589     9
  584   583   588   590     9
  584   583   588   591     9
  587   583   588   589     9
  587   583   588   590     9
  587   583   588   591     9
  586   585   595   591     9
  586   585   595   596     9
  586   585   595   597     9
  587   585   595   591     9
  587   585   595   596     9
  587   585   595   597     9
  586   585   599   600     9
  586   585   599   601     9
  586   585   599   602     9
  587   585   599   600     9
  587   585   599   601     9
  587   585   599   602     9
  595   585   599   600     9
  595   585   599   601     9
  595   585   599   602     9
  585   587   583   588     9
  583   587   585   586     9
  583   587   585   595     9
  583   587   585   599     9
  583   588   590   603     9
  589   588   590   603     9
  591   588   590   603     9
  583   588   591   592     9
  583   588   591   593     9
  583   588   591   595     9
  589   588   591   592     9
  589   588   591   593     9
  589   588   591   595     9
  590   588   591   592     9
  590   588   591   593     9
  590   588   591   595     9
  588   590   603   604     9
  588   590   603   607     9
  588   590   603   608     9
  588   591   593   594     9
  592   591   593   594     9
  588   591   595   596     9
  588   591   595   597     9
  592   591   595   596     9
  592   591   595   597     9
  593   591   595   596     9
  593   591   595   597     9
  594   593   591   595     9
  591   595   585   599     9
  596   595   585   599     9
  597   595   585   599     9
  585   595   591   588     9
  585   595   591   592     9
  585   595   591   593     9
  585   595   597   598     9
  591   595   597   598     9
  596   595   597   598     9
  590   603   607   605     9
  604   603   607   605     9
  590   603   608   609     9
  590   603   608   610     9
  590   603   608   611     9
  604   603   608   609     9
  604   603   608   610     9
  604   603   608   611     9
  607   603   608   609     9
  607   603   608   610     9
  607   603   608   611     9
  606   605   614   611     9
  606   605   614   615     9
  606   605   614   616     9
  607   605   614   611     9
  607   605   614   615     9
  607   605   614   616     9
  606   605   618   619     9
  606   605   618   620     9
  606   605   618   621     9
  607   605   618   619     9
  607   605   618   620     9
  607   605   618   621     9
  614   605   618   619     9
  614   605   618   620     9
  614   605   618   621     9
  605   607   603   608     9
  603   607   605   606     9
  603   607   605   614     9
  603   607   605   618     9
  603   608   610   622     9
  609   608   610   622     9
  611   608   610   622     9
  603   608   611   612     9
  603   608   611   613     9
  603   608   611   614     9
  609   608   611   612     9
  609   608   611   613     9
  609   608   611   614     9
  610   608   611   612     9
  610   608   611   613     9
  610   608   611   614     9
  608   610   622   623     9
  608   610   622   626     9
  608   610   622   627     9
  608   611   613   650     9
  612   611   613   650     9
  614   611   613   650     9
  608   611   614   615     9
  608   611   614   616     9
  612   611   614   615     9
  612   611   614   616     9
  613   611   614   615     9
  613   611   614   616     9
  611   613   650   651     9
  611   613   650   654     9
  611   613   650   655     9
  611   614   605   618     9
  615   614   605   618     9
  616   614   605   618     9
  605   614   611   608     9
  605   614   611   612     9
  605   614   611   613     9
  605   614   616   617     9
  611   614   616   617     9
  615   614   616   617     9
  610   622   626   624     9
  623   622   626   624     9
  610   622   627   628     9
  610   622   627   629     9
  610   622   627   637     9
  623   622   627   628     9
  623   622   627   629     9
  623   622   627   637     9
  626   622   627   628     9
  626   622   627   629     9
  626   622   627   637     9
  625   624   641   637     9
  625   624   641   642     9
  625   624   641   643     9
  626   624   641   637     9
  626   624   641   642     9
  626   624   641   643     9
  625   624   645   646     9
  625   624   645   647     9
  625   624   645   648     9
  626   624   645   646     9
  626   624   645   647     9
  626   624   645   648     9
  641   624   645   646     9
  641   624   645   647     9
  641   624   645   648     9
  624   626   622   627     9
  622   626   624   625     9
  622   626   624   641     9
  622   626   624   645     9
  622   627   629   630     9
  622   627   629   631     9
  628   627   629   630     9
  628   627   629   631     9
  622   627   637   638     9
  622   627   637   639     9
  622   627   637   641     9
  628   627   637   638     9
  628   627   637   639     9
  628   627   637   641     9
  629   627   637   638     9
  629   627   637   639     9
  629   627   637   641     9
  630   629   627   637     9
  631   629   627   637     9
  627   629   631   632     9
  627   629   631   633     9
  630   629   631   632     9
  630   629   631   633     9
  629   631   633   634     9
  629   631   633   635     9
  629   631   633   636     9
  632   631   633   634     9
  632   631   633   635     9
  632   631   633   636     9
  627   637   639   640     9
  638   637   639   640     9
  627   637   641   642     9
  627   637   641   643     9
  638   637   641   642     9
  638   637   641   643     9
  639   637   641   642     9
  639   637   641   643     9
  640   639   637   641     9
  637   641   624   645     9
  642   641   624   645     9
  643   641   624   645     9
  624   641   637   627     9
  624   641   637   638     9
  624   641   637   639     9
  624   641   643   644     9
  637   641   643   644     9
  642   641   643   644     9
  624   645   648   649     9
  646   645   648   649     9
  647   645   648   649     9
  613   650   654   652     9
  651   650   654   652     9
  613   650   655   656     9
  613   650   655   657     9
  613   650   655   665     9
  651   650   655   656     9
  651   650   655   657     9
  651   650   655   665     9
  654   650   655   656     9
  654   650   655   657     9
  654   650   655   665     9
  653   652   668   665     9
  653   652   668   669     9
  653   652   668   670     9
  654   652   668   665     9
  654   652   668   669     9
  654   652   668   670     9
  653   652   672   673     9
  653   652   672   674     9
  653   652   672   675     9
  654   652   672   673     9
  654   652   672   674     9
  654   652   672   675     9
  668   652   672   673     9
  668   652   672   674     9
  668   652   672   675     9
  652   654   650   655     9
  650   654   652   653     9
  650   654   652   668     9
  650   654   652   672     9
  650   655   657   658     9
  650   655   657   659     9
  656   655   657   658     9
  656   655   657   659     9
  650   655   665   666     9
  650   655   665   667     9
  650   655   665   668     9
  656   655   665   666     9
  656   655   665   667     9
  656   655   665   668     9
  657   655   665   666     9
  657   655   665   667     9
  657   655   665   668     9
  658   657   655   665     9
  659   657   655   665     9
  655   657   659   660     9
  655   657   659   661     9
  658   657   659   660     9
  658   657   659   661     9
  657   659   661   662     9
  657   659   661   663     9
  657   659   661   664     9
  660   659   661   662     9
  660   659   661   663     9
  660   659   661   664     9
  655   665   667   677     9
  666   665   667   677     9
  668   665   667   677     9
  655   665   668   669     9
  655   665   668   670     9
  666   665   668   669     9
  666   665   668   670     9
  667   665   668   669     9
  667   665   668   670     9
  665   667   677   678     9
  665   667   677   681     9
  665   667   677   682     9
  665   668   652   672     9
  669   668   652   672     9
  670   668   652   672     9
  652   668   665   655     9
  652   668   665   666     9
  652   668   665   667     9
  652   668   670   671     9
  665   668   670   671     9
  669   668   670   671     9
  652   672   675   676     9
  673   672   675   676     9
  674   672   675   676     9
  667   677   681   679     9
  678   677   681   679     9
  667   677   682   683     9
  667   677   682   684     9
  667   677   682   685     9
  678   677   682   683     9
  678   677   682   684     9
  678   677   682   685     9
  681   677   682   683     9
  681   677   682   684     9
  681   677   682   685     9
  680   679   689   685     9
  680   679   689   690     9
  680   679   689   691     9
  681   679   689   685     9
  681   679   689   690     9
  681   679   689   691     9
  680   679   693   694     9
  680   679   693   695     9
  680   679   693   696     9
  681   679   693   694     9
  681   679   693   695     9
  681   679   693   696     9
  689   679   693   694     9
  689   679   693   695     9
  689   679   693   696     9
  679   681   677   682     9
  677   681   679   680     9
  677   681   679   689     9
  677   681   679   693     9
  677   682   684   698     9
  683   682   684   698     9
  685   682   684   698     9
  677   682   685   686     9
  677   682   685   687     9
  677   682   685   689     9
  683   682   685   686     9
  683   682   685   687     9
  683   682   685   689     9
  684   682   685   686     9
  684   682   685   687     9
  684   682   685   689     9
  682   684   698   699     9
  682   684   698   702     9
  682   684   698   703     9
  682   685   687   688     9
  686   685   687   688     9
  682   685   689   690     9
  682   685   689   691     9
  686   685   689   690     9
  686   685   689   691     9
  687   685   689   690     9
  687   685   689   691     9
  688   687   685   689     9
  685   689   679   693     9
  690   689   679   693     9
  691   689   679   693     9
  679   689   685   682     9
  679   689   685   686     9
  679   689   685   687     9
  679   689   691   692     9
  685   689   691   692     9
  690   689   691   692     9
  679   693   696   697     9
  694   693   696   697     9
  695   693   696   697     9
  684   698   702   700     9
  699   698   702   700     9
  684   698   703   704     9
  684   698   703   705     9
  684   698   703   706     9
  699   698   703   704     9
  699   698   703   705     9
  699   698   703   706     9
  702   698   703   704     9
  702   698   703   705     9
  702   698   703   706     9
  701   700   710   706     9
  701   700   710   711     9
  701   700   710   712     9
  702   700   710   706     9
  702   700   710   711     9
  702   700   710   712     9
  701   700   714   715     9
  701   700   714   716     9
  701   700   714   717     9
  702   700   714   715     9
  702   700   714   716     9
  702   700   714   717     9
  710   700   714   715     9
  710   700   714   716     9
  710   700   714   717     9
  700   702   698   703     9
  698   702   700   701     9
  698   702   700   710     9
  698   702   700   714     9
  698   703   705   718     9
  704   703   705   718     9
  706   703   705   718     9
  698   703   706   707     9
  698   703   706   708     9
  698   703   706   710     9
  704   703   706   707     9
  704   703   706   708     9
  704   703   706   710     9
  705   703   706   707     9
  705   703   706   708     9
  705   703   706   710     9
  703   705   718   719     9
  703   705   718   722     9
  703   705   718   723     9
  703   706   708   709     9
  707   706   708   709     9
  703   706   710   711     9
  703   706   710   712     9
  707   706   710   711     9
  707   706   710   712     9
  708   706   710   711     9
  708   706   710   712     9
  709   708   706   710     9
  706   710   700   714     9
  711   710   700   714     9
  712   710   700   714     9
  700   710   706   703     9
  700   710   706   707     9
  700   710   706   708     9
  700   710   712   713     9
  706   710   712   713     9
  711   710   712   713     9
  705   718   722   720     9
  719   718   722   720     9
  705   718   723   724     9
  705   718   723   725     9
  705   718   723   726     9
  719   718   723   724     9
  719   718   723   725     9
  719   718   723   726     9
  722   718   723   724     9
  722   718   723   725     9
  722   718   723   726     9
  721   720   729   726     9
  721   720   729   730     9
  721   720   729   731     9
  722   720   729   726     9
  722   720   729   730     9
  722   720   729   731     9
  721   720   733   734     9
  721   720   733   735     9
  721   720   733   736     9
  722   720   733   734     9
  722   720   733   735     9
  722   720   733   736     9
  729   720   733   734     9
  729   720   733   735     9
  729   720   733   736     9
  720   722   718   723     9
  718   722   720   721     9
  718   722   720   729     9
  718   722   720   733     9
  718   723   725   737     9
  724   723   725   737     9
  726   723   725   737     9
  718   723   726   727     9
  718   723   726   728     9
  718   723   726   729     9
  724   723   726   727     9
  724   723   726   728     9
  724   723   726   729     9
  725   723   726   727     9
  725   723   726   728     9
  725   723   726   729     9
  723   725   737   738     9
  723   725   737   741     9
  723   725   737   742     9
  723   726   728   765     9
  727   726   728   765     9
  729   726   728   765     9
  723   726   729   730     9
  723   726   729   731     9
  727   726   729   730     9
  727   726   729   731     9
  728   726   729   730     9
  728   726   729   731     9
  726   728   765   766     9
  726   728   765   769     9
  726   728   765   770     9
  726   729   720   733     9
  730   729   720   733     9
  731   729   720   733     9
  720   729   726   723     9
  720   729   726   727     9
  720   729   726   728     9
  720   729   731   732     9
  726   729   731   732     9
  730   729   731   732     9
  725   737   741   739     9
  738   737   741   739     9
  725   737   742   743     9
  725   737   742   744     9
  725   737   742   752     9
  738   737   742   743     9
  738   737   742   744     9
  738   737   742   752     9
  741   737   742   743     9
  741   737   742   744     9
  741   737   742   752     9
  740   739   756   752     9
  740   739   756   757     9
  740   739   756   758     9
  741   739   756   752     9
  741   739   756   757     9
  741   739   756   758     9
  740   739   760   761     9
  740   739   760   762     9
  740   739   760   763     9
  741   739   760   761     9
  741   739   760   762     9
  741   739   760   763     9
  756   739   760   761     9
  756   739   760   762     9
  756   739   760   763     9
  739   741   737   742     9
  737   741   739   740     9
  737   741   739   756     9
  737   741   739   760     9
  737   742   744   745     9
  737   742   744   746     9
  743   742   744   745     9
  743   742   744   746     9
  737   742   752   753     9
  737   742   752   754     9
  737   742   752   756     9
  743   742   752   753     9
  743   742   752   754     9
  743   742   752   756     9
  744   742   752   753     9
  744   742   752   754     9
  744   742   752   756     9
  745   744   742   752     9
  746   744   742   752     9
  742   744   746   747     9
  742   744   746   748     9
  745   744   746   747     9
  745   744   746   748     9
  744   746   748   749     9
  744   746   748   750     9
  744   746   748   751     9
  747   746   748   749     9
  747   746   748   750     9
  747   746   748   751     9
  742   752   754   755     9
  753   752   754   755     9
  742   752   756   757     9
  742   752   756   758     9
  753   752   756   757     9
  753   752   756   758     9
  754   752   756   757     9
  754   752   756   758     9
  755   754   752   756     9
  752   756   739   760     9
  757   756   739   760     9
  758   756   739   760     9
  739   756   752   742     9
  739   756   752   753     9
  739   756   752   754     9
  739   756   758   759     9
  752   756   758   759     9
  757   756   758   759     9
  739   760   763   764     9
  761   760   763   764     9
  762   760   763   764     9
  728   765   769   767     9
  766   765   769   767     9
  728   765   770   771     9
  728   765   770   772     9
  728   765   770   780     9
  766   765   770   771     9
  766   765   770   772     9
  766   765   770   780     9
  769   765   770   771     9
  769   765   770   772     9
  769   765   770   780     9
  768   767   783   780     9
  768   767   783   784     9
  768   767   783   785     9
  769   767   783   780     9
  769   767   783   784     9
  769   767   783   785     9
  768   767   787   788     9
  768   767   787   789     9
  768   767   787   790     9
  769   767   787   788     9
  769   767   787   789     9
  769   767   787   790     9
  783   767   787   788     9
  783   767   787   789     9
  783   767   787   790     9
  767   769   765   770     9
  765   769   767   768     9
  765   769   767   783     9
  765   769   767   787     9
  765   770   772   773     9
  765   770   772   774     9
  771   770   772   773     9
  771   770   772   774     9
  765   770   780   781     9
  765   770   780   782     9
  765   770   780   783     9
  771   770   780   781     9
  771   770   780   782     9
  771   770   780   783     9
  772   770   780   781     9
  772   770   780   782     9
  772   770   780   783     9
  773   772   770   780     9
  774   772   770   780     9
  770   772   774   775     9
  770   772   774   776     9
  773   772   774   775     9
  773   772   774   776     9
  772   774   776   777     9
  772   774   776   778     9
  772   774   776   779     9
  775   774   776   777     9
  775   774   776   778     9
  775   774   776   779     9
  770   780   782   792     9
  781   780   782   792     9
  783   780   782   792     9
  770   780   783   784     9
  770   780   783   785     9
  781   780   783   784     9
  781   780   783   785     9
  782   780   783   784     9
  782   780   783   785     9
  780   782   792   793     9
  780   782   792   796     9
  780   782   792   797     9
  780   783   767   787     9
  784   783   767   787     9
  785   783   767   787     9
  767   783   780   770     9
  767   783   780   781     9
  767   783   780   782     9
  767   783   785   786     9
  780   783   785   786     9
  784   783   785   786     9
  767   787   790   791     9
  788   787   790   791     9
  789   787   790   791     9
  782   792   796   794     9
  793   792   796   794     9
  782   792   797   798     9
  782   792   797   799     9
  782   792   797   800     9
  793   792   797   798     9
  793   792   797   799     9
  793   792   797   800     9
  796   792   797   798     9
  796   792   797   799     9
  796   792   797   800     9
  795   794   804   800     9
  795   794   804   805     9
  795   794   804   806     9
  796   794   804   800     9
  796   794   804   805     9
  796   794   804   806     9
  795   794   808   809     9
  795   794   808   810     9
  795   794   808   811     9
  796   794   808   809     9
  796   794   808   810     9
  796   794   808   811     9
  804   794   808   809     9
  804   794   808   810     9
  804   794   808   811     9
  794   796   792   797     9
  792   796   794   795     9
  792   796   794   804     9
  792   796   794   808     9
  792   797   799   813     9
  798   797   799   813     9
  800   797   799   813     9
  792   797   800   801     9
  792   797   800   802     9
  792   797   800   804     9
  798   797   800   801     9
  798   797   800   802     9
  798   797   800   804     9
  799   797   800   801     9
  799   797   800   802     9
  799   797   800   804     9
  797   799   813   814     9
  797   799   813   817     9
  797   799   813   818     9
  797   800   802   803     9
  801   800   802   803     9
  797   800   804   805     9
  797   800   804   806     9
  801   800   804   805     9
  801   800   804   806     9
  802   800   804   805     9
  802   800   804   806     9
  803   802   800   804     9
  800   804   794   808     9
  805   804   794   808     9
  806   804   794   808     9
  794   804   800   797     9
  794   804   800   801     9
  794   804   800   802     9
  794   804   806   807     9
  800   804   806   807     9
  805   804   806   807     9
  794   808   811   812     9
  809   808   811   812     9
  810   808   811   812     9
  799   813   817   815     9
  814   813   817   815     9
  799   813   818   819     9
  799   813   818   820     9
  799   813   818   821     9
  814   813   818   819     9
  814   813   818   820     9
  814   813   818   821     9
  817   813   818   819     9
  817   813   818   820     9
  817   813   818   821     9
  816   815   825   821     9
  816   815   825   826     9
  816   815   825   827     9
  817   815   825   821     9
  817   815   825   826     9
  817   815   825   827     9
  816   815   829   830     9
  816   815   829   831     9
  816   815   829   832     9
  817   815   829   830     9
  817   815   829   831     9
  817   815   829   832     9
  825   815   829   830     9
  825   815   829   831     9
  825   815   829   832     9
  815   817   813   818     9
  813   817   815   816     9
  813   817   815   825     9
  813   817   815   829     9
  813   818   820   833     9
  819   818   820   833     9
  821   818   820   833     9
  813   818   821   822     9
  813   818   821   823     9
  813   818   821   825     9
  819   818   821   822     9
  819   818   821   823     9
  819   818   821   825     9
  820   818   821   822     9
  820   818   821   823     9
  820   818   821   825     9
  818   820   833   834     9
  818   820   833   837     9
  818   820   833   838     9
  818   821   823   824     9
  822   821   823   824     9
  818   821   825   826     9
  818   821   825   827     9
  822   821   825   826     9
  822   821   825   827     9
  823   821   825   826     9
  823   821   825   827     9
  824   823   821   825     9
  821   825   815   829     9
  826   825   815   829     9
  827   825   815   829     9
  815   825   821   818     9
  815   825   821   822     9
  815   825   821   823     9
  815   825   827   828     9
  821   825   827   828     9
  826   825   827   828     9
  820   833   837   835     9
  834   833   837   835     9
  820   833   838   839     9
  820   833   838   840     9
  820   833   838   841     9
  834   833   838   839     9
  834   833   838   840     9
  834   833   838   841     9
  837   833   838   839     9
  837   833   838   840     9
  837   833   838   841     9
  836   835   844   841     9
  836   835   844   845     9
  836   835   844   846     9
  837   835   844   841     9
  837   835   844   845     9
  837   835   844   846     9
  836   835   848   849     9
  836   835   848   850     9
  836   835   848   851     9
  837   835   848   849     9
  837   835   848   850     9
  837   835   848   851     9
  844   835   848   849     9
  844   835   848   850     9
  844   835   848   851     9
  835   837   833   838     9
  833   837   835   836     9
  833   837   835   844     9
  833   837   835   848     9
  833   838   840   852     9
  839   838   840   852     9
  841   838   840   852     9
  833   838   841   842     9
  833   838   841   843     9
  833   838   841   844     9
  839   838   841   842     9
  839   838   841   843     9
  839   838   841   844     9
  840   838   841   842     9
  840   838   841   843     9
  840   838   841   844     9
  838   840   852   853     9
  838   840   852   856     9
  838   840   852   857     9
  838   841   843   880     9
  842   841   843   880     9
  844   841   843   880     9
  838   841   844   845     9
  838   841   844   846     9
  842   841   844   845     9
  842   841   844   846     9
  843   841   844   845     9
  843   841   844   846     9
  841   843   880   881     9
  841   843   880   884     9
  841   843   880   885     9
  841   844   835   848     9
  845   844   835   848     9
  846   844   835   848     9
  835   844   841   838     9
  835   844   841   842     9
  835   844   841   843     9
  835   844   846   847     9
  841   844   846   847     9
  845   844   846   847     9
  840   852   856   854     9
  853   852   856   854     9
  840   852   857   858     9
  840   852   857   859     9
  840   852   857   867     9
  853   852   857   858     9
  853   852   857   859     9
  853   852   857   867     9
  856   852   857   858     9
  856   852   857   859     9
  856   852   857   867     9
  855   854   871   867     9
  855   854   871   872     9
  855   854   871   873     9
  856   854   871   867     9
  856   854   871   872     9
  856   854   871   873     9
  855   854   875   876     9
  855   854   875   877     9
  855   854   875   878     9
  856   854   875   876     9
  856   854   875   877     9
  856   854   875   878     9
  871   854   875   876     9
  871   854   875   877     9
  871   854   875   878     9
  854   856   852   857     9
  852   856   854   855     9
  852   856   854   871     9
  852   856   854   875     9
  852   857   859   860     9
  852   857   859   861     9
  858   857   859   860     9
  858   857   859   861     9
  852   857   867   868     9
  852   857   867   869     9
  852   857   867   871     9
  858   857   867   868     9
  858   857   867   869     9
  858   857   867   871     9
  859   857   867   868     9
  859   857   867   869     9
  859   857   867   871     9
  860   859   857   867     9
  861   859   857   867     9
  857   859   861   862     9
  857   859   861   863     9
  860   859   861   862     9
  860   859   861   863     9
  859   861   863   864     9
  859   861   863   865     9
  859   861   863   866     9
  862   861   863   864     9
  862   861   863   865     9
  862   861   863   866     9
  857   867   869   870     9
  868   867   869   870     9
  857   867   871   872     9
  857   867   871   873     9
  868   867   871   872     9
  868   867   871   873     9
  869   867   871   872     9
  869   867   871   873     9
  870   869   867   871     9
  867   871   854   875     9
  872   871   854   875     9
  873   871   854   875     9
  854   871   867   857     9
  854   871   867   868     9
  854   871   867   869     9
  854   871   873   874     9
  867   871   873   874     9
  872   871   873   874     9
  854   875   878   879     9
  876   875   878   879     9
  877   875   878   879     9
  843   880   884   882     9
  881   880   884   882     9
  843   880   885   886     9
  843   880   885   887     9
  843   880   885   895     9
  881   880   885   886     9
  881   880   885   887     9
  881   880   885   895     9
  884   880   885   886     9
  884   880   885   887     9
  884   880   885   895     9
  883   882   898   895     9
  883   882   898   899     9
  883   882   898   900     9
  884   882   898   895     9
  884   882   898   899     9
  884   882   898   900     9
  883   882   902   903     9
  883   882   902   904     9
  883   882   902   905     9
  884   882   902   903     9
  884   882   902   904     9
  884   882   902   905     9
  898   882   902   903     9
  898   882   902   904     9
  898   882   902   905     9
  882   884   880   885     9
  880   884   882   883     9
  880   884   882   898     9
  880   884   882   902     9
  880   885   887   888     9
  880   885   887   889     9
  886   885   887   888     9
  886   885   887   889     9
  880   885   895   896     9
  880   885   895   897     9
  880   885   895   898     9
  886   885   895   896     9
  886   885   895   897     9
  886   885   895   898     9
  887   885   895   896     9
  887   885   895   897     9
  887   885   895   898     9
  888   887   885   895     9
  889   887   885   895     9
  885   887   889   890     9
  885   887   889   891     9
  888   887   889   890     9
  888   887   889   891     9
  887   889   891   892     9
  887   889   891   893     9
  887   889   891   894     9
  890   889   891   892     9
  890   889   891   893     9
  890   889   891   894     9
  885   895   897   907     9
  896   895   897   907     9
  898   895   897   907     9
  885   895   898   899     9
  885   895   898   900     9
  896   895   898   899     9
  896   895   898   900     9
  897   895   898   899     9
  897   895   898   900     9
  895   897   907   908     9
  895   897   907   911     9
  895   897   907   912     9
  895   898   882   902     9
  899   898   882   902     9
  900   898   882   902     9
  882   898   895   885     9
  882   898   895   896     9
  882   898   895   897     9
  882   898   900   901     9
  895   898   900   901     9
  899   898   900   901     9
  882   902   905   906     9
  903   902   905   906     9
  904   902   905   906     9
  897   907   911   909     9
  908   907   911   909     9
  897   907   912   913     9
  897   907   912   914     9
  897   907   912   915     9
  908   907   912   913     9
  908   907   912   914     9
  908   907   912   915     9
  911   907   912   913     9
  911   907   912   914     9
  911   907   912   915     9
  910   909   919   915     9
  910   909   919   920     9
  910   909   919   921     9
  911   909   919   915     9
  911   909   919   920     9
  911   909   919   921     9
  910   909   923   924     9
  910   909   923   925     9
  910   909   923   926     9
  911   909   923   924     9
  911   909   923   925     9
  911   909   923   926     9
  919   909   923   924     9
  919   909   923   925     9
  919   909   923   926     9
  909   911   907   912     9
  907   911   909   910     9
  907   911   909   919     9
  907   911   909   923     9
  907   912   914   928     9
  913   912   914   928     9
  915   912   914   928     9
  907   912   915   916     9
  907   912   915   917     9
  907   912   915   919     9
  913   912   915   916     9
  913   912   915   917     9
  913   912   915   919     9
  914   912   915   916     9
  914   912   915   917     9
  914   912   915   919     9
  912   914   928   929     9
  912   914   928   932     9
  912   914   928   933     9
  912   915   917   918     9
  916   915   917   918     9
  912   915   919   920     9
  912   915   919   921     9
  916   915   919   920     9
  916   915   919   921     9
  917   915   919   920     9
  917   915   919   921     9
  918   917   915   919     9
  915   919   909   923     9
  920   919   909   923     9
  921   919   909   923     9
  909   919   915   912     9
  909   919   915   916     9
  909   919   915   917     9
  909   919   921   922     9
  915   919   921   922     9
  920   919   921   922     9
  909   923   926   927     9
  924   923   926   927     9
  925   923   926   927     9
  914   928   932   930     9
  929   928   932   930     9
  914   928   933   934     9
  914   928   933   935     9
  914   928   933   936     9
  929   928   933   934     9
  929   928   933   935     9
  929   928   933   936     9
  932   928   933   934     9
  932   928   933   935     9
  932   928   933   936     9
  931   930   940   936     9
  931   930   940   941     9
  931   930   940   942     9
  932   930   940   936     9
  932   930   940   941     9
  932   930   940   942     9
  931   930   944   945     9
  931   930   944   946     9
  931   930   944   947     9
  932   930   944   945     9
  932   930   944   946     9
  932   930   944   947     9
  940   930   944   945     9
  940   930   944   946     9
  940   930   944   947     9
  930   932   928   933     9
  928   932   930   931     9
  928   932   930   940     9
  928   932   930   944     9
  928   933   935   948     9
  934   933   935   948     9
  936   933   935   948     9
  928   933   936   937     9
  928   933   936   938     9
  928   933   936   940     9
  934   933   936   937     9
  934   933   936   938     9
  934   933   936   940     9
  935   933   936   937     9
  935   933   936   938     9
  935   933   936   940     9
  933   935   948   949     9
  933   935   948   952     9
  933   935   948   953     9
  933   936   938   939     9
  937   936   938   939     9
  933   936   940   941     9
  933   936   940   942     9
  937   936   940   941     9
  937   936   940   942     9
  938   936   940   941     9
  938   936   940   942     9
  939   938   936   940     9
  936   940   930   944     9
  941   940   930   944     9
  942   940   930   944     9
  930   940   936   933     9
  930   940   936   937     9
  930   940   936   938     9
  930   940   942   943     9
  936   940   942   943     9
  941   940   942   943     9
  935   948   952   950     9
  949   948   952   950     9
  935   948   953   954     9
  935   948   953   955     9
  935   948   953   956     9
  949   948   953   954     9
  949   948   953   955     9
  949   948   953   956     9
  952   948   953   954     9
  952   948   953   955     9
  952   948   953   956     9
  951   950   959   956     9
  951   950   959   960     9
  951   950   959   961     9
  952   950   959   956     9
  952   950   959   960     9
  952   950   959   961     9
  951   950   963   964     9
  951   950   963   965     9
  951   950   963   966     9
  952   950   963   964     9
  952   950   963   965     9
  952   950   963   966     9
  959   950   963   964     9
  959   950   963   965     9
  959   950   963   966     9
  950   952   948   953     9
  948   952   950   951     9
  948   952   950   959     9
  948   952   950   963     9
  948   953   955   967     9
  954   953   955   967     9
  956   953   955   967     9
  948   953   956   957     9
  948   953   956   958     9
  948   953   956   959     9
  954   953   956   957     9
  954   953   956   958     9
  954   953   956   959     9
  955   953   956   957     9
  955   953   956   958     9
  955   953   956   959     9
  953   955   967   968     9
  953   955   967   971     9
  953   955   967   972     9
  953   956   958   995     9
  957   956   958   995     9
  959   956   958   995     9
  953   956   959   960     9
  953   956   959   961     9
  957   956   959   960     9
  957   956   959   961     9
  958   956   959   960     9
  958   956   959   961     9
  956   958   995   996     9
  956   958   995   999     9
  956   958   995  1000     9
  956   959   950   963     9
  960   959   950   963     9
  961   959   950   963     9
  950   959   956   953     9
  950   959   956   957     9
  950   959   956   958     9
  950   959   961   962     9
  956   959   961   962     9
  960   959   961   962     9
  955   967   971   969     9
  968   967   971   969     9
  955   967   972   973     9
  955   967   972   974     9
  955   967   972   982     9
  968   967   972   973     9
  968   967   972   974     9
  968   967   972   982     9
  971   967   972   973     9
  971   967   972   974     9
  971   967   972   982     9
  970   969   986   982     9
  970   969   986   987     9
  970   969   986   988     9
  971   969   986   982     9
  971   969   986   987     9
  971   969   986   988     9
  970   969   990   991     9
  970   969   990   992     9
  970   969   990   993     9
  971   969   990   991     9
  971   969   990   992     9
  971   969   990   993     9
  986   969   990   991     9
  986   969   990   992     9
  986   969   990   993     9
  969   971   967   972     9
  967   971   969   970     9
  967   971   969   986     9
  967   971   969   990     9
  967   972   974   975     9
  967   972   974   976     9
  973   972   974   975     9
  973   972   974   976     9
  967   972   982   983     9
  967   972   982   984     9
  967   972   982   986     9
  973   972   982   983     9
  973   972   982   984     9
  973   972   982   986     9
  974   972   982   983     9
  974   972   982   984     9
  974   972   982   986     9
  975   974   972   982     9
  976   974   972   982     9
  972   974   976   977     9
  972   974   976   978     9
  975   974   976   977     9
  975   974   976   978     9
  974   976   978   979     9
  974   976   978   980     9
  974   976   978   981     9
  977   976   978   979     9
  977   976   978   980     9
  977   976   978   981     9
  972   982   984   985     9
  983   982   984   985     9
  972   982   986   987     9
  972   982   986   988     9
  983   982   986   987     9
  983   982   986   988     9
  984   982   986   987     9
  984   982   986   988     9
  985   984   982   986     9
  982   986   969   990     9
  987   986   969   990     9
  988   986   969   990     9
  969   986   982   972     9
  969   986   982   983     9
  969   986   982   984     9
  969   986   988   989     9
  982   986   988   989     9
  987   986   988   989     9
  969   990   993   994     9
  991   990   993   994     9
  992   990   993   994     9
  958   995   999   997     9
  996   995   999   997     9
  958   995  1000  1001     9
  958   995  1000  1002     9
  958   995  1000  1010     9
  996   995  1000  1001     9
  996   995  1000  1002     9
  996   995  1000  1010     9
  999   995  1000  1001     9
  999   995  1000  1002     9
  999   995  1000  1010     9
  998   997  1013  1010     9
  998   997  1013  1014     9
  998   997  1013  1015     9
  999   997  1013  1010     9
  999   997  1013  1014     9
  999   997  1013  1015     9
  998   997  1017  1018     9
  998   997  1017  1019     9
  998   997  1017  1020     9
  999   997  1017  1018     9
  999   997  1017  1019     9
  999   997  1017  1020     9
 1013   997  1017  1018     9
 1013   997  1017  1019     9
 1013   997  1017  1020     9
  997   999   995  1000     9
  995   999   997   998     9
  995   999   997  1013     9
  995   999   997  1017     9
  995  1000  1002  1003     9
  995  1000  1002  1004     9
 1001  1000  1002  1003     9
 1001  1000  1002  1004     9
  995  1000  1010  1011     9
  995  1000  1010  1012     9
  995  1000  1010  1013     9
 1001  1000  1010  1011     9
 1001  1000  1010  1012     9
 1001  1000  1010  1013     9
 1002  1000  1010  1011     9
 1002  1000  1010  1012     9
 1002  1000  1010  1013     9
 1003  1002  1000  1010     9
 1004  1002  1000  1010     9
 1000  1002  1004  1005     9
 1000  1002  1004  1006     9
 1003  1002  1004  1005     9
 1003  1002  1004  1006     9
 1002  1004  1006  1007     9
 1002  1004  1006  1008     9
 1002  1004  1006  1009     9
 1005  1004  1006  1007     9
 1005  1004  1006  1008     9
 1005  1004  1006  1009     9
 1000  1010  1012  1022     9
 1011  1010  1012  1022     9
 1013  1010  1012  1022     9
 1000  1010  1013  1014     9
 1000  1010  1013  1015     9
 1011  1010  1013  1014     9
 1011  1010  1013  1015     9
 1012  1010  1013  1014     9
 1012  1010  1013  1015     9
 1010  1012  1022  1023     9
 1010  1012  1022  1026     9
 1010  1012  1022  1027     9
 1010  1013   997  1017     9
 1014  1013   997  1017     9
 1015  1013   997  1017     9
  997  1013  1010  1000     9
  997  1013  1010  1011     9
  997  1013  1010  1012     9
  997  1013  1015  1016     9
 1010  1013  1015  1016     9
 1014  1013  1015  1016     9
  997  1017  1020  1021     9
 1018  1017  1020  1021     9
 1019  1017  1020  1021     9
 1012  1022  1026  1024     9
 1023  1022  1026  1024     9
 1012  1022  1027  1028     9
 1012  1022  1027  1029     9
 1012  1022  1027  1030     9
 1023  1022  1027  1028     9
 1023  1022  1027  1029     9
 1023  1022  1027  1030     9
 1026  1022  1027  1028     9
 1026  1022  1027  1029     9
 1026  1022  1027  1030     9
 1025  1024  1034  1030     9
 1025  1024  1034  1035     9
 1025  1024  1034  1036     9
 1026  1024  1034  1030     9
 1026  1024  1034  1035     9
 1026  1024  1034  1036     9
 1025  1024  1038  1039     9
 1025  1024  1038  1040     9
 1025  1024  1038  1041     9
 1026  1024  1038  1039     9
 1026  1024  1038  1040     9
 1026  1024  1038  1041     9
 1034  1024  1038  1039     9
 1034  1024  1038  1040     9
 1034  1024  1038  1041     9
 1024  1026  1022  1027     9
 1022  1026  1024  1025     9
 1022  1026  1024  1034     9
 1022  1026  1024  1038     9
 1022  1027  1029  1043     9
 1028  1027  1029  1043     9
 1030  1027  1029  1043     9
 1022  1027  1030  1031     9
 1022  1027  1030  1032     9
 1022  1027  1030  1034     9
 1028  1027  1030  1031     9
 1028  1027  1030  1032     9
 1028  1027  1030  1034     9
 1029  1027  1030  1031     9
 1029  1027  1030  1032     9
 1029  1027  1030  1034     9
 1027  1029  1043  1044     9
 1027  1029  1043  1047     9
 1027  1029  1043  1048     9
 1027  1030  1032  1033     9
 1031  1030  1032  1033     9
 1027  1030  1034  1035     9
 1027  1030  1034  1036     9
 1031  1030  1034  1035     9
 1031  1030  1034  1036     9
 1032  1030  1034  1035     9
 1032  1030  1034  1036     9
 1033  1032  1030  1034     9
 1030  1034  1024  1038     9
 1035  1034  1024  1038     9
 1036  1034  1024  1038     9
 1024  1034  1030  1027     9
 1024  1034  1030  1031     9
 1024  1034  1030  1032     9
 1024  1034  1036  1037     9
 1030  1034  1036  1037     9
 1035  1034  1036  1037     9
 1024  1038  1041  1042     9
 1039  1038  1041  1042     9
 1040  1038  1041  1042     9
 1029  1043  1047  1045     9
 1044  1043  1047  1045     9
 1029  1043  1048  1049     9
 1029  1043  1048  1050     9
 1029  1043  1048  1051     9
 1044  1043  1048  1049     9
 1044  1043  1048  1050     9
 1044  1043  1048  1051     9
 1047  1043  1048  1049     9
 1047  1043  1048  1050     9
 1047  1043  1048  1051     9
 1046  1045  1055  1051     9
 1046  1045  1055  1056     9
 1046  1045  1055  1057     9
 1047  1045  1055  1051     9
 1047  1045  1055  1056     9
 1047  1045  1055  1057     9
 1046  1045  1059  1060     9
 1046  1045  1059  1061     9
 1046  1045  1059  1062     9
 1047  1045  1059  1060     9
 1047  1045  1059  1061     9
 1047  1045  1059  1062     9
 1055  1045  1059  1060     9
 1055  1045  1059  1061     9
 1055  1045  1059  1062     9
 1045  1047  1043  1048     9
 1043  1047  1045  1046     9
 1043  1047  1045  1055     9
 1043  1047  1045  1059     9
 1043  1048  1050  1063     9
 1049  1048  1050  1063     9
 1051  1048  1050  1063     9
 1043  1048  1051  1052     9
 1043  1048  1051  1053     9
 1043  1048  1051  1055     9
 1049  1048  1051  1052     9
 1049  1048  1051  1053     9
 1049  1048  1051  1055     9
 1050  1048  1051  1052     9
 1050  1048  1051  1053     9
 1050  1048  1051  1055     9
 1048  1050  1063  1064     9
 1048  1050  1063  1067     9
 1048  1050  1063  1068     9
 1048  1051  1053  1054     9
 1052  1051  1053  1054     9
 1048  1051  1055  1056     9
 1048  1051  1055  1057     9
 1052  1051  1055  1056     9
 1052  1051  1055  1057     9
 1053  1051  1055  1056     9
 1053  1051  1055  1057     9
 1054  1053  1051  1055     9
 1051  1055  1045  1059     9
 1056  1055  1045  1059     9
 1057  1055  1045  1059     9
 1045  1055  1051  1048     9
 1045  1055  1051  1052     9
 1045  1055  1051  1053     9
 1045  1055  1057  1058     9
 1051  1055  1057  1058     9
 1056  1055  1057  1058     9
 1050  1063  1067  1065     9
 1064  1063  1067  1065     9
 1050  1063  1068  1069     9
 1050  1063  1068  1070     9
 1050  1063  1068  1071     9
 1064  1063  1068  1069     9
 1064  1063  1068  1070     9
 1064  1063  1068  1071     9
 1067  1063  1068  1069     9
 1067  1063  1068  1070     9
 1067  1063  1068  1071     9
 1066  1065  1075  1071     9
 1066  1065  1075  1076     9
 1066  1065  1075  1077     9
 1067  1065  1075  1071     9
 1067  1065  1075  1076     9
 1067  1065  1075  1077     9
 1066  1065  1079  1080     9
 1066  1065  1079  1081     9
 1066  1065  1079  1082     9
 1067  1065  1079  1080     9
 1067  1065  1079  1081     9
 1067  1065  1079  1082     9
 1075  1065  1079  1080     9
 1075  1065  1079  1081     9
 1075  1065  1079  1082     9
 1065  1067  1063  1068     9
 1063  1067  1065  1066     9
 1063  1067  1065  1075     9
 1063  1067  1065  1079     9
 1063  1068  1070  1083     9
 1069  1068  1070  1083     9
 1071  1068  1070  1083     9
 1063  1068  1071  1072     9
 1063  1068  1071  1073     9
 1063  1068  1071  1075     9
 1069  1068  1071  1072     9
 1069  1068  1071  1073     9
 1069  1068  1071  1075     9
 1070  1068  1071  1072     9
 1070  1068  1071  1073     9
 1070  1068  1071  1075     9
 1068  1070  1083  1084     9
 1068  1070  1083  1087     9
 1068  1070  1083  1088     9
 1068  1071  1073  1074     9
 1072  1071  1073  1074     9
 1068  1071  1075  1076     9
 1068  1071  1075  1077     9
 1072  1071  1075  1076     9
 1072  1071  1075  1077     9
 1073  1071  1075  1076     9
 1073  1071  1075  1077     9
 1074  1073  1071  1075     9
 1071  1075  1065  1079     9
 1076  1075  1065  1079     9
 1077  1075  1065  1079     9
 1065  1075  1071  1068     9
 1065  1075  1071  1072     9
 1065  1075  1071  1073     9
 1065  1075  1077  1078     9
 1071  1075  1077  1078     9
 1076  1075  1077  1078     9
 1070  1083  1087  1085     9
 1084  1083  1087  1085     9
 1070  1083  1088  1089     9
 1070  1083  1088  1090     9
 1070  1083  1088  1098     9
 1084  1083  1088  1089     9
 1084  1083  1088  1090     9
 1084  1083  1088  1098     9
 1087  1083  1088  1089     9
 1087  1083  1088  1090     9
 1087  1083  1088  1098     9
 1086  1085  1102  1098     9
 1086  1085  1102  1103     9
 1086  1085  1102  1104     9
 1087  1085  1102  1098     9
 1087  1085  1102  1103     9
 1087  1085  1102  1104     9
 1086  1085  1106  1107     9
 1086  1085  1106  1108     9
 1086  1085  1106  1109     9
 1087  1085  1106  1107     9
 1087  1085  1106  1108     9
 1087  1085  1106  1109     9
 1102  1085  1106  1107     9
 1102  1085  1106  1108     9
 1102  1085  1106  1109     9
 1085  1087  1083  1088     9
 1083  1087  1085  1086     9
 1083  1087  1085  1102     9
 1083  1087  1085  1106     9
 1083  1088  1090  1091     9
 1083  1088  1090  1092     9
 1089  1088  1090  1091     9
 1089  1088  1090  1092     9
 1083  1088  1098  1099     9
 1083  1088  1098  1100     9
 1083  1088  1098  1102     9
 1089  1088  1098  1099     9
 1089  1088  1098  1100     9
 1089  1088  1098  1102     9
 1090  1088  1098  1099     9
 1090  1088  1098  1100     9
 1090  1088  1098  1102     9
 1091  1090  1088  1098     9
 1092  1090  1088  1098     9
 1088  1090  1092  1093     9
 1088  1090  1092  1094     9
 1091  1090  1092  1093     9
 1091  1090  1092  1094     9
 1090  1092  1094  1095     9
 1090  1092  1094  1096     9
 1090  1092  1094  1097     9
 1093  1092  1094  1095     9
 1093  1092  1094  1096     9
 1093  1092  1094  1097     9
 1088  1098  1100  1101     9
 1099  1098  1100  1101     9
 1088  1098  1102  1103     9
 1088  1098  1102  1104     9
 1099  1098  1102  1103     9
 1099  1098  1102  1104     9
 1100  1098  1102  1103     9
 1100  1098  1102  1104     9
 1101  1100  1098  1102     9
 1098  1102  1085  1106     9
 1103  1102  1085  1106     9
 1104  1102  1085  1106     9
 1085  1102  1098  1088     9
 1085  1102  1098  1099     9
 1085  1102  1098  1100     9
 1085  1102  1104  1105     9
 1098  1102  1104  1105     9
 1103  1102  1104  1105     9
 1085  1106  1109  1110     9
 1107  1106  1109  1110     9
 1108  1106  1109  1110     9

[ dihedrals ]
; ai	aj	ak	al	funct	q0	cq
   31   138    29    32     2
   57   254    55    58     2
  138   140    31   139     2
  254   256    57   255     2
  542   544   540   543     2
  544   546   542   545     2
  629   631   627   630     2
  631   633   629   632     2
  657   659   655   658     2
  659   661   657   660     2
  744   746   742   745     2
  746   748   744   747     2
  772   774   770   773     2
  774   776   772   775     2
  859   861   857   860     2
  861   863   859   862     2
  887   889   885   888     2
  889   891   887   890     2
  974   976   972   975     2
  976   978   974   977     2
 1002  1004  1000  1003     2
 1004  1006  1002  1005     2
 1090  1092  1088  1091     2
 1092  1094  1090  1093     2

#ifdef POSRES
[ position_restraints ]
   46     1     0.0             0.0            POSRES_FC_LIPID
#endif

#ifdef DIHRES
[ dihedral_restraints ]
    5    14    21    29     1     60.0      2.5       DIHRES_FC
   14    21    29     8     1    -60.0      2.5       DIHRES_FC
   21    29     8     6     1     60.0      2.5       DIHRES_FC
   29     8     6     5     1    -60.0      2.5       DIHRES_FC
    8     6     5    14     1     60.0      2.5       DIHRES_FC
    6     5    14    21     1    -60.0      2.5       DIHRES_FC
   33    37    39    40     1     60.0      2.5       DIHRES_FC
   37    39    40    55     1    -60.0      2.5       DIHRES_FC
   39    40    55    47     1     60.0      2.5       DIHRES_FC
   40    55    47    33     1    -60.0      2.5       DIHRES_FC
   55    47    33    37     1     60.0      2.5       DIHRES_FC
   47    33    37    39     1    -60.0      2.5       DIHRES_FC
   26    61    59   104     1    120.0      2.5       DIHRES_FC
  140   145   143   182     1    120.0      2.5       DIHRES_FC
   52   218   216   220     1    120.0      2.5       DIHRES_FC
  261   263   259   256     1    120.0      2.5       DIHRES_FC
  300   304   307   310     1    -60.0      2.5       DIHRES_FC
  304   307   310   301     1     60.0      2.5       DIHRES_FC
  307   310   301   303     1    -60.0      2.5       DIHRES_FC
  310   301   303   300     1     60.0      2.5       DIHRES_FC
  301   303   300   304     1    -60.0      2.5       DIHRES_FC
  303   300   304   307     1     60.0      2.5       DIHRES_FC
  301   315   313   317     1    120.0      2.5       DIHRES_FC
  325   329   332   336     1    -60.0      2.5       DIHRES_FC
  329   332   336   326     1     60.0      2.5       DIHRES_FC
  332   336   326   328     1    -60.0      2.5       DIHRES_FC
  336   326   328   325     1     60.0      2.5       DIHRES_FC
  326   328   325   329     1    -60.0      2.5       DIHRES_FC
  328   325   329   332     1     60.0      2.5       DIHRES_FC
  326   342   340   344     1    120.0      2.5       DIHRES_FC
  349   353   351   361     1     60.0      2.5       DIHRES_FC
  353   351   361   358     1    -60.0      2.5       DIHRES_FC
  351   361   358   354     1     60.0      2.5       DIHRES_FC
  361   358   354   349     1    -60.0      2.5       DIHRES_FC
  358   354   349   353     1     60.0      2.5       DIHRES_FC
  354   349   353   351     1    -60.0      2.5       DIHRES_FC
  351   372   368   370     1    120.0      2.5       DIHRES_FC
  377   381   379   389     1     60.0      2.5       DIHRES_FC
  381   379   389   386     1    -60.0      2.5       DIHRES_FC
  379   389   386   382     1     60.0      2.5       DIHRES_FC
  389   386   382   377     1    -60.0      2.5       DIHRES_FC
  386   382   377   381     1     60.0      2.5       DIHRES_FC
  382   377   381   379     1    -60.0      2.5       DIHRES_FC
  379   400   396   398     1    120.0      2.5       DIHRES_FC
  404   408   406   417     1     60.0      2.5       DIHRES_FC
  408   406   417   413     1    -60.0      2.5       DIHRES_FC
  406   417   413   409     1     60.0      2.5       DIHRES_FC
  417   413   409   404     1    -60.0      2.5       DIHRES_FC
  413   409   404   408     1     60.0      2.5       DIHRES_FC
  409   404   408   406     1    -60.0      2.5       DIHRES_FC
  406   425   421   423     1    120.0      2.5       DIHRES_FC
  430   434   432   442     1     60.0      2.5       DIHRES_FC
  434   432   442   439     1    -60.0      2.5       DIHRES_FC
  432   442   439   435     1     60.0      2.5       DIHRES_FC
  442   439   435   430     1    -60.0      2.5       DIHRES_FC
  439   435   430   434     1     60.0      2.5       DIHRES_FC
  435   430   434   432     1    -60.0      2.5       DIHRES_FC
  451   455   453   462     1     60.0      2.5       DIHRES_FC
  455   453   462   459     1    -60.0      2.5       DIHRES_FC
  453   462   459   456     1     60.0      2.5       DIHRES_FC
  462   459   456   451     1    -60.0      2.5       DIHRES_FC
  459   456   451   455     1     60.0      2.5       DIHRES_FC
  456   451   455   453     1    -60.0      2.5       DIHRES_FC
  471   475   473   483     1     60.0      2.5       DIHRES_FC
  475   473   483   479     1    -60.0      2.5       DIHRES_FC
  473   483   479   476     1     60.0      2.5       DIHRES_FC
  483   479   476   471     1    -60.0      2.5       DIHRES_FC
  479   476   471   475     1     60.0      2.5       DIHRES_FC
  476   471   475   473     1    -60.0      2.5       DIHRES_FC
  492   496   494   505     1     60.0      2.5       DIHRES_FC
  496   494   505   501     1    -60.0      2.5       DIHRES_FC
  494   505   501   497     1     60.0      2.5       DIHRES_FC
  505   501   497   492     1    -60.0      2.5       DIHRES_FC
  501   497   492   496     1     60.0      2.5       DIHRES_FC
  497   492   496   494     1    -60.0      2.5       DIHRES_FC
  514   518   516   526     1     60.0      2.5       DIHRES_FC
  518   516   526   523     1    -60.0      2.5       DIHRES_FC
  516   526   523   519     1     60.0      2.5       DIHRES_FC
  526   523   519   514     1    -60.0      2.5       DIHRES_FC
  523   519   514   518     1     60.0      2.5       DIHRES_FC
  519   514   518   516     1    -60.0      2.5       DIHRES_FC
  535   539   537   553     1     60.0      2.5       DIHRES_FC
  539   537   553   550     1    -60.0      2.5       DIHRES_FC
  537   553   550   540     1     60.0      2.5       DIHRES_FC
  553   550   540   535     1    -60.0      2.5       DIHRES_FC
  550   540   535   539     1     60.0      2.5       DIHRES_FC
  540   535   539   537     1    -60.0      2.5       DIHRES_FC
  562   566   564   574     1     60.0      2.5       DIHRES_FC
  566   564   574   570     1    -60.0      2.5       DIHRES_FC
  564   574   570   567     1     60.0      2.5       DIHRES_FC
  574   570   567   562     1    -60.0      2.5       DIHRES_FC
  570   567   562   566     1     60.0      2.5       DIHRES_FC
  567   562   566   564     1    -60.0      2.5       DIHRES_FC
  583   587   585   595     1    -60.0      2.5       DIHRES_FC
  587   585   595   591     1     60.0      2.5       DIHRES_FC
  585   595   591   588     1    -60.0      2.5       DIHRES_FC
  595   591   588   583     1     60.0      2.5       DIHRES_FC
  591   588   583   587     1    -60.0      2.5       DIHRES_FC
  588   583   587   585     1     60.0      2.5       DIHRES_FC
  603   607   605   614     1    -60.0      2.5       DIHRES_FC
  607   605   614   611     1     60.0      2.5       DIHRES_FC
  605   614   611   608     1    -60.0      2.5       DIHRES_FC
  614   611   608   603     1     60.0      2.5       DIHRES_FC
  611   608   603   607     1    -60.0      2.5       DIHRES_FC
  608   603   607   605     1     60.0      2.5       DIHRES_FC
  622   626   624   641     1     60.0      2.5       DIHRES_FC
  626   624   641   637     1    -60.0      2.5       DIHRES_FC
  624   641   637   627     1     60.0      2.5       DIHRES_FC
  641   637   627   622     1    -60.0      2.5       DIHRES_FC
  637   627   622   626     1     60.0      2.5       DIHRES_FC
  627   622   626   624     1    -60.0      2.5       DIHRES_FC
  650   654   652   668     1     60.0      2.5       DIHRES_FC
  654   652   668   665     1    -60.0      2.5       DIHRES_FC
  652   668   665   655     1     60.0      2.5       DIHRES_FC
  668   665   655   650     1    -60.0      2.5       DIHRES_FC
  665   655   650   654     1     60.0      2.5       DIHRES_FC
  655   650   654   652     1    -60.0      2.5       DIHRES_FC
  677   681   679   689     1     60.0      2.5       DIHRES_FC
  681   679   689   685     1    -60.0      2.5       DIHRES_FC
  679   689   685   682     1     60.0      2.5       DIHRES_FC
  689   685   682   677     1    -60.0      2.5       DIHRES_FC
  685   682   677   681     1     60.0      2.5       DIHRES_FC
  682   677   681   679     1    -60.0      2.5       DIHRES_FC
  698   702   700   710     1    -60.0      2.5       DIHRES_FC
  702   700   710   706     1     60.0      2.5       DIHRES_FC
  700   710   706   703     1    -60.0      2.5       DIHRES_FC
  710   706   703   698     1     60.0      2.5       DIHRES_FC
  706   703   698   702     1    -60.0      2.5       DIHRES_FC
  703   698   702   700     1     60.0      2.5       DIHRES_FC
  718   722   720   729     1    -60.0      2.5       DIHRES_FC
  722   720   729   726     1     60.0      2.5       DIHRES_FC
  720   729   726   723     1    -60.0      2.5       DIHRES_FC
  729   726   723   718     1     60.0      2.5       DIHRES_FC
  726   723   718   722     1    -60.0      2.5       DIHRES_FC
  723   718   722   720     1     60.0      2.5       DIHRES_FC
  737   741   739   756     1     60.0      2.5       DIHRES_FC
  741   739   756   752     1    -60.0      2.5       DIHRES_FC
  739   756   752   742     1     60.0      2.5       DIHRES_FC
  756   752   742   737     1    -60.0      2.5       DIHRES_FC
  752   742   737   741     1     60.0      2.5       DIHRES_FC
  742   737   741   739     1    -60.0      2.5       DIHRES_FC
  765   769   767   783     1     60.0      2.5       DIHRES_FC
  769   767   783   780     1    -60.0      2.5       DIHRES_FC
  767   783   780   770     1     60.0      2.5       DIHRES_FC
  783   780   770   765     1    -60.0      2.5       DIHRES_FC
  780   770   765   769     1     60.0      2.5       DIHRES_FC
  770   765   769   767     1    -60.0      2.5       DIHRES_FC
  792   796   794   804     1     60.0      2.5       DIHRES_FC
  796   794   804   800     1    -60.0      2.5       DIHRES_FC
  794   804   800   797     1     60.0      2.5       DIHRES_FC
  804   800   797   792     1    -60.0      2.5       DIHRES_FC
  800   797   792   796     1     60.0      2.5       DIHRES_FC
  797   792   796   794     1    -60.0      2.5       DIHRES_FC
  813   817   815   825     1    -60.0      2.5       DIHRES_FC
  817   815   825   821     1     60.0      2.5       DIHRES_FC
  815   825   821   818     1    -60.0      2.5       DIHRES_FC
  825   821   818   813     1     60.0      2.5       DIHRES_FC
  821   818   813   817     1    -60.0      2.5       DIHRES_FC
  818   813   817   815     1     60.0      2.5       DIHRES_FC
  833   837   835   844     1    -60.0      2.5       DIHRES_FC
  837   835   844   841     1     60.0      2.5       DIHRES_FC
  835   844   841   838     1    -60.0      2.5       DIHRES_FC
  844   841   838   833     1     60.0      2.5       DIHRES_FC
  841   838   833   837     1    -60.0      2.5       DIHRES_FC
  838   833   837   835     1     60.0      2.5       DIHRES_FC
  852   856   854   871     1     60.0      2.5       DIHRES_FC
  856   854   871   867     1    -60.0      2.5       DIHRES_FC
  854   871   867   857     1     60.0      2.5       DIHRES_FC
  871   867   857   852     1    -60.0      2.5       DIHRES_FC
  867   857   852   856     1     60.0      2.5       DIHRES_FC
  857   852   856   854     1    -60.0      2.5       DIHRES_FC
  880   884   882   898     1     60.0      2.5       DIHRES_FC
  884   882   898   895     1    -60.0      2.5       DIHRES_FC
  882   898   895   885     1     60.0      2.5       DIHRES_FC
  898   895   885   880     1    -60.0      2.5       DIHRES_FC
  895   885   880   884     1     60.0      2.5       DIHRES_FC
  885   880   884   882     1    -60.0      2.5       DIHRES_FC
  907   911   909   919     1     60.0      2.5       DIHRES_FC
  911   909   919   915     1    -60.0      2.5       DIHRES_FC
  909   919   915   912     1     60.0      2.5       DIHRES_FC
  919   915   912   907     1    -60.0      2.5       DIHRES_FC
  915   912   907   911     1     60.0      2.5       DIHRES_FC
  912   907   911   909     1    -60.0      2.5       DIHRES_FC
  928   932   930   940     1    -60.0      2.5       DIHRES_FC
  932   930   940   936     1     60.0      2.5       DIHRES_FC
  930   940   936   933     1    -60.0      2.5       DIHRES_FC
  940   936   933   928     1     60.0      2.5       DIHRES_FC
  936   933   928   932     1    -60.0      2.5       DIHRES_FC
  933   928   932   930     1     60.0      2.5       DIHRES_FC
  948   952   950   959     1    -60.0      2.5       DIHRES_FC
  952   950   959   956     1     60.0      2.5       DIHRES_FC
  950   959   956   953     1    -60.0      2.5       DIHRES_FC
  959   956   953   948     1     60.0      2.5       DIHRES_FC
  956   953   948   952     1    -60.0      2.5       DIHRES_FC
  953   948   952   950     1     60.0      2.5       DIHRES_FC
  967   971   969   986     1     60.0      2.5       DIHRES_FC
  971   969   986   982     1    -60.0      2.5       DIHRES_FC
  969   986   982   972     1     60.0      2.5       DIHRES_FC
  986   982   972   967     1    -60.0      2.5       DIHRES_FC
  982   972   967   971     1     60.0      2.5       DIHRES_FC
  972   967   971   969     1    -60.0      2.5       DIHRES_FC
  995   999   997  1013     1     60.0      2.5       DIHRES_FC
  999   997  1013  1010     1    -60.0      2.5       DIHRES_FC
  997  1013  1010  1000     1     60.0      2.5       DIHRES_FC
 1013  1010  1000   995     1    -60.0      2.5       DIHRES_FC
 1010  1000   995   999     1     60.0      2.5       DIHRES_FC
 1000   995   999   997     1    -60.0      2.5       DIHRES_FC
 1022  1026  1024  1034     1     60.0      2.5       DIHRES_FC
 1026  1024  1034  1030     1    -60.0      2.5       DIHRES_FC
 1024  1034  1030  1027     1     60.0      2.5       DIHRES_FC
 1034  1030  1027  1022     1    -60.0      2.5       DIHRES_FC
 1030  1027  1022  1026     1     60.0      2.5       DIHRES_FC
 1027  1022  1026  1024     1    -60.0      2.5       DIHRES_FC
 1043  1047  1045  1055     1    -60.0      2.5       DIHRES_FC
 1047  1045  1055  1051     1     60.0      2.5       DIHRES_FC
 1045  1055  1051  1048     1    -60.0      2.5       DIHRES_FC
 1055  1051  1048  1043     1     60.0      2.5       DIHRES_FC
 1051  1048  1043  1047     1    -60.0      2.5       DIHRES_FC
 1048  1043  1047  1045     1     60.0      2.5       DIHRES_FC
 1063  1067  1065  1075     1    -60.0      2.5       DIHRES_FC
 1067  1065  1075  1071     1     60.0      2.5       DIHRES_FC
 1065  1075  1071  1068     1    -60.0      2.5       DIHRES_FC
 1075  1071  1068  1063     1     60.0      2.5       DIHRES_FC
 1071  1068  1063  1067     1    -60.0      2.5       DIHRES_FC
 1068  1063  1067  1065     1     60.0      2.5       DIHRES_FC
 1083  1087  1085  1102     1     60.0      2.5       DIHRES_FC
 1087  1085  1102  1098     1    -60.0      2.5       DIHRES_FC
 1085  1102  1098  1088     1     60.0      2.5       DIHRES_FC
 1102  1098  1088  1083     1    -60.0      2.5       DIHRES_FC
 1098  1088  1083  1087     1     60.0      2.5       DIHRES_FC
 1088  1083  1087  1085     1    -60.0      2.5       DIHRES_FC
#endif
