* EQUILIBRATED WATER
*  DATE:     7/ 4/26     15:51:31      CREATED BY USER: charmm-gui
*
     21726  EXT
         1         1  TIP3      OH2           -28.3687396295      -30.4048771127      -10.4810630134  W2        1               0.0000000000
         2         1  TIP3      H1            -28.2796296295      -29.4610571127      -10.6133530134  W2        1               0.0000000000
         3         1  TIP3      H2            -29.0069796295      -30.6802371127      -11.1391230134  W2        1               0.0000000000
         4         2  TIP3      OH2           -29.4356096295      -31.1498071127       -7.0622430134  W2        2               0.0000000000
         5         2  TIP3      H1            -29.4738596295      -31.7961771127       -6.3572830134  W2        2               0.0000000000
         6         2  TIP3      H2            -29.7579596295      -31.6163671127       -7.8333730134  W2        2               0.0000000000
         7         3  TIP3      OH2           -37.0671096295      -31.5355971127       -5.4692530134  W2        3               0.0000000000
         8         3  TIP3      H1            -37.0258996295      -32.1612671127       -4.7460130134  W2        3               0.0000000000
         9         3  TIP3      H2            -36.3643396295      -30.9117371127       -5.2872130134  W2        3               0.0000000000
        10         4  TIP3      OH2           -25.7295896295      -28.2107671127       -8.7607330134  W2        4               0.0000000000
        11         4  TIP3      H1            -26.1703196295      -28.9311671127       -8.3101730134  W2        4               0.0000000000
        12         4  TIP3      H2            -25.7426196295      -27.4900471127       -8.1309630134  W2        4               0.0000000000
        13         5  TIP3      OH2           -36.1437996295      -27.0857071127       -6.9343430134  W2        5               0.0000000000
        14         5  TIP3      H1            -36.5132796295      -27.8876571127       -7.3039130134  W2        5               0.0000000000
        15         5  TIP3      H2            -35.2026896295      -27.2542171127       -6.8880030134  W2        5               0.0000000000
        16         6  TIP3      OH2           -39.5337496295      -33.4254471127      -11.5414630134  W2        6               0.0000000000
        17         6  TIP3      H1            -39.9814096295      -32.5795771127      -11.5598130134  W2        6               0.0000000000
        18         6  TIP3      H2            -40.0946296295      -34.0050271127      -12.0569530134  W2        6               0.0000000000
        19         7  TIP3      OH2           -38.8231396295      -31.2634871127       -9.4156630134  W2        7               0.0000000000
        20         7  TIP3      H1            -38.6097896295      -32.0333271127       -8.8883630134  W2        7               0.0000000000
        21         7  TIP3      H2            -38.0853796295      -31.1738171127      -10.0189030134  W2        7               0.0000000000
        22         8  TIP3      OH2           -28.6180396295      -23.1065971127       -8.5486930134  W2        8               0.0000000000
        23         8  TIP3      H1            -27.9983996295      -23.7831271127       -8.8217730134  W2        8               0.0000000000
        24         8  TIP3      H2            -28.8262996295      -23.3245171127       -7.6402030134  W2        8               0.0000000000
        25         9  TIP3      OH2           -31.0461696295      -28.7176671127       -6.6561430134  W2        9               0.0000000000
        26         9  TIP3      H1            -30.7423796295      -29.4035271127       -7.2507330134  W2        9               0.0000000000
        27         9  TIP3      H2            -30.3247696295      -28.5987971127       -6.0383430134  W2        9               0.0000000000
        28        10  TIP3      OH2           -22.3831896295      -37.1161371127       -5.7955230134  W2        10              0.0000000000
        29        10  TIP3      H1            -22.3339696295      -36.5060171127       -5.0596130134  W2        10              0.0000000000
        30        10  TIP3      H2            -21.9576796295      -36.6550471127       -6.5184130134  W2        10              0.0000000000
        31        11  TIP3      OH2           -27.9054696295      -34.3234271127       -6.3286630134  W2        11              0.0000000000
        32        11  TIP3      H1            -27.7628796295      -35.2697271127       -6.3085030134  W2        11              0.0000000000
        33        11  TIP3      H2            -28.0115696295      -34.1164471127       -7.2571730134  W2        11              0.0000000000
        34        12  TIP3      OH2           -34.7506396295      -36.2217871127       -9.0561830134  W2        12              0.0000000000
        35        12  TIP3      H1            -34.7075296295      -35.3619371127       -9.4745530134  W2        12              0.0000000000
        36        12  TIP3      H2            -35.2082296295      -36.7743171127       -9.6898630134  W2        12              0.0000000000
        37        13  TIP3      OH2           -27.0283696295      -36.0912271127      -10.6553530134  W2        13              0.0000000000
        38        13  TIP3      H1            -26.3819396295      -36.4199071127      -10.0305930134  W2        13              0.0000000000
        39        13  TIP3      H2            -26.5184296295      -35.5733271127      -11.2782130134  W2        13              0.0000000000
        40        14  TIP3      OH2           -38.1304896295      -33.8252071127       -8.2940430134  W2        14              0.0000000000
        41        14  TIP3      H1            -37.4768296295      -34.3750371127       -7.8620330134  W2        14              0.0000000000
        42        14  TIP3      H2            -38.1065596295      -34.0993071127       -9.2108430134  W2        14              0.0000000000
        43        15  TIP3      OH2           -32.9740396295      -32.2750771127       -9.0788930134  W2        15              0.0000000000
        44        15  TIP3      H1            -32.3579396295      -32.8015371127       -8.5694930134  W2        15              0.0000000000
        45        15  TIP3      H2            -33.5601596295      -32.9152071127       -9.4825330134  W2        15              0.0000000000
        46        16  TIP3      OH2           -21.9917296295      -35.6382171127       -3.5595430134  W2        16              0.0000000000
        47        16  TIP3      H1            -22.6802696295      -34.9801471127       -3.6548830134  W2        16              0.0000000000
        48        16  TIP3      H2            -21.9762696295      -35.8354271127       -2.6230030134  W2        16              0.0000000000
        49        17  TIP3      OH2           -35.9404496295      -37.3039471127       -4.9821030134  W2        17              0.0000000000
        50        17  TIP3      H1            -36.1592796295      -36.7738871127       -5.7485030134  W2        17              0.0000000000
        51        17  TIP3      H2            -36.6083596295      -37.0773971127       -4.3349630134  W2        17              0.0000000000
        52        18  TIP3      OH2           -28.5714696295      -27.8038371127      -11.4381930134  W2        18              0.0000000000
        53        18  TIP3      H1            -28.8669596295      -28.1266071127      -12.2895030134  W2        18              0.0000000000
        54        18  TIP3      H2            -28.8956896295      -26.9041671127      -11.3969330134  W2        18              0.0000000000
        55        19  TIP3      OH2           -33.3713096295      -29.6283771127       -4.6947330134  W2        19              0.0000000000
        56        19  TIP3      H1            -34.1113996295      -29.0302271127       -4.5912130134  W2        19              0.0000000000
        57        19  TIP3      H2            -32.6573596295      -29.0744171127       -5.0103730134  W2        19              0.0000000000
        58        20  TIP3      OH2           -25.2645296295      -36.8002971127       -8.6747630134  W2        20              0.0000000000
        59        20  TIP3      H1            -25.4797296295      -37.5659571127       -8.1421630134  W2        20              0.0000000000
        60        20  TIP3      H2            -24.6087896295      -36.3278371127       -8.1619130134  W2        20              0.0000000000
        61        21  TIP3      OH2           -36.3467196295      -35.4117671127       -7.0298830134  W2        21              0.0000000000
        62        21  TIP3      H1            -35.7330896295      -34.7790071127       -6.6566430134  W2        21              0.0000000000
        63        21  TIP3      H2            -35.8346496295      -35.8842671127       -7.6861930134  W2        21              0.0000000000
        64        22  TIP3      OH2           -34.9638796295      -27.6640771127       -3.9075830134  W2        22              0.0000000000
        65        22  TIP3      H1            -34.9691196295      -26.7847271127       -4.2856530134  W2        22              0.0000000000
        66        22  TIP3      H2            -35.8174696295      -27.7476671127       -3.4825930134  W2        22              0.0000000000
        67        23  TIP3      OH2           -38.8427896295      -27.9932871127      -13.1256530134  W2        23              0.0000000000
        68        23  TIP3      H1            -39.1146996295      -27.7641871127      -14.0143630134  W2        23              0.0000000000
        69        23  TIP3      H2            -38.7972196295      -27.1554071127      -12.6651230134  W2        23              0.0000000000
        70        24  TIP3      OH2           -25.2178196295      -26.3716971127       -6.4128030134  W2        24              0.0000000000
        71        24  TIP3      H1            -26.1594496295      -26.3133071127       -6.2511130134  W2        24              0.0000000000
        72        24  TIP3      H2            -24.9412096295      -25.4656471127       -6.5498330134  W2        24              0.0000000000
        73        25  TIP3      OH2           -24.9171196295      -38.0851671127       -4.9954130134  W2        25              0.0000000000
        74        25  TIP3      H1            -25.6531996295      -37.4744571127       -5.0332830134  W2        25              0.0000000000
        75        25  TIP3      H2            -24.2337196295      -37.6702671127       -5.5217730134  W2        25              0.0000000000
        76        26  TIP3      OH2           -31.9139796295      -39.9984371127       -7.5296130134  W2        26              0.0000000000
        77        26  TIP3      H1            -32.0315596295      -40.9468371127       -7.5837830134  W2        26              0.0000000000
        78        26  TIP3      H2            -32.7689696295      -39.6658271127       -7.2565030134  W2        26              0.0000000000
        79        27  TIP3      OH2           -26.9656996295      -24.5903471127       -9.7876430134  W2        27              0.0000000000
        80        27  TIP3      H1            -26.5404696295      -25.2975571127      -10.2726830134  W2        27              0.0000000000
        81        27  TIP3      H2            -26.6486996295      -23.7890771127      -10.2044230134  W2        27              0.0000000000
        82        28  TIP3      OH2           -25.8060496295      -26.6894971127      -11.2789830134  W2        28              0.0000000000
        83        28  TIP3      H1            -26.0635696295      -27.3794871127      -11.8903930134  W2        28              0.0000000000
        84        28  TIP3      H2            -25.7349696295      -27.1323771127      -10.4333930134  W2        28              0.0000000000
        85        29  TIP3      OH2           -24.1200296295      -28.1228271127       -2.8016330134  W2        29              0.0000000000
        86        29  TIP3      H1            -23.9803996295      -28.7145771127       -3.5409330134  W2        29              0.0000000000
        87        29  TIP3      H2            -23.9527496295      -27.2502371127       -3.1577530134  W2        29              0.0000000000
        88        30  TIP3      OH2           -29.6474896295      -31.1608771127      -13.0290330134  W2        30              0.0000000000
        89        30  TIP3      H1            -30.3589396295      -30.6259071127      -13.3809830134  W2        30              0.0000000000
        90        30  TIP3      H2            -28.9565296295      -31.1056671127      -13.6891430134  W2        30              0.0000000000
        91        31  TIP3      OH2           -29.5935696295      -32.7034471127      -15.9905330134  W2        31              0.0000000000
        92        31  TIP3      H1            -28.8925796295      -32.6807571127      -15.3391330134  W2        31              0.0000000000
        93        31  TIP3      H2            -29.2912796295      -33.3314771127      -16.6466030134  W2        31              0.0000000000
        94        32  TIP3      OH2           -22.2780996295      -31.7830271127       -4.7355930134  W2        32              0.0000000000
        95        32  TIP3      H1            -22.9306896295      -31.0884671127       -4.6465030134  W2        32              0.0000000000
        96        32  TIP3      H2            -21.8130696295      -31.5729371127       -5.5454330134  W2        32              0.0000000000
        97        33  TIP3      OH2           -26.2417196295      -30.9515471127      -12.0774430134  W2        33              0.0000000000
        98        33  TIP3      H1            -26.9736196295      -30.7231771127      -11.5043830134  W2        33              0.0000000000
        99        33  TIP3      H2            -25.7944996295      -31.6652771127      -11.6226930134  W2        33              0.0000000000
       100        34  TIP3      OH2           -26.3443696295      -32.7772871127       -3.0097430134  W2        34              0.0000000000
       101        34  TIP3      H1            -26.2644596295      -32.0138471127       -2.4378930134  W2        34              0.0000000000
       102        34  TIP3      H2            -26.9455996295      -32.4980471127       -3.7002330134  W2        34              0.0000000000
       103        35  TIP3      OH2           -34.5963496295      -30.3209271127      -10.1949430134  W2        35              0.0000000000
       104        35  TIP3      H1            -34.9268296295      -30.6915871127      -11.0132430134  W2        35              0.0000000000
       105        35  TIP3      H2            -34.0079396295      -30.9915271127       -9.8481130134  W2        35              0.0000000000
       106        36  TIP3      OH2           -33.2295996295      -26.8928671127       -7.5137230134  W2        36              0.0000000000
       107        36  TIP3      H1            -33.3244696295      -27.4715571127       -8.2702630134  W2        36              0.0000000000
       108        36  TIP3      H2            -32.5002396295      -27.2642971127       -7.0174430134  W2        36              0.0000000000
       109        37  TIP3      OH2           -34.2297996295      -31.5523671127       -6.5614430134  W2        37              0.0000000000
       110        37  TIP3      H1            -33.6645496295      -31.4309471127       -7.3243230134  W2        37              0.0000000000
       111        37  TIP3      H2            -33.9109096295      -30.9148671127       -5.9225930134  W2        37              0.0000000000
       112        38  TIP3      OH2           -27.9205796295      -26.0491771127       -5.8273930134  W2        38              0.0000000000
       113        38  TIP3      H1            -28.1609196295      -25.3868671127       -5.1794730134  W2        38              0.0000000000
       114        38  TIP3      H2            -28.1187596295      -26.8836571127       -5.4024330134  W2        38              0.0000000000
       115        39  TIP3      OH2           -33.3497296295      -27.1530971127       -1.8442530134  W2        39              0.0000000000
       116        39  TIP3      H1            -33.6609796295      -26.3707771127       -1.3889330134  W2        39              0.0000000000
       117        39  TIP3      H2            -33.9997096295      -27.3061871127       -2.5300530134  W2        39              0.0000000000
       118        40  TIP3      OH2           -27.3707696295      -31.7892571127      -14.3923230134  W2        40              0.0000000000
       119        40  TIP3      H1            -26.7912196295      -31.6392271127      -13.6454330134  W2        40              0.0000000000
       120        40  TIP3      H2            -26.9567696295      -31.3185171127      -15.1156830134  W2        40              0.0000000000
       121        41  TIP3      OH2           -36.4297396295      -30.9549871127       -2.6156830134  W2        41              0.0000000000
       122        41  TIP3      H1            -36.3594196295      -30.3043071127       -1.9171830134  W2        41              0.0000000000
       123        41  TIP3      H2            -37.3205196295      -30.8522371127       -2.9505930134  W2        41              0.0000000000
       124        42  TIP3      OH2           -29.6442796295      -25.0524071127      -10.9570130134  W2        42              0.0000000000
       125        42  TIP3      H1            -29.1705196295      -24.7567771127      -10.1795930134  W2        42              0.0000000000
       126        42  TIP3      H2            -30.2073496295      -24.3142471127      -11.1900530134  W2        42              0.0000000000
       127        43  TIP3      OH2           -35.1101396295      -25.0815971127       -1.0808730134  W2        43              0.0000000000
       128        43  TIP3      H1            -35.1026096295      -25.2176271127       -2.0283230134  W2        43              0.0000000000
       129        43  TIP3      H2            -36.0260996295      -25.1987871127       -0.8288730134  W2        43              0.0000000000
       130        44  TIP3      OH2           -23.6719296295      -40.0392171127      -14.5793530134  W2        44              0.0000000000
       131        44  TIP3      H1            -24.5718596295      -39.9003171127      -14.2842930134  W2        44              0.0000000000
       132        44  TIP3      H2            -23.4200896295      -39.2077571127      -14.9811830134  W2        44              0.0000000000
       133        45  TIP3      OH2           -35.6060796295      -31.2514971127      -12.6056630134  W2        45              0.0000000000
       134        45  TIP3      H1            -35.8979496295      -30.4833271127      -13.0965330134  W2        45              0.0000000000
       135        45  TIP3      H2            -36.2805596295      -31.9108771127      -12.7685230134  W2        45              0.0000000000
       136        46  TIP3      OH2           -22.4827896295      -25.6729771127      -16.2029630134  W2        46              0.0000000000
       137        46  TIP3      H1            -22.4094396295      -24.7339571127      -16.0324330134  W2        46              0.0000000000
       138        46  TIP3      H2            -21.5772796295      -25.9781171127      -16.2592330134  W2        46              0.0000000000
       139        47  TIP3      OH2           -39.5130696295      -28.8885771127       -3.7906830134  W2        47              0.0000000000
       140        47  TIP3      H1            -40.0142296295      -28.9166371127       -4.6057130134  W2        47              0.0000000000
       141        47  TIP3      H2            -39.5076996295      -29.7942571127       -3.4809530134  W2        47              0.0000000000
       142        48  TIP3      OH2           -39.7627996295      -26.1081971127       -6.9066630134  W2        48              0.0000000000
       143        48  TIP3      H1            -38.8167396295      -26.2524971127       -6.9257130134  W2        48              0.0000000000
       144        48  TIP3      H2            -39.8751696295      -25.3239171127       -6.3695430134  W2        48              0.0000000000
       145        49  TIP3      OH2           -21.5649496295      -25.4422271127       -1.2242930134  W2        49              0.0000000000
       146        49  TIP3      H1            -21.6142696295      -26.3974171127       -1.2615330134  W2        49              0.0000000000
       147        49  TIP3      H2            -22.3917196295      -25.1746971127       -0.8229130134  W2        49              0.0000000000
       148        50  TIP3      OH2           -30.5865496295      -25.8683071127       -2.3481530134  W2        50              0.0000000000
       149        50  TIP3      H1            -30.4990896295      -25.0418471127       -1.8732430134  W2        50              0.0000000000
       150        50  TIP3      H2            -31.4500396295      -26.1979271127       -2.0992230134  W2        50              0.0000000000
       151        51  TIP3      OH2           -30.1719696295      -22.0959371127      -12.5420930134  W2        51              0.0000000000
       152        51  TIP3      H1            -30.2473696295      -22.2172171127      -13.4885730134  W2        51              0.0000000000
       153        51  TIP3      H2            -30.1390996295      -21.1466671127      -12.4236330134  W2        51              0.0000000000
       154        52  TIP3      OH2           -36.5185896295      -23.3072371127      -10.7611930134  W2        52              0.0000000000
       155        52  TIP3      H1            -36.3665496295      -23.6551971127       -9.8825430134  W2        52              0.0000000000
       156        52  TIP3      H2            -37.3695496295      -23.6635071127      -11.0164730134  W2        52              0.0000000000
       157        53  TIP3      OH2           -27.0703696295      -22.9419171127      -15.5398530134  W2        53              0.0000000000
       158        53  TIP3      H1            -26.6955296295      -23.6863071127      -16.0105930134  W2        53              0.0000000000
       159        53  TIP3      H2            -27.0659996295      -23.2118571127      -14.6215230134  W2        53              0.0000000000
       160        54  TIP3      OH2           -27.4015596295      -23.0162071127      -12.7906330134  W2        54              0.0000000000
       161        54  TIP3      H1            -28.3365796295      -22.9160171127      -12.6119330134  W2        54              0.0000000000
       162        54  TIP3      H2            -27.1213696295      -23.7256071127      -12.2123130134  W2        54              0.0000000000
       163        55  TIP3      OH2           -24.4129696295      -33.9489771127       -0.7440730134  W2        55              0.0000000000
       164        55  TIP3      H1            -24.8202896295      -33.4684171127       -1.4647430134  W2        55              0.0000000000
       165        55  TIP3      H2            -24.3723996295      -34.8543771127       -1.0519930134  W2        55              0.0000000000
       166        56  TIP3      OH2           -37.2640196295      -27.5650371127       -2.7474030134  W2        56              0.0000000000
       167        56  TIP3      H1            -37.0478896295      -27.9264771127       -1.8878230134  W2        56              0.0000000000
       168        56  TIP3      H2            -38.1195496295      -27.9396571127       -2.9570530134  W2        56              0.0000000000
       169        57  TIP3      OH2           -34.6452196295      -39.0949871127       -6.7519830134  W2        57              0.0000000000
       170        57  TIP3      H1            -35.5068496295      -39.1821671127       -7.1596930134  W2        57              0.0000000000
       171        57  TIP3      H2            -34.6676496295      -38.2389771127       -6.3242230134  W2        57              0.0000000000
       172        58  TIP3      OH2           -29.9824396295      -39.3729471127       -3.3772830134  W2        58              0.0000000000
       173        58  TIP3      H1            -29.5621296295      -39.7882371127       -2.6242230134  W2        58              0.0000000000
       174        58  TIP3      H2            -30.9154796295      -39.5516171127       -3.2600830134  W2        58              0.0000000000
       175        59  TIP3      OH2           -26.6559496295      -35.6174271127       -2.5238330134  W2        59              0.0000000000
       176        59  TIP3      H1            -27.1699996295      -35.7432071127       -1.7262330134  W2        59              0.0000000000
       177        59  TIP3      H2            -26.8114796295      -34.7051171127       -2.7682130134  W2        59              0.0000000000
       178        60  TIP3      OH2           -25.8934596295      -30.7564271127      -16.7625330134  W2        60              0.0000000000
       179        60  TIP3      H1            -25.8513796295      -30.9790371127      -17.6925330134  W2        60              0.0000000000
       180        60  TIP3      H2            -25.0442496295      -30.3577171127      -16.5725430134  W2        60              0.0000000000
       181        61  TIP3      OH2           -30.3207096295      -36.8806071127      -16.0922030134  W2        61              0.0000000000
       182        61  TIP3      H1            -30.5742296295      -36.8614471127      -15.1693930134  W2        61              0.0000000000
       183        61  TIP3      H2            -30.5774996295      -37.7520671127      -16.3935830134  W2        61              0.0000000000
       184        62  TIP3      OH2           -34.5542096295      -34.1295371127       -5.6569630134  W2        62              0.0000000000
       185        62  TIP3      H1            -35.1959996295      -34.1698071127       -4.9479530134  W2        62              0.0000000000
       186        62  TIP3      H2            -34.5170096295      -33.2030671127       -5.8946630134  W2        62              0.0000000000
       187        63  TIP3      OH2           -34.5572996295      -33.9085271127      -10.7449630134  W2        63              0.0000000000
       188        63  TIP3      H1            -35.4500096295      -34.2489171127      -10.8035830134  W2        63              0.0000000000
       189        63  TIP3      H2            -34.1066396295      -34.2854371127      -11.5006430134  W2        63              0.0000000000
       190        64  TIP3      OH2           -29.0217496295      -33.4924971127      -11.9278830134  W2        64              0.0000000000
       191        64  TIP3      H1            -29.4307196295      -32.6776371127      -12.2194030134  W2        64              0.0000000000
       192        64  TIP3      H2            -28.3011296295      -33.6324871127      -12.5421730134  W2        64              0.0000000000
       193        65  TIP3      OH2           -29.9195896295      -33.3168571127       -0.4398130134  W2        65              0.0000000000
       194        65  TIP3      H1            -30.4822096295      -34.0216971127       -0.1190330134  W2        65              0.0000000000
       195        65  TIP3      H2            -29.0932496295      -33.4376671127        0.0279469866  W2        65              0.0000000000
       196        66  TIP3      OH2           -28.0169796295      -34.0464571127       -9.1139130134  W2        66              0.0000000000
       197        66  TIP3      H1            -28.2125296295      -33.4407771127       -9.8288530134  W2        66              0.0000000000
       198        66  TIP3      H2            -27.8357196295      -34.8799371127       -9.5482830134  W2        66              0.0000000000
       199        67  TIP3      OH2           -36.8041596295      -33.8091871127       -3.7897630134  W2        67              0.0000000000
       200        67  TIP3      H1            -36.8422196295      -33.4090271127       -2.9210530134  W2        67              0.0000000000
       201        67  TIP3      H2            -37.2950496295      -34.6259471127       -3.6994730134  W2        67              0.0000000000
       202        68  TIP3      OH2           -33.4384196295      -36.4349571127      -16.9911630134  W2        68              0.0000000000
       203        68  TIP3      H1            -33.8693496295      -36.8799471127      -16.2614230134  W2        68              0.0000000000
       204        68  TIP3      H2            -34.1565496295      -36.0633271127      -17.5034130134  W2        68              0.0000000000
       205        69  TIP3      OH2           -40.1960796295      -36.6930071127       -9.9392930134  W2        69              0.0000000000
       206        69  TIP3      H1            -39.5653096295      -36.7217971127       -9.2199030134  W2        69              0.0000000000
       207        69  TIP3      H2            -39.7466496295      -37.1181371127      -10.6697030134  W2        69              0.0000000000
       208        70  TIP3      OH2           -38.9218696295      -35.9468071127      -14.5152530134  W2        70              0.0000000000
       209        70  TIP3      H1            -38.4476996295      -35.3558171127      -15.1001630134  W2        70              0.0000000000
       210        70  TIP3      H2            -39.6392296295      -35.4165171127      -14.1682430134  W2        70              0.0000000000
       211        71  TIP3      OH2           -28.7530596295      -32.4083271127       -4.4426730134  W2        71              0.0000000000
       212        71  TIP3      H1            -28.4295796295      -33.0393571127       -5.0856230134  W2        71              0.0000000000
       213        71  TIP3      H2            -29.1931296295      -32.9431071127       -3.7819330134  W2        71              0.0000000000
       214        72  TIP3      OH2           -31.9757696295      -36.4807771127       -9.6585530134  W2        72              0.0000000000
       215        72  TIP3      H1            -32.8866596295      -36.4240971127       -9.3699530134  W2        72              0.0000000000
       216        72  TIP3      H2            -31.4704796295      -36.5412271127       -8.8478330134  W2        72              0.0000000000
       217        73  TIP3      OH2           -37.1474296295      -34.8521471127      -10.8317930134  W2        73              0.0000000000
       218        73  TIP3      H1            -38.0366296295      -34.7525971127      -11.1718330134  W2        73              0.0000000000
       219        73  TIP3      H2            -36.8509396295      -35.6938471127      -11.1780030134  W2        73              0.0000000000
       220        74  TIP3      OH2           -33.4942496295      -34.8518871127      -13.1753330134  W2        74              0.0000000000
       221        74  TIP3      H1            -32.5626996295      -34.7228871127      -12.9970230134  W2        74              0.0000000000
       222        74  TIP3      H2            -33.7092196295      -34.1824571127      -13.8248630134  W2        74              0.0000000000
       223        75  TIP3      OH2           -27.5705796295      -37.2461471127       -6.3943730134  W2        75              0.0000000000
       224        75  TIP3      H1            -28.2474196295      -37.1148371127       -5.7304030134  W2        75              0.0000000000
       225        75  TIP3      H2            -28.0560896295      -37.4011971127       -7.2046030134  W2        75              0.0000000000
       226        76  TIP3      OH2           -34.8202296295      -33.6576671127      -15.6087230134  W2        76              0.0000000000
       227        76  TIP3      H1            -35.3627196295      -34.0372871127      -16.2999630134  W2        76              0.0000000000
       228        76  TIP3      H2            -33.9867396295      -33.4631971127      -16.0373130134  W2        76              0.0000000000
       229        77  TIP3      OH2           -24.2830696295      -21.5746071127       -0.1176130134  W2        77              0.0000000000
       230        77  TIP3      H1            -24.0831996295      -21.1504171127       -0.9520830134  W2        77              0.0000000000
       231        77  TIP3      H2            -23.6276996295      -21.2307871127        0.4894269866  W2        77              0.0000000000
       232        78  TIP3      OH2           -36.6850896295      -29.1004771127       -0.5095630134  W2        78              0.0000000000
       233        78  TIP3      H1            -35.9528496295      -28.8458871127        0.0518869866  W2        78              0.0000000000
       234        78  TIP3      H2            -37.4652196295      -28.8959371127        0.0059769866  W2        78              0.0000000000
       235        79  TIP3      OH2           -30.6557996295      -33.6934771127       -7.7715930134  W2        79              0.0000000000
       236        79  TIP3      H1            -30.0914596295      -34.2398171127       -8.3186330134  W2        79              0.0000000000
       237        79  TIP3      H2            -30.8034596295      -34.2152871127       -6.9828330134  W2        79              0.0000000000
       238        80  TIP3      OH2           -35.6538296295      -37.5568671127      -11.3531130134  W2        80              0.0000000000
       239        80  TIP3      H1            -35.9708796295      -38.4593371127      -11.3885730134  W2        80              0.0000000000
       240        80  TIP3      H2            -34.8724196295      -37.5551271127      -11.9059530134  W2        80              0.0000000000
       241        81  TIP3      OH2           -32.0292096295      -35.3048671127       -5.3575530134  W2        81              0.0000000000
       242        81  TIP3      H1            -32.8646796295      -34.8509171127       -5.2473130134  W2        81              0.0000000000
       243        81  TIP3      H2            -31.5051496295      -35.0290171127       -4.6055630134  W2        81              0.0000000000
       244        82  TIP3      OH2           -31.4849496295      -29.0920971127      -13.6729130134  W2        82              0.0000000000
       245        82  TIP3      H1            -32.2298496295      -29.5995671127      -13.9951230134  W2        82              0.0000000000
       246        82  TIP3      H2            -31.6192296295      -29.0432971127      -12.7264330134  W2        82              0.0000000000
       247        83  TIP3      OH2           -24.3350596295      -29.9592771127       -4.8861530134  W2        83              0.0000000000
       248        83  TIP3      H1            -23.6931796295      -29.5026471127       -5.4299330134  W2        83              0.0000000000
       249        83  TIP3      H2            -25.1653696295      -29.8460371127       -5.3487430134  W2        83              0.0000000000
       250        84  TIP3      OH2           -27.5872696295      -36.2781071127      -15.4736530134  W2        84              0.0000000000
       251        84  TIP3      H1            -28.5258496295      -36.1665471127      -15.6247730134  W2        84              0.0000000000
       252        84  TIP3      H2            -27.2900596295      -35.4214171127      -15.1670830134  W2        84              0.0000000000
       253        85  TIP3      OH2           -29.9657396295      -28.9077671127       -2.4360030134  W2        85              0.0000000000
       254        85  TIP3      H1            -30.3111296295      -29.2895271127       -1.6290430134  W2        85              0.0000000000
       255        85  TIP3      H2            -30.1657296295      -27.9744071127       -2.3647130134  W2        85              0.0000000000
       256        86  TIP3      OH2           -26.8689196295      -34.4108371127      -13.8129130134  W2        86              0.0000000000
       257        86  TIP3      H1            -25.9770196295      -34.5483371127      -13.4937930134  W2        86              0.0000000000
       258        86  TIP3      H2            -26.8125596295      -33.6202271127      -14.3495630134  W2        86              0.0000000000
       259        87  TIP3      OH2           -36.3601196295      -29.7970971127       -7.9031230134  W2        87              0.0000000000
       260        87  TIP3      H1            -35.6153996295      -29.7995271127       -8.5044730134  W2        87              0.0000000000
       261        87  TIP3      H2            -36.2824596295      -30.6207171127       -7.4216130134  W2        87              0.0000000000
       262        88  TIP3      OH2           -29.3595396295      -27.6336671127      -14.6474530134  W2        88              0.0000000000
       263        88  TIP3      H1            -29.6546996295      -26.8068771127      -14.2659730134  W2        88              0.0000000000
       264        88  TIP3      H2            -30.0625396295      -28.2529771127      -14.4513130134  W2        88              0.0000000000
       265        89  TIP3      OH2           -39.3521496295      -31.3364071127       -2.5882730134  W2        89              0.0000000000
       266        89  TIP3      H1            -39.1292896295      -31.7544471127       -1.7565230134  W2        89              0.0000000000
       267        89  TIP3      H2            -39.9541396295      -31.9489071127       -3.0109930134  W2        89              0.0000000000
       268        90  TIP3      OH2           -32.3356596295      -31.8194171127       -0.3753030134  W2        90              0.0000000000
       269        90  TIP3      H1            -32.6315796295      -31.9851171127       -1.2703930134  W2        90              0.0000000000
       270        90  TIP3      H2            -31.4041396295      -32.0393871127       -0.3859130134  W2        90              0.0000000000
       271        91  TIP3      OH2           -27.7153796295      -26.4462171127       -2.4855030134  W2        91              0.0000000000
       272        91  TIP3      H1            -28.6159496295      -26.2629571127       -2.7531130134  W2        91              0.0000000000
       273        91  TIP3      H2            -27.6812696295      -26.1872871127       -1.5646230134  W2        91              0.0000000000
       274        92  TIP3      OH2           -21.9840496295      -34.2014271127      -14.1182430134  W2        92              0.0000000000
       275        92  TIP3      H1            -22.5384196295      -34.5976271127      -14.7904930134  W2        92              0.0000000000
       276        92  TIP3      H2            -21.8836896295      -33.2909071127      -14.3959130134  W2        92              0.0000000000
       277        93  TIP3      OH2           -22.0208496295      -28.4012571127       -1.2810930134  W2        93              0.0000000000
       278        93  TIP3      H1            -22.8719996295      -28.1628771127       -1.6484530134  W2        93              0.0000000000
       279        93  TIP3      H2            -21.4305096295      -28.4179371127       -2.0343830134  W2        93              0.0000000000
       280        94  TIP3      OH2           -23.6888796295      -25.4153871127      -13.6530330134  W2        94              0.0000000000
       281        94  TIP3      H1            -24.0617696295      -26.2410071127      -13.3439730134  W2        94              0.0000000000
       282        94  TIP3      H2            -23.4115296295      -25.5984471127      -14.5506930134  W2        94              0.0000000000
       283        95  TIP3      OH2           -26.5284896295      -30.6074371127       -6.6318430134  W2        95              0.0000000000
       284        95  TIP3      H1            -27.4567996295      -30.8392471127       -6.6589130134  W2        95              0.0000000000
       285        95  TIP3      H2            -26.0773796295      -31.3844571127       -6.9619630134  W2        95              0.0000000000
       286        96  TIP3      OH2           -33.9851796295      -26.2792771127      -10.4989730134  W2        96              0.0000000000
       287        96  TIP3      H1            -33.4579596295      -25.5058371127      -10.6990930134  W2        96              0.0000000000
       288        96  TIP3      H2            -34.8653296295      -26.0543571127      -10.8005730134  W2        96              0.0000000000
       289        97  TIP3      OH2           -38.2304096295      -31.4168671127      -15.9117330134  W2        97              0.0000000000
       290        97  TIP3      H1            -37.6144196295      -30.7901471127      -15.5322530134  W2        97              0.0000000000
       291        97  TIP3      H2            -39.0921496295      -31.1008871127      -15.6400830134  W2        97              0.0000000000
       292        98  TIP3      OH2           -32.5579496295      -28.6162871127      -10.9225430134  W2        98              0.0000000000
       293        98  TIP3      H1            -32.7989496295      -27.6908471127      -10.8810130134  W2        98              0.0000000000
       294        98  TIP3      H2            -33.2985896295      -29.0751571127      -10.5261530134  W2        98              0.0000000000
       295        99  TIP3      OH2           -32.0432896295      -24.4669271127       -4.6074330134  W2        99              0.0000000000
       296        99  TIP3      H1            -31.6808196295      -23.6123671127       -4.8409930134  W2        99              0.0000000000
       297        99  TIP3      H2            -31.5117696295      -24.7587671127       -3.8668030134  W2        99              0.0000000000
       298       100  TIP3      OH2           -33.8748696295      -23.5945271127      -11.3773230134  W2        100             0.0000000000
       299       100  TIP3      H1            -34.8248196295      -23.4887871127      -11.3259930134  W2        100             0.0000000000
       300       100  TIP3      H2            -33.5230596295      -22.7737871127      -11.0325730134  W2        100             0.0000000000
       301       101  TIP3      OH2           -28.4992096295      -28.3678571127       -4.9068730134  W2        101             0.0000000000
       302       101  TIP3      H1            -28.9250796295      -28.5956871127       -4.0804730134  W2        101             0.0000000000
       303       101  TIP3      H2            -27.9186296295      -29.1066771127       -5.0893430134  W2        101             0.0000000000
       304       102  TIP3      OH2           -26.2963196295      -27.4388071127      -15.8329730134  W2        102             0.0000000000
       305       102  TIP3      H1            -25.9430096295      -27.8188271127      -15.0286230134  W2        102             0.0000000000
       306       102  TIP3      H2            -27.2449696295      -27.5323271127      -15.7460430134  W2        102             0.0000000000
       307       103  TIP3      OH2           -25.8407896295      -23.8159071127       -2.4373930134  W2        103             0.0000000000
       308       103  TIP3      H1            -26.4424696295      -24.3716171127       -2.9327630134  W2        103             0.0000000000
       309       103  TIP3      H2            -25.5594196295      -23.1489271127       -3.0636530134  W2        103             0.0000000000
       310       104  TIP3      OH2           -21.7928796295      -22.9595571127      -15.6319530134  W2        104             0.0000000000
       311       104  TIP3      H1            -21.0490896295      -22.3735071127      -15.7717930134  W2        104             0.0000000000
       312       104  TIP3      H2            -22.4870696295      -22.3909771127      -15.2987130134  W2        104             0.0000000000
       313       105  TIP3      OH2           -37.7181996295      -36.5831371127       -3.0301330134  W2        105             0.0000000000
       314       105  TIP3      H1            -38.6109696295      -36.2445971127       -3.0977330134  W2        105             0.0000000000
       315       105  TIP3      H2            -37.8169196295      -37.4385271127       -2.6120530134  W2        105             0.0000000000
       316       106  TIP3      OH2           -25.4303896295      -28.7666071127      -13.6061830134  W2        106             0.0000000000
       317       106  TIP3      H1            -25.7076296295      -29.4946771127      -13.0500730134  W2        106             0.0000000000
       318       106  TIP3      H2            -24.5030896295      -28.6474071127      -13.4009230134  W2        106             0.0000000000
       319       107  TIP3      OH2           -38.0669996295      -24.7786971127       -4.5951930134  W2        107             0.0000000000
       320       107  TIP3      H1            -37.8499696295      -25.7104571127       -4.6262230134  W2        107             0.0000000000
       321       107  TIP3      H2            -37.8206496295      -24.5041971127       -3.7119130134  W2        107             0.0000000000
       322       108  TIP3      OH2           -32.2055396295      -26.3271971127      -17.3859730134  W2        108             0.0000000000
       323       108  TIP3      H1            -31.9665596295      -27.0753871127      -17.9330830134  W2        108             0.0000000000
       324       108  TIP3      H2            -32.4744096295      -26.7150271127      -16.5531930134  W2        108             0.0000000000
       325       109  TIP3      OH2           -33.2684796295      -26.7568171127      -14.9297130134  W2        109             0.0000000000
       326       109  TIP3      H1            -33.1216796295      -27.2768371127      -14.1396230134  W2        109             0.0000000000
       327       109  TIP3      H2            -33.2713096295      -25.8500571127      -14.6231230134  W2        109             0.0000000000
       328       110  TIP3      OH2           -36.8153696295      -29.5044871127      -14.4191730134  W2        110             0.0000000000
       329       110  TIP3      H1            -37.5014396295      -29.1522371127      -13.8522030134  W2        110             0.0000000000
       330       110  TIP3      H2            -36.2925796295      -28.7415271127      -14.6657430134  W2        110             0.0000000000
       331       111  TIP3      OH2           -28.9838596295      -36.8421071127       -4.1402730134  W2        111             0.0000000000
       332       111  TIP3      H1            -28.2850696295      -36.7682371127       -3.4903030134  W2        111             0.0000000000
       333       111  TIP3      H2            -29.3647196295      -37.7066071127       -3.9859830134  W2        111             0.0000000000
       334       112  TIP3      OH2           -28.1993696295      -37.1899371127      -13.0430430134  W2        112             0.0000000000
       335       112  TIP3      H1            -27.9795396295      -36.7183971127      -13.8465030134  W2        112             0.0000000000
       336       112  TIP3      H2            -27.6409696295      -36.7956771127      -12.3729830134  W2        112             0.0000000000
       337       113  TIP3      OH2           -30.5307596295      -25.0594571127      -14.1802930134  W2        113             0.0000000000
       338       113  TIP3      H1            -31.3471496295      -24.5624871127      -14.1278630134  W2        113             0.0000000000
       339       113  TIP3      H2            -30.0011296295      -24.5841071127      -14.8204130134  W2        113             0.0000000000
       340       114  TIP3      OH2           -30.9993796295      -35.4620571127      -12.2082030134  W2        114             0.0000000000
       341       114  TIP3      H1            -30.1871196295      -34.9577371127      -12.1620330134  W2        114             0.0000000000
       342       114  TIP3      H2            -31.2440796295      -35.6070871127      -11.2942430134  W2        114             0.0000000000
       343       115  TIP3      OH2           -30.4637396295      -34.4757871127       -3.0235430134  W2        115             0.0000000000
       344       115  TIP3      H1            -30.3447096295      -33.9022471127       -2.2665030134  W2        115             0.0000000000
       345       115  TIP3      H2            -29.8082796295      -35.1638471127       -2.9087630134  W2        115             0.0000000000
       346       116  TIP3      OH2           -30.1157096295      -38.3807571127      -11.2700930134  W2        116             0.0000000000
       347       116  TIP3      H1            -30.4623596295      -37.7636971127      -10.6256630134  W2        116             0.0000000000
       348       116  TIP3      H2            -29.4570196295      -37.8801871127      -11.7515430134  W2        116             0.0000000000
       349       117  TIP3      OH2           -33.1924496295      -24.0157371127      -14.1986030134  W2        117             0.0000000000
       350       117  TIP3      H1            -33.0315796295      -23.2159871127      -14.6993430134  W2        117             0.0000000000
       351       117  TIP3      H2            -33.3896696295      -23.7091371127      -13.3135430134  W2        117             0.0000000000
       352       118  TIP3      OH2           -34.4580096295      -37.3178171127      -14.5828430134  W2        118             0.0000000000
       353       118  TIP3      H1            -34.5415296295      -36.4295071127      -14.2362030134  W2        118             0.0000000000
       354       118  TIP3      H2            -33.5679796295      -37.5831471127      -14.3511630134  W2        118             0.0000000000
       355       119  TIP3      OH2           -24.2591596295      -36.5687571127       -2.1885730134  W2        119             0.0000000000
       356       119  TIP3      H1            -25.1755796295      -36.3065871127       -2.2762030134  W2        119             0.0000000000
       357       119  TIP3      H2            -23.9236596295      -36.5718571127       -3.0850430134  W2        119             0.0000000000
       358       120  TIP3      OH2           -25.6570596295      -32.8186571127       -8.0928430134  W2        120             0.0000000000
       359       120  TIP3      H1            -26.4546196295      -33.2336371127       -8.4213430134  W2        120             0.0000000000
       360       120  TIP3      H2            -25.2119496295      -33.5092871127       -7.6017930134  W2        120             0.0000000000
       361       121  TIP3      OH2           -36.1994796295      -26.8905971127      -15.5223930134  W2        121             0.0000000000
       362       121  TIP3      H1            -35.6073296295      -26.1911171127      -15.2461530134  W2        121             0.0000000000
       363       121  TIP3      H2            -35.7401796295      -27.3236471127      -16.2419330134  W2        121             0.0000000000
       364       122  TIP3      OH2           -37.8835596295      -34.2262971127      -16.4064530134  W2        122             0.0000000000
       365       122  TIP3      H1            -37.9282996295      -33.2869871127      -16.2277530134  W2        122             0.0000000000
       366       122  TIP3      H2            -38.7712396295      -34.4618071127      -16.6762430134  W2        122             0.0000000000
       367       123  TIP3      OH2           -24.5705996295      -23.5624071127       -6.4704930134  W2        123             0.0000000000
       368       123  TIP3      H1            -24.7261696295      -22.8839671127       -7.1275630134  W2        123             0.0000000000
       369       123  TIP3      H2            -23.6379596295      -23.4904771127       -6.2674330134  W2        123             0.0000000000
       370       124  TIP3      OH2           -37.0753596295      -39.4446371127       -7.7333530134  W2        124             0.0000000000
       371       124  TIP3      H1            -37.3043796295      -39.3853871127       -8.6608530134  W2        124             0.0000000000
       372       124  TIP3      H2            -37.5180196295      -40.2360871127       -7.4269430134  W2        124             0.0000000000
       373       125  TIP3      OH2           -38.1450296295      -25.5039271127      -11.5727730134  W2        125             0.0000000000
       374       125  TIP3      H1            -38.9771696295      -25.0316571127      -11.5456330134  W2        125             0.0000000000
       375       125  TIP3      H2            -37.5991996295      -24.9941671127      -12.1714630134  W2        125             0.0000000000
       376       126  TIP3      OH2           -38.8566596295      -22.8915571127       -0.2429730134  W2        126             0.0000000000
       377       126  TIP3      H1            -38.3164396295      -23.1081571127        0.5169469866  W2        126             0.0000000000
       378       126  TIP3      H2            -39.3378596295      -23.6969571127       -0.4327230134  W2        126             0.0000000000
       379       127  TIP3      OH2           -34.2593196295      -23.9721171127        1.3774469866  W2        127             0.0000000000
       380       127  TIP3      H1            -33.4915996295      -24.4310371127        1.7183669866  W2        127             0.0000000000
       381       127  TIP3      H2            -34.2806996295      -24.1981371127        0.4475669866  W2        127             0.0000000000
       382       128  TIP3      OH2           -30.1673596295      -24.4640571127      -17.2473730134  W2        128             0.0000000000
       383       128  TIP3      H1            -30.8112596295      -25.0951971127      -16.9260030134  W2        128             0.0000000000
       384       128  TIP3      H2            -29.4055296295      -24.9952571127      -17.4790230134  W2        128             0.0000000000
       385       129  TIP3      OH2           -27.6824496295      -25.5920071127        0.1065969866  W2        129             0.0000000000
       386       129  TIP3      H1            -28.0334996295      -26.4487071127        0.3496369866  W2        129             0.0000000000
       387       129  TIP3      H2            -26.9561296295      -25.4493371127        0.7134969866  W2        129             0.0000000000
       388       130  TIP3      OH2           -25.5630696295      -24.6470671127      -17.0135730134  W2        130             0.0000000000
       389       130  TIP3      H1            -25.2800296295      -25.4415471127      -16.5608830134  W2        130             0.0000000000
       390       130  TIP3      H2            -24.8232796295      -24.4139671127      -17.5744630134  W2        130             0.0000000000
       391       131  TIP3      OH2           -38.9497096295      -29.0811471127        0.7114569866  W2        131             0.0000000000
       392       131  TIP3      H1            -38.8056596295      -29.9830771127        0.4251269866  W2        131             0.0000000000
       393       131  TIP3      H2            -39.7219696295      -28.7949371127        0.2236869866  W2        131             0.0000000000
       394       132  TIP3      OH2           -34.6083396295      -28.7375771127      -17.1560830134  W2        132             0.0000000000
       395       132  TIP3      H1            -34.5439296295      -29.5316171127      -16.6254430134  W2        132             0.0000000000
       396       132  TIP3      H2            -33.9554196295      -28.8562971127      -17.8458830134  W2        132             0.0000000000
       397       133  TIP3      OH2           -32.2940996295      -29.1113371127        0.1440969866  W2        133             0.0000000000
       398       133  TIP3      H1            -32.6227196295      -28.8405271127       -0.7131630134  W2        133             0.0000000000
       399       133  TIP3      H2            -32.1422796295      -30.0523571127        0.0565969866  W2        133             0.0000000000
       400       134  TIP3      OH2           -29.2559996295      -27.6904071127      -17.4202830134  W2        134             0.0000000000
       401       134  TIP3      H1            -29.5245896295      -27.5101971127      -16.5193930134  W2        134             0.0000000000
       402       134  TIP3      H2            -29.4624396295      -28.6157871127      -17.5517030134  W2        134             0.0000000000
       403       135  TIP3      OH2           -26.5595796295      -29.1956071127       -2.4726730134  W2        135             0.0000000000
       404       135  TIP3      H1            -25.8140996295      -28.6072371127       -2.5922730134  W2        135             0.0000000000
       405       135  TIP3      H2            -27.3168996295      -28.6136371127       -2.4093630134  W2        135             0.0000000000
       406       136  TIP3      OH2           -38.1170596295      -31.8808171127        0.1313869866  W2        136             0.0000000000
       407       136  TIP3      H1            -37.7089396295      -32.7381571127        0.0104469866  W2        136             0.0000000000
       408       136  TIP3      H2            -38.3772996295      -31.8666871127        1.0524169866  W2        136             0.0000000000
       409       137  TIP3      OH2           -33.4589596295      -30.7649571127      -14.8502830134  W2        137             0.0000000000
       410       137  TIP3      H1            -33.9187596295      -31.2491271127      -14.1644330134  W2        137             0.0000000000
       411       137  TIP3      H2            -33.2040896295      -31.4334171127      -15.4862330134  W2        137             0.0000000000
       412       138  TIP3      OH2           -34.1700296295      -32.8722471127       -2.4943230134  W2        138             0.0000000000
       413       138  TIP3      H1            -34.7884196295      -32.1975871127       -2.2138530134  W2        138             0.0000000000
       414       138  TIP3      H2            -33.8259096295      -32.5508571127       -3.3277030134  W2        138             0.0000000000
       415       139  TIP3      OH2           -32.3879196295      -32.5217771127      -16.5879630134  W2        139             0.0000000000
       416       139  TIP3      H1            -32.5684196295      -32.6766571127      -17.5151330134  W2        139             0.0000000000
       417       139  TIP3      H2            -31.4378696295      -32.4139071127      -16.5431730134  W2        139             0.0000000000
       418       140  TIP3      OH2           -29.1502096295      -30.4007171127        0.7831569866  W2        140             0.0000000000
       419       140  TIP3      H1            -28.1970896295      -30.3168071127        0.7557569866  W2        140             0.0000000000
       420       140  TIP3      H2            -29.3107496295      -31.1125371127        1.4026469866  W2        140             0.0000000000
       421       141  TIP3      OH2           -22.9980896295      -30.1673571127      -17.1421530134  W2        141             0.0000000000
       422       141  TIP3      H1            -23.2716096295      -30.5918071127      -17.9553230134  W2        141             0.0000000000
       423       141  TIP3      H2            -22.9586796295      -29.2359071127      -17.3591130134  W2        141             0.0000000000
       424       142  TIP3      OH2           -33.8306596295      -35.5171671127       -1.4120130134  W2        142             0.0000000000
       425       142  TIP3      H1            -33.6805696295      -36.2460371127       -2.0140430134  W2        142             0.0000000000
       426       142  TIP3      H2            -33.8284196295      -34.7399971127       -1.9707930134  W2        142             0.0000000000
       427       143  TIP3      OH2           -33.4180896295      -37.1475871127       -3.9192730134  W2        143             0.0000000000
       428       143  TIP3      H1            -32.8823396295      -36.6959171127       -4.5713430134  W2        143             0.0000000000
       429       143  TIP3      H2            -34.2701296295      -37.2556071127       -4.3418630134  W2        143             0.0000000000
       430       144  TIP3      OH2           -31.8362496295      -31.7079671127       -3.6797530134  W2        144             0.0000000000
       431       144  TIP3      H1            -31.0857696295      -31.8642171127       -4.2529730134  W2        144             0.0000000000
       432       144  TIP3      H2            -32.1754196295      -30.8563071127       -3.9552030134  W2        144             0.0000000000
       433       145  TIP3      OH2           -27.4206296295      -33.8927871127        1.3487769866  W2        145             0.0000000000
       434       145  TIP3      H1            -27.2284996295      -34.8238471127        1.2372269866  W2        145             0.0000000000
       435       145  TIP3      H2            -26.5629996295      -33.4678371127        1.3383169866  W2        145             0.0000000000
       436       146  TIP3      OH2           -26.1039096295      -31.1042671127       -0.5739530134  W2        146             0.0000000000
       437       146  TIP3      H1            -26.3854096295      -30.3948071127       -1.1515730134  W2        146             0.0000000000
       438       146  TIP3      H2            -25.1614796295      -31.1769671127       -0.7248330134  W2        146             0.0000000000
       439       147  TIP3      OH2           -35.3520296295      -34.3188171127        0.4995469866  W2        147             0.0000000000
       440       147  TIP3      H1            -36.1191296295      -34.8513371127        0.2893069866  W2        147             0.0000000000
       441       147  TIP3      H2            -34.6731296295      -34.6287771127       -0.0998230134  W2        147             0.0000000000
       442       148  TIP3      OH2           -32.6125396295      -39.6910171127       -3.4879130134  W2        148             0.0000000000
       443       148  TIP3      H1            -32.7105796295      -38.7446971127       -3.5932930134  W2        148             0.0000000000
       444       148  TIP3      H2            -33.3549196295      -40.0636371127       -3.9635630134  W2        148             0.0000000000
       445       149  TIP3      OH2           -31.3484896295      -35.3694771127        0.0759269866  W2        149             0.0000000000
       446       149  TIP3      H1            -31.5839496295      -35.5888071127        0.9774169866  W2        149             0.0000000000
       447       149  TIP3      H2            -32.1317996295      -35.5763571127       -0.4338230134  W2        149             0.0000000000
       448       150  TIP3      OH2           -28.6328296295      -36.2421271127       -0.8487230134  W2        150             0.0000000000
       449       150  TIP3      H1            -29.5802896295      -36.2101571127       -0.7163930134  W2        150             0.0000000000
       450       150  TIP3      H2            -28.3201596295      -36.8674171127       -0.1949030134  W2        150             0.0000000000
       451       151  TIP3      OH2           -26.9986796295      -37.6080171127        1.1564669866  W2        151             0.0000000000
       452       151  TIP3      H1            -27.0954996295      -38.5602871127        1.1506569866  W2        151             0.0000000000
       453       151  TIP3      H2            -27.3203696295      -37.3393371127        2.0170169866  W2        151             0.0000000000
       454       152  TIP3      OH2           -37.1717496295      -36.3984371127        0.2040169866  W2        152             0.0000000000
       455       152  TIP3      H1            -36.9600096295      -37.1048271127       -0.4062330134  W2        152             0.0000000000
       456       152  TIP3      H2            -37.2829996295      -36.8358371127        1.0481369866  W2        152             0.0000000000
       457       153  TIP3      OH2           -32.3907296295      -40.3972771127       -0.8166330134  W2        153             0.0000000000
       458       153  TIP3      H1            -31.6788896295      -41.0370571127       -0.8307230134  W2        153             0.0000000000
       459       153  TIP3      H2            -32.4916896295      -40.1304471127       -1.7303230134  W2        153             0.0000000000
       460       154  TIP3      OH2           -32.0369796295      -38.7144371127        1.2369969866  W2        154             0.0000000000
       461       154  TIP3      H1            -32.1687596295      -39.1900571127        0.4168469866  W2        154             0.0000000000
       462       154  TIP3      H2            -32.6362396295      -37.9700771127        1.1817069866  W2        154             0.0000000000
       463       155  TIP3      OH2           -32.4907496295      -21.8314071127      -15.5866030134  W2        155             0.0000000000
       464       155  TIP3      H1            -31.5576796295      -21.6735371127      -15.4427630134  W2        155             0.0000000000
       465       155  TIP3      H2            -32.7548696295      -21.1561071127      -16.2114530134  W2        155             0.0000000000
       466       156  TIP3      OH2           -38.9222596295      -27.1950271127      -16.1037930134  W2        156             0.0000000000
       467       156  TIP3      H1            -38.0083396295      -27.1161371127      -15.8304030134  W2        156             0.0000000000
       468       156  TIP3      H2            -38.9149496295      -27.8820671127      -16.7702330134  W2        156             0.0000000000
       469       157  TIP3      OH2           -40.2731996295      -21.8021771127      -11.0264030134  W2        157             0.0000000000
       470       157  TIP3      H1            -40.9204896295      -22.2640071127      -11.5592830134  W2        157             0.0000000000
       471       157  TIP3      H2            -39.9187396295      -22.4738471127      -10.4437830134  W2        157             0.0000000000
       472       158  TIP3      OH2           -39.4032796295      -23.7214771127       -9.2217830134  W2        158             0.0000000000
       473       158  TIP3      H1            -39.7375996295      -24.6017471127       -9.0497630134  W2        158             0.0000000000
       474       158  TIP3      H2            -39.1810396295      -23.3759771127       -8.3572230134  W2        158             0.0000000000
       475       159  TIP3      OH2           -21.8547996295      -22.9118371127       -6.2413030134  W2        159             0.0000000000
       476       159  TIP3      H1            -21.8761296295      -22.7269971127       -5.3023630134  W2        159             0.0000000000
       477       159  TIP3      H2            -21.1641796295      -22.3434371127       -6.5821630134  W2        159             0.0000000000
       478       160  TIP3      OH2           -22.2915096295      -23.3447271127       -3.3193930134  W2        160             0.0000000000
       479       160  TIP3      H1            -22.7786396295      -24.0803171127       -3.6906530134  W2        160             0.0000000000
       480       160  TIP3      H2            -21.7422396295      -23.7383371127       -2.6414530134  W2        160             0.0000000000
       481       161  TIP3      OH2           -23.8407796295      -27.5549171127        1.3186369866  W2        161             0.0000000000
       482       161  TIP3      H1            -24.7066696295      -27.6599471127        1.7128669866  W2        161             0.0000000000
       483       161  TIP3      H2            -23.4641896295      -26.7965871127        1.7651069866  W2        161             0.0000000000
       484       162  TIP3      OH2           -22.5398096295      -29.2985471127      -13.1671130134  W2        162             0.0000000000
       485       162  TIP3      H1            -21.6896696295      -28.8774571127      -13.0399530134  W2        162             0.0000000000
       486       162  TIP3      H2            -22.5342996295      -30.0385371127      -12.5599730134  W2        162             0.0000000000
       487       163  TIP3      OH2           -22.1452496295      -31.2448071127      -11.3435430134  W2        163             0.0000000000
       488       163  TIP3      H1            -22.8717896295      -31.7245471127      -10.9457830134  W2        163             0.0000000000
       489       163  TIP3      H2            -21.5639196295      -31.0393371127      -10.6113830134  W2        163             0.0000000000
       490       164  TIP3      OH2           -22.3861296295      -28.4600571127       -6.3957830134  W2        164             0.0000000000
       491       164  TIP3      H1            -21.5527096295      -28.8380571127       -6.6764230134  W2        164             0.0000000000
       492       164  TIP3      H2            -22.2740996295      -27.5169371127       -6.5148730134  W2        164             0.0000000000
       493       165  TIP3      OH2           -23.8998996295      -25.5823071127       -4.0889430134  W2        165             0.0000000000
       494       165  TIP3      H1            -24.5473696295      -25.2571571127       -3.4634230134  W2        165             0.0000000000
       495       165  TIP3      H2            -24.4174996295      -26.0225371127       -4.7631130134  W2        165             0.0000000000
       496       166  TIP3      OH2           -21.8769396295      -31.3439571127      -14.9524130134  W2        166             0.0000000000
       497       166  TIP3      H1            -22.3988296295      -30.9875471127      -15.6713230134  W2        166             0.0000000000
       498       166  TIP3      H2            -21.9100196295      -30.6691771127      -14.2743230134  W2        166             0.0000000000
       499       167  TIP3      OH2           -23.5280396295      -34.1043971127      -16.4017030134  W2        167             0.0000000000
       500       167  TIP3      H1            -23.4315996295      -33.4376971127      -17.0817330134  W2        167             0.0000000000
       501       167  TIP3      H2            -23.6680796295      -34.9197671127      -16.8831530134  W2        167             0.0000000000
       502       168  TIP3      OH2           -24.3585696295      -32.7241571127      -10.7806730134  W2        168             0.0000000000
       503       168  TIP3      H1            -24.5086896295      -33.6692971127      -10.8008930134  W2        168             0.0000000000
       504       168  TIP3      H2            -24.7121196295      -32.4430171127       -9.9367630134  W2        168             0.0000000000
       505       169  TIP3      OH2           -39.3233296295      -30.6459371127       -6.7702930134  W2        169             0.0000000000
       506       169  TIP3      H1            -39.1390396295      -30.7277671127       -7.7060030134  W2        169             0.0000000000
       507       169  TIP3      H2            -38.4740396295      -30.7702371127       -6.3466530134  W2        169             0.0000000000
       508       170  TIP3      OH2           -23.5022796295      -30.7538271127       -1.1418430134  W2        170             0.0000000000
       509       170  TIP3      H1            -22.9195496295      -31.4885971127       -0.9501230134  W2        170             0.0000000000
       510       170  TIP3      H2            -22.9383496295      -29.9817971127       -1.0952630134  W2        170             0.0000000000
       511       171  TIP3      OH2           -22.0055696295      -32.8512471127       -0.4573030134  W2        171             0.0000000000
       512       171  TIP3      H1            -22.8688996295      -33.2300371127       -0.6228330134  W2        171             0.0000000000
       513       171  TIP3      H2            -21.4011996295      -33.5897671127       -0.5317230134  W2        171             0.0000000000
       514       172  TIP3      OH2           -24.2806596295      -36.6964171127      -17.2841530134  W2        172             0.0000000000
       515       172  TIP3      H1            -23.6700796295      -37.0677371127      -16.6473330134  W2        172             0.0000000000
       516       172  TIP3      H2            -25.1175096295      -37.1177271127      -17.0881530134  W2        172             0.0000000000
       517       173  TIP3      OH2           -24.6480896295      -35.1415771127      -12.3181630134  W2        173             0.0000000000
       518       173  TIP3      H1            -24.3683796295      -36.0485371127      -12.1939930134  W2        173             0.0000000000
       519       173  TIP3      H2            -23.8889196295      -34.7074271127      -12.7072430134  W2        173             0.0000000000
       520       174  TIP3      OH2           -24.0362596295      -34.5598371127       -6.8822730134  W2        174             0.0000000000
       521       174  TIP3      H1            -23.1034596295      -34.3478471127       -6.9166730134  W2        174             0.0000000000
       522       174  TIP3      H2            -24.2715096295      -34.4586271127       -5.9599730134  W2        174             0.0000000000
       523       175  TIP3      OH2           -24.0070696295      -33.8233071127       -4.1063330134  W2        175             0.0000000000
       524       175  TIP3      H1            -24.8499396295      -33.5552671127       -3.7403530134  W2        175             0.0000000000
       525       175  TIP3      H2            -23.5646396295      -33.0011171127       -4.3172230134  W2        175             0.0000000000
       526       176  TIP3      OH2           -39.7258496295      -35.3754371127       -0.6294130134  W2        176             0.0000000000
       527       176  TIP3      H1            -38.8063596295      -35.4976071127       -0.3931030134  W2        176             0.0000000000
       528       176  TIP3      H2            -40.1753996295      -36.1254671127       -0.2400630134  W2        176             0.0000000000
       529       177  TIP3      OH2           -21.7239096295      -39.8432871127        1.2471669866  W2        177             0.0000000000
       530       177  TIP3      H1            -21.3742096295      -40.4969371127        0.6416369866  W2        177             0.0000000000
       531       177  TIP3      H2            -21.5769596295      -39.0058771127        0.8074269866  W2        177             0.0000000000
       532       178  TIP3      OH2           -24.0346096295      -37.8786471127      -12.2699630134  W2        178             0.0000000000
       533       178  TIP3      H1            -23.8521096295      -38.3274971127      -11.4444630134  W2        178             0.0000000000
       534       178  TIP3      H2            -24.6343196295      -38.4632071127      -12.7335030134  W2        178             0.0000000000
       535       179  TIP3      OH2           -38.5045996295      -37.0632771127       -7.7381230134  W2        179             0.0000000000
       536       179  TIP3      H1            -38.0594396295      -37.8550271127       -7.4361530134  W2        179             0.0000000000
       537       179  TIP3      H2            -38.0382996295      -36.3467571127       -7.3075630134  W2        179             0.0000000000
       538       180  TIP3      OH2           -40.2005696295      -34.0639771127       -6.6691030134  W2        180             0.0000000000
       539       180  TIP3      H1            -39.7085896295      -34.2849271127       -7.4599030134  W2        180             0.0000000000
       540       180  TIP3      H2            -39.8384796295      -33.2236371127       -6.3881530134  W2        180             0.0000000000
       541       181  TIP3      OH2           -22.2041896295      -37.7338271127       -0.4037030134  W2        181             0.0000000000
       542       181  TIP3      H1            -23.1216196295      -37.4631171127       -0.4393530134  W2        181             0.0000000000
       543       181  TIP3      H2            -22.0812496295      -38.2689871127       -1.1877330134  W2        181             0.0000000000
       544       182  TIP3      OH2           -22.1679896295      -37.8108371127      -15.7419330134  W2        182             0.0000000000
       545       182  TIP3      H1            -21.7557296295      -38.5322671127      -16.2171330134  W2        182             0.0000000000
       546       182  TIP3      H2            -21.4863396295      -37.1413771127      -15.6835030134  W2        182             0.0000000000
       547       183  TIP3      OH2           -39.8869196295      -37.8060671127      -12.6148630134  W2        183             0.0000000000
       548       183  TIP3      H1            -40.8120796295      -37.5974071127      -12.7443130134  W2        183             0.0000000000
       549       183  TIP3      H2            -39.4329296295      -37.3219871127      -13.3046330134  W2        183             0.0000000000
       550       184  TIP3      OH2           -25.1161996295      -22.8218971127      -10.6691230134  W2        184             0.0000000000
       551       184  TIP3      H1            -24.4639096295      -23.1696871127      -11.2772130134  W2        184             0.0000000000
       552       184  TIP3      H2            -24.6058196295      -22.3335771127      -10.0231530134  W2        184             0.0000000000
       553       185  TIP3      OH2           -39.9233796295      -39.0681671127       -4.2706130134  W2        185             0.0000000000
       554       185  TIP3      H1            -40.5883296295      -39.3141371127       -3.6275230134  W2        185             0.0000000000
       555       185  TIP3      H2            -40.3662496295      -38.4461271127       -4.8478130134  W2        185             0.0000000000
       556       186  TIP3      OH2           -37.7314496295      -25.8927571127       -0.1260330134  W2        186             0.0000000000
       557       186  TIP3      H1            -38.5521996295      -25.7181071127       -0.5865630134  W2        186             0.0000000000
       558       186  TIP3      H2            -37.9836696295      -25.9662871127        0.7944069866  W2        186             0.0000000000
       559       187  TIP3      OH2           -34.7771596295      -24.9186371127       -3.8676330134  W2        187             0.0000000000
       560       187  TIP3      H1            -35.2020496295      -24.1087871127       -4.1501730134  W2        187             0.0000000000
       561       187  TIP3      H2            -33.8728796295      -24.8332271127       -4.1696530134  W2        187             0.0000000000
       562       188  TIP3      OH2           -30.4660196295      -23.5196371127       -0.9082630134  W2        188             0.0000000000
       563       188  TIP3      H1            -30.2812696295      -23.8530271127       -0.0302330134  W2        188             0.0000000000
       564       188  TIP3      H2            -29.6195696295      -23.2097771127       -1.2303430134  W2        188             0.0000000000
       565       189  TIP3      OH2           -28.1209796295      -22.2337471127       -1.6641230134  W2        189             0.0000000000
       566       189  TIP3      H1            -27.4440896295      -22.8665171127       -1.9042030134  W2        189             0.0000000000
       567       189  TIP3      H2            -27.7990996295      -21.8326971127       -0.8567930134  W2        189             0.0000000000
       568       190  TIP3      OH2           -23.2035996295      -39.6441971127       -2.5846230134  W2        190             0.0000000000
       569       190  TIP3      H1            -24.0162496295      -39.3191671127       -2.9721530134  W2        190             0.0000000000
       570       190  TIP3      H2            -22.9707496295      -40.4043471127       -3.1177130134  W2        190             0.0000000000
       571       191  TIP3      OH2           -37.3754896295      -21.6622471127       -3.8201030134  W2        191             0.0000000000
       572       191  TIP3      H1            -38.0958496295      -21.2221471127       -4.2713330134  W2        191             0.0000000000
       573       191  TIP3      H2            -37.7410896295      -21.9127771127       -2.9717030134  W2        191             0.0000000000
       574       192  TIP3      OH2           -34.9082296295      -22.0618571127       -4.7903830134  W2        192             0.0000000000
       575       192  TIP3      H1            -35.7730096295      -21.9900071127       -4.3863730134  W2        192             0.0000000000
       576       192  TIP3      H2            -34.9633296295      -21.5151271127       -5.5741330134  W2        192             0.0000000000
       577       193  TIP3      OH2           -30.1976696295      -22.1739671127       -5.6147830134  W2        193             0.0000000000
       578       193  TIP3      H1            -30.6542696295      -21.6449971127       -6.2689430134  W2        193             0.0000000000
       579       193  TIP3      H2            -30.0348696295      -21.5708271127       -4.8895530134  W2        193             0.0000000000
       580       194  TIP3      OH2           -27.8700396295      -23.2960071127       -4.6697530134  W2        194             0.0000000000
       581       194  TIP3      H1            -28.7746696295      -23.1309871127       -4.9355430134  W2        194             0.0000000000
       582       194  TIP3      H2            -27.4411796295      -22.4427871127       -4.7354130134  W2        194             0.0000000000
       583       195  TIP3      OH2           -25.2658496295      -21.7260971127       -4.3749730134  W2        195             0.0000000000
       584       195  TIP3      H1            -25.4476496295      -20.8102071127       -4.5854830134  W2        195             0.0000000000
       585       195  TIP3      H2            -25.0890696295      -22.1363871127       -5.2215130134  W2        195             0.0000000000
       586       196  TIP3      OH2           -37.9606796295      -23.0389971127       -6.9099230134  W2        196             0.0000000000
       587       196  TIP3      H1            -37.9790796295      -23.4644871127       -6.0526930134  W2        196             0.0000000000
       588       196  TIP3      H2            -37.1558896295      -23.3574971127       -7.3187030134  W2        196             0.0000000000
       589       197  TIP3      OH2           -35.8193696295      -24.3291271127       -8.2549330134  W2        197             0.0000000000
       590       197  TIP3      H1            -36.0382996295      -25.2453871127       -8.0853330134  W2        197             0.0000000000
       591       197  TIP3      H2            -34.9951496295      -24.1890871127       -7.7887930134  W2        197             0.0000000000
       592       198  TIP3      OH2           -33.2821196295      -23.8591971127       -7.4061330134  W2        198             0.0000000000
       593       198  TIP3      H1            -33.0695496295      -24.7472971127       -7.6930430134  W2        198             0.0000000000
       594       198  TIP3      H2            -33.2176096295      -23.8934271127       -6.4517330134  W2        198             0.0000000000
       595       199  TIP3      OH2           -29.7737496295      -38.1951371127       -8.2618030134  W2        199             0.0000000000
       596       199  TIP3      H1            -30.4480696295      -38.8245771127       -8.0062230134  W2        199             0.0000000000
       597       199  TIP3      H2            -29.2098296295      -38.6792471127       -8.8650130134  W2        199             0.0000000000
       598       200  TIP3      OH2           -24.6310296295      -40.0877371127       -8.1490930134  W2        200             0.0000000000
       599       200  TIP3      H1            -24.0272696295      -39.5401971127       -8.6509930134  W2        200             0.0000000000
       600       200  TIP3      H2            -25.5008296295      -39.7686971127       -8.3896830134  W2        200             0.0000000000
       601       201  TIP3      OH2           -22.9039896295      -38.9488671127       -9.8160030134  W2        201             0.0000000000
       602       201  TIP3      H1            -22.2922396295      -39.4632971127      -10.3426430134  W2        201             0.0000000000
       603       201  TIP3      H2            -22.5216496295      -38.0716571127       -9.7925630134  W2        201             0.0000000000
       604       202  TIP3      OH2           -37.4469996295      -39.5611071127      -10.4398130134  W2        202             0.0000000000
       605       202  TIP3      H1            -38.2240196295      -39.7956171127      -10.9472230134  W2        202             0.0000000000
       606       202  TIP3      H2            -36.9166396295      -40.3578971127      -10.4310130134  W2        202             0.0000000000
       607       203  TIP3      OH2           -38.6106596295      -39.7632971127      -14.6362030134  W2        203             0.0000000000
       608       203  TIP3      H1            -38.1715896295      -39.1522471127      -15.2278530134  W2        203             0.0000000000
       609       203  TIP3      H2            -39.2444196295      -39.2248871127      -14.1622030134  W2        203             0.0000000000
       610       204  TIP3      OH2           -32.8677396295      -39.6343971127      -10.6265030134  W2        204             0.0000000000
       611       204  TIP3      H1            -31.9933996295      -39.2459671127      -10.6560730134  W2        204             0.0000000000
       612       204  TIP3      H2            -33.0036596295      -39.8496171127       -9.7037830134  W2        204             0.0000000000
       613       205  TIP3      OH2           -27.3108996295      -39.6044171127       -8.9773330134  W2        205             0.0000000000
       614       205  TIP3      H1            -27.2347396295      -39.5092571127       -9.9267330134  W2        205             0.0000000000
       615       205  TIP3      H2            -27.5859796295      -40.5121271127       -8.8484230134  W2        205             0.0000000000
       616       206  TIP3      OH2           -25.9576396295      -39.5786371127      -13.2848330134  W2        206             0.0000000000
       617       206  TIP3      H1            -26.6605296295      -38.9637171127      -13.4946930134  W2        206             0.0000000000
       618       206  TIP3      H2            -26.4024996295      -40.4159671127      -13.1537430134  W2        206             0.0000000000
       619       207  TIP3      OH2           -38.7097096295      -23.8150771127      -13.7386930134  W2        207             0.0000000000
       620       207  TIP3      H1            -39.3947196295      -23.8531871127      -14.4061830134  W2        207             0.0000000000
       621       207  TIP3      H2            -38.7059896295      -22.9023171127      -13.4504830134  W2        207             0.0000000000
       622       208  TIP3      OH2           -36.7497496295      -37.8471471127      -16.1937930134  W2        208             0.0000000000
       623       208  TIP3      H1            -36.2584096295      -38.4769071127      -16.7212430134  W2        208             0.0000000000
       624       208  TIP3      H2            -36.1261196295      -37.5512071127      -15.5306730134  W2        208             0.0000000000
       625       209  TIP3      OH2           -31.7237396295      -37.5539971127      -13.7367430134  W2        209             0.0000000000
       626       209  TIP3      H1            -31.5456096295      -38.2006771127      -13.0538830134  W2        209             0.0000000000
       627       209  TIP3      H2            -31.7771196295      -36.7202271127      -13.2696330134  W2        209             0.0000000000
       628       210  TIP3      OH2           -29.8453596295      -22.6055871127      -15.3410730134  W2        210             0.0000000000
       629       210  TIP3      H1            -28.9793396295      -22.2388471127      -15.5192530134  W2        210             0.0000000000
       630       210  TIP3      H2            -30.0920796295      -23.0447871127      -16.1549930134  W2        210             0.0000000000
       631       211  TIP3      OH2           -23.1363996295      -23.0425571127      -12.6619630134  W2        211             0.0000000000
       632       211  TIP3      H1            -23.3306896295      -23.7903471127      -13.2270030134  W2        211             0.0000000000
       633       211  TIP3      H2            -23.1753896295      -22.2845471127      -13.2451730134  W2        211             0.0000000000
       634       212  TIP3      OH2           -37.4891996295      -39.0469171127       -0.9221930134  W2        212             0.0000000000
       635       212  TIP3      H1            -37.8553796295      -39.8126571127       -0.4797230134  W2        212             0.0000000000
       636       212  TIP3      H2            -36.5763496295      -39.0178971127       -0.6356830134  W2        212             0.0000000000
       637       213  TIP3      OH2           -35.5161196295      -39.6964771127        0.6135169866  W2        213             0.0000000000
       638       213  TIP3      H1            -34.6177596295      -39.9704571127        0.4288569866  W2        213             0.0000000000
       639       213  TIP3      H2            -35.9028096295      -40.4388771127        1.0777769866  W2        213             0.0000000000
       640       214  TIP3      OH2           -36.8915896295      -22.8949971127      -16.7134830134  W2        214             0.0000000000
       641       214  TIP3      H1            -37.1591296295      -22.6087071127      -15.8401730134  W2        214             0.0000000000
       642       214  TIP3      H2            -36.1203296295      -23.4410771127      -16.5612330134  W2        214             0.0000000000
       643       215  TIP3      OH2           -27.0948896295      -40.3639471127        0.7957969866  W2        215             0.0000000000
       644       215  TIP3      H1            -27.0181696295      -40.7898771127        1.6495669866  W2        215             0.0000000000
       645       215  TIP3      H2            -26.2012296295      -40.3504771127        0.4531469866  W2        215             0.0000000000
       646       216  TIP3      OH2           -23.9187796295      -24.2913171127       -0.5117830134  W2        216             0.0000000000
       647       216  TIP3      H1            -24.7005896295      -24.4775171127       -1.0317230134  W2        216             0.0000000000
       648       216  TIP3      H2            -23.9907896295      -23.3618871127       -0.2945330134  W2        216             0.0000000000
       649       217  TIP3      OH2            -9.5127396295      -30.4048771127      -10.4810630134  W2        217             0.0000000000
       650       217  TIP3      H1             -9.4236296295      -29.4610571127      -10.6133530134  W2        217             0.0000000000
       651       217  TIP3      H2            -10.1509796295      -30.6802371127      -11.1391230134  W2        217             0.0000000000
       652       218  TIP3      OH2           -10.5796096295      -31.1498071127       -7.0622430134  W2        218             0.0000000000
       653       218  TIP3      H1            -10.6178596295      -31.7961771127       -6.3572830134  W2        218             0.0000000000
       654       218  TIP3      H2            -10.9019596295      -31.6163671127       -7.8333730134  W2        218             0.0000000000
       655       219  TIP3      OH2           -18.2111096295      -31.5355971127       -5.4692530134  W2        219             0.0000000000
       656       219  TIP3      H1            -18.1698996295      -32.1612671127       -4.7460130134  W2        219             0.0000000000
       657       219  TIP3      H2            -17.5083396295      -30.9117371127       -5.2872130134  W2        219             0.0000000000
       658       220  TIP3      OH2            -6.8735896295      -28.2107671127       -8.7607330134  W2        220             0.0000000000
       659       220  TIP3      H1             -7.3143196295      -28.9311671127       -8.3101730134  W2        220             0.0000000000
       660       220  TIP3      H2             -6.8866196295      -27.4900471127       -8.1309630134  W2        220             0.0000000000
       661       221  TIP3      OH2           -17.2877996295      -27.0857071127       -6.9343430134  W2        221             0.0000000000
       662       221  TIP3      H1            -17.6572796295      -27.8876571127       -7.3039130134  W2        221             0.0000000000
       663       221  TIP3      H2            -16.3466896295      -27.2542171127       -6.8880030134  W2        221             0.0000000000
       664       222  TIP3      OH2           -20.6777496295      -33.4254471127      -11.5414630134  W2        222             0.0000000000
       665       222  TIP3      H1            -21.1254096295      -32.5795771127      -11.5598130134  W2        222             0.0000000000
       666       222  TIP3      H2            -21.2386296295      -34.0050271127      -12.0569530134  W2        222             0.0000000000
       667       223  TIP3      OH2           -19.9671396295      -31.2634871127       -9.4156630134  W2        223             0.0000000000
       668       223  TIP3      H1            -19.7537896295      -32.0333271127       -8.8883630134  W2        223             0.0000000000
       669       223  TIP3      H2            -19.2293796295      -31.1738171127      -10.0189030134  W2        223             0.0000000000
       670       224  TIP3      OH2            -9.7620396295      -23.1065971127       -8.5486930134  W2        224             0.0000000000
       671       224  TIP3      H1             -9.1423996295      -23.7831271127       -8.8217730134  W2        224             0.0000000000
       672       224  TIP3      H2             -9.9702996295      -23.3245171127       -7.6402030134  W2        224             0.0000000000
       673       225  TIP3      OH2           -12.1901696295      -28.7176671127       -6.6561430134  W2        225             0.0000000000
       674       225  TIP3      H1            -11.8863796295      -29.4035271127       -7.2507330134  W2        225             0.0000000000
       675       225  TIP3      H2            -11.4687696295      -28.5987971127       -6.0383430134  W2        225             0.0000000000
       676       226  TIP3      OH2            -3.5271896295      -37.1161371127       -5.7955230134  W2        226             0.0000000000
       677       226  TIP3      H1             -3.4779696295      -36.5060171127       -5.0596130134  W2        226             0.0000000000
       678       226  TIP3      H2             -3.1016796295      -36.6550471127       -6.5184130134  W2        226             0.0000000000
       679       227  TIP3      OH2            -9.0494696295      -34.3234271127       -6.3286630134  W2        227             0.0000000000
       680       227  TIP3      H1             -8.9068796295      -35.2697271127       -6.3085030134  W2        227             0.0000000000
       681       227  TIP3      H2             -9.1555696295      -34.1164471127       -7.2571730134  W2        227             0.0000000000
       682       228  TIP3      OH2           -15.8946396295      -36.2217871127       -9.0561830134  W2        228             0.0000000000
       683       228  TIP3      H1            -15.8515296295      -35.3619371127       -9.4745530134  W2        228             0.0000000000
       684       228  TIP3      H2            -16.3522296295      -36.7743171127       -9.6898630134  W2        228             0.0000000000
       685       229  TIP3      OH2            -8.1723696295      -36.0912271127      -10.6553530134  W2        229             0.0000000000
       686       229  TIP3      H1             -7.5259396295      -36.4199071127      -10.0305930134  W2        229             0.0000000000
       687       229  TIP3      H2             -7.6624296295      -35.5733271127      -11.2782130134  W2        229             0.0000000000
       688       230  TIP3      OH2           -19.2744896295      -33.8252071127       -8.2940430134  W2        230             0.0000000000
       689       230  TIP3      H1            -18.6208296295      -34.3750371127       -7.8620330134  W2        230             0.0000000000
       690       230  TIP3      H2            -19.2505596295      -34.0993071127       -9.2108430134  W2        230             0.0000000000
       691       231  TIP3      OH2           -14.1180396295      -32.2750771127       -9.0788930134  W2        231             0.0000000000
       692       231  TIP3      H1            -13.5019396295      -32.8015371127       -8.5694930134  W2        231             0.0000000000
       693       231  TIP3      H2            -14.7041596295      -32.9152071127       -9.4825330134  W2        231             0.0000000000
       694       232  TIP3      OH2            -3.1357296295      -35.6382171127       -3.5595430134  W2        232             0.0000000000
       695       232  TIP3      H1             -3.8242696295      -34.9801471127       -3.6548830134  W2        232             0.0000000000
       696       232  TIP3      H2             -3.1202696295      -35.8354271127       -2.6230030134  W2        232             0.0000000000
       697       233  TIP3      OH2           -17.0844496295      -37.3039471127       -4.9821030134  W2        233             0.0000000000
       698       233  TIP3      H1            -17.3032796295      -36.7738871127       -5.7485030134  W2        233             0.0000000000
       699       233  TIP3      H2            -17.7523596295      -37.0773971127       -4.3349630134  W2        233             0.0000000000
       700       234  TIP3      OH2            -9.7154696295      -27.8038371127      -11.4381930134  W2        234             0.0000000000
       701       234  TIP3      H1            -10.0109596295      -28.1266071127      -12.2895030134  W2        234             0.0000000000
       702       234  TIP3      H2            -10.0396896295      -26.9041671127      -11.3969330134  W2        234             0.0000000000
       703       235  TIP3      OH2           -14.5153096295      -29.6283771127       -4.6947330134  W2        235             0.0000000000
       704       235  TIP3      H1            -15.2553996295      -29.0302271127       -4.5912130134  W2        235             0.0000000000
       705       235  TIP3      H2            -13.8013596295      -29.0744171127       -5.0103730134  W2        235             0.0000000000
       706       236  TIP3      OH2            -6.4085296295      -36.8002971127       -8.6747630134  W2        236             0.0000000000
       707       236  TIP3      H1             -6.6237296295      -37.5659571127       -8.1421630134  W2        236             0.0000000000
       708       236  TIP3      H2             -5.7527896295      -36.3278371127       -8.1619130134  W2        236             0.0000000000
       709       237  TIP3      OH2           -17.4907196295      -35.4117671127       -7.0298830134  W2        237             0.0000000000
       710       237  TIP3      H1            -16.8770896295      -34.7790071127       -6.6566430134  W2        237             0.0000000000
       711       237  TIP3      H2            -16.9786496295      -35.8842671127       -7.6861930134  W2        237             0.0000000000
       712       238  TIP3      OH2           -16.1078796295      -27.6640771127       -3.9075830134  W2        238             0.0000000000
       713       238  TIP3      H1            -16.1131196295      -26.7847271127       -4.2856530134  W2        238             0.0000000000
       714       238  TIP3      H2            -16.9614696295      -27.7476671127       -3.4825930134  W2        238             0.0000000000
       715       239  TIP3      OH2           -19.9867896295      -27.9932871127      -13.1256530134  W2        239             0.0000000000
       716       239  TIP3      H1            -20.2586996295      -27.7641871127      -14.0143630134  W2        239             0.0000000000
       717       239  TIP3      H2            -19.9412196295      -27.1554071127      -12.6651230134  W2        239             0.0000000000
       718       240  TIP3      OH2            -6.3618196295      -26.3716971127       -6.4128030134  W2        240             0.0000000000
       719       240  TIP3      H1             -7.3034496295      -26.3133071127       -6.2511130134  W2        240             0.0000000000
       720       240  TIP3      H2             -6.0852096295      -25.4656471127       -6.5498330134  W2        240             0.0000000000
       721       241  TIP3      OH2            -6.0611196295      -38.0851671127       -4.9954130134  W2        241             0.0000000000
       722       241  TIP3      H1             -6.7971996295      -37.4744571127       -5.0332830134  W2        241             0.0000000000
       723       241  TIP3      H2             -5.3777196295      -37.6702671127       -5.5217730134  W2        241             0.0000000000
       724       242  TIP3      OH2           -13.0579796295      -39.9984371127       -7.5296130134  W2        242             0.0000000000
       725       242  TIP3      H1            -13.1755596295      -40.9468371127       -7.5837830134  W2        242             0.0000000000
       726       242  TIP3      H2            -13.9129696295      -39.6658271127       -7.2565030134  W2        242             0.0000000000
       727       243  TIP3      OH2            -8.1096996295      -24.5903471127       -9.7876430134  W2        243             0.0000000000
       728       243  TIP3      H1             -7.6844696295      -25.2975571127      -10.2726830134  W2        243             0.0000000000
       729       243  TIP3      H2             -7.7926996295      -23.7890771127      -10.2044230134  W2        243             0.0000000000
       730       244  TIP3      OH2            -6.9500496295      -26.6894971127      -11.2789830134  W2        244             0.0000000000
       731       244  TIP3      H1             -7.2075696295      -27.3794871127      -11.8903930134  W2        244             0.0000000000
       732       244  TIP3      H2             -6.8789696295      -27.1323771127      -10.4333930134  W2        244             0.0000000000
       733       245  TIP3      OH2            -5.2640296295      -28.1228271127       -2.8016330134  W2        245             0.0000000000
       734       245  TIP3      H1             -5.1243996295      -28.7145771127       -3.5409330134  W2        245             0.0000000000
       735       245  TIP3      H2             -5.0967496295      -27.2502371127       -3.1577530134  W2        245             0.0000000000
       736       246  TIP3      OH2           -10.7914896295      -31.1608771127      -13.0290330134  W2        246             0.0000000000
       737       246  TIP3      H1            -11.5029396295      -30.6259071127      -13.3809830134  W2        246             0.0000000000
       738       246  TIP3      H2            -10.1005296295      -31.1056671127      -13.6891430134  W2        246             0.0000000000
       739       247  TIP3      OH2           -10.7375696295      -32.7034471127      -15.9905330134  W2        247             0.0000000000
       740       247  TIP3      H1            -10.0365796295      -32.6807571127      -15.3391330134  W2        247             0.0000000000
       741       247  TIP3      H2            -10.4352796295      -33.3314771127      -16.6466030134  W2        247             0.0000000000
       742       248  TIP3      OH2            -3.4220996295      -31.7830271127       -4.7355930134  W2        248             0.0000000000
       743       248  TIP3      H1             -4.0746896295      -31.0884671127       -4.6465030134  W2        248             0.0000000000
       744       248  TIP3      H2             -2.9570696295      -31.5729371127       -5.5454330134  W2        248             0.0000000000
       745       249  TIP3      OH2            -7.3857196295      -30.9515471127      -12.0774430134  W2        249             0.0000000000
       746       249  TIP3      H1             -8.1176196295      -30.7231771127      -11.5043830134  W2        249             0.0000000000
       747       249  TIP3      H2             -6.9384996295      -31.6652771127      -11.6226930134  W2        249             0.0000000000
       748       250  TIP3      OH2            -7.4883696295      -32.7772871127       -3.0097430134  W2        250             0.0000000000
       749       250  TIP3      H1             -7.4084596295      -32.0138471127       -2.4378930134  W2        250             0.0000000000
       750       250  TIP3      H2             -8.0895996295      -32.4980471127       -3.7002330134  W2        250             0.0000000000
       751       251  TIP3      OH2           -15.7403496295      -30.3209271127      -10.1949430134  W2        251             0.0000000000
       752       251  TIP3      H1            -16.0708296295      -30.6915871127      -11.0132430134  W2        251             0.0000000000
       753       251  TIP3      H2            -15.1519396295      -30.9915271127       -9.8481130134  W2        251             0.0000000000
       754       252  TIP3      OH2           -14.3735996295      -26.8928671127       -7.5137230134  W2        252             0.0000000000
       755       252  TIP3      H1            -14.4684696295      -27.4715571127       -8.2702630134  W2        252             0.0000000000
       756       252  TIP3      H2            -13.6442396295      -27.2642971127       -7.0174430134  W2        252             0.0000000000
       757       253  TIP3      OH2           -15.3737996295      -31.5523671127       -6.5614430134  W2        253             0.0000000000
       758       253  TIP3      H1            -14.8085496295      -31.4309471127       -7.3243230134  W2        253             0.0000000000
       759       253  TIP3      H2            -15.0549096295      -30.9148671127       -5.9225930134  W2        253             0.0000000000
       760       254  TIP3      OH2            -9.0645796295      -26.0491771127       -5.8273930134  W2        254             0.0000000000
       761       254  TIP3      H1             -9.3049196295      -25.3868671127       -5.1794730134  W2        254             0.0000000000
       762       254  TIP3      H2             -9.2627596295      -26.8836571127       -5.4024330134  W2        254             0.0000000000
       763       255  TIP3      OH2           -14.4937296295      -27.1530971127       -1.8442530134  W2        255             0.0000000000
       764       255  TIP3      H1            -14.8049796295      -26.3707771127       -1.3889330134  W2        255             0.0000000000
       765       255  TIP3      H2            -15.1437096295      -27.3061871127       -2.5300530134  W2        255             0.0000000000
       766       256  TIP3      OH2            -8.5147696295      -31.7892571127      -14.3923230134  W2        256             0.0000000000
       767       256  TIP3      H1             -7.9352196295      -31.6392271127      -13.6454330134  W2        256             0.0000000000
       768       256  TIP3      H2             -8.1007696295      -31.3185171127      -15.1156830134  W2        256             0.0000000000
       769       257  TIP3      OH2           -17.5737396295      -30.9549871127       -2.6156830134  W2        257             0.0000000000
       770       257  TIP3      H1            -17.5034196295      -30.3043071127       -1.9171830134  W2        257             0.0000000000
       771       257  TIP3      H2            -18.4645196295      -30.8522371127       -2.9505930134  W2        257             0.0000000000
       772       258  TIP3      OH2           -10.7882796295      -25.0524071127      -10.9570130134  W2        258             0.0000000000
       773       258  TIP3      H1            -10.3145196295      -24.7567771127      -10.1795930134  W2        258             0.0000000000
       774       258  TIP3      H2            -11.3513496295      -24.3142471127      -11.1900530134  W2        258             0.0000000000
       775       259  TIP3      OH2           -16.2541396295      -25.0815971127       -1.0808730134  W2        259             0.0000000000
       776       259  TIP3      H1            -16.2466096295      -25.2176271127       -2.0283230134  W2        259             0.0000000000
       777       259  TIP3      H2            -17.1700996295      -25.1987871127       -0.8288730134  W2        259             0.0000000000
       778       260  TIP3      OH2            -4.8159296295      -40.0392171127      -14.5793530134  W2        260             0.0000000000
       779       260  TIP3      H1             -5.7158596295      -39.9003171127      -14.2842930134  W2        260             0.0000000000
       780       260  TIP3      H2             -4.5640896295      -39.2077571127      -14.9811830134  W2        260             0.0000000000
       781       261  TIP3      OH2           -16.7500796295      -31.2514971127      -12.6056630134  W2        261             0.0000000000
       782       261  TIP3      H1            -17.0419496295      -30.4833271127      -13.0965330134  W2        261             0.0000000000
       783       261  TIP3      H2            -17.4245596295      -31.9108771127      -12.7685230134  W2        261             0.0000000000
       784       262  TIP3      OH2            -3.6267896295      -25.6729771127      -16.2029630134  W2        262             0.0000000000
       785       262  TIP3      H1             -3.5534396295      -24.7339571127      -16.0324330134  W2        262             0.0000000000
       786       262  TIP3      H2             -2.7212796295      -25.9781171127      -16.2592330134  W2        262             0.0000000000
       787       263  TIP3      OH2           -20.6570696295      -28.8885771127       -3.7906830134  W2        263             0.0000000000
       788       263  TIP3      H1            -21.1582296295      -28.9166371127       -4.6057130134  W2        263             0.0000000000
       789       263  TIP3      H2            -20.6516996295      -29.7942571127       -3.4809530134  W2        263             0.0000000000
       790       264  TIP3      OH2           -20.9067996295      -26.1081971127       -6.9066630134  W2        264             0.0000000000
       791       264  TIP3      H1            -19.9607396295      -26.2524971127       -6.9257130134  W2        264             0.0000000000
       792       264  TIP3      H2            -21.0191696295      -25.3239171127       -6.3695430134  W2        264             0.0000000000
       793       265  TIP3      OH2            -2.7089496295      -25.4422271127       -1.2242930134  W2        265             0.0000000000
       794       265  TIP3      H1             -2.7582696295      -26.3974171127       -1.2615330134  W2        265             0.0000000000
       795       265  TIP3      H2             -3.5357196295      -25.1746971127       -0.8229130134  W2        265             0.0000000000
       796       266  TIP3      OH2           -11.7305496295      -25.8683071127       -2.3481530134  W2        266             0.0000000000
       797       266  TIP3      H1            -11.6430896295      -25.0418471127       -1.8732430134  W2        266             0.0000000000
       798       266  TIP3      H2            -12.5940396295      -26.1979271127       -2.0992230134  W2        266             0.0000000000
       799       267  TIP3      OH2           -11.3159696295      -22.0959371127      -12.5420930134  W2        267             0.0000000000
       800       267  TIP3      H1            -11.3913696295      -22.2172171127      -13.4885730134  W2        267             0.0000000000
       801       267  TIP3      H2            -11.2830996295      -21.1466671127      -12.4236330134  W2        267             0.0000000000
       802       268  TIP3      OH2           -17.6625896295      -23.3072371127      -10.7611930134  W2        268             0.0000000000
       803       268  TIP3      H1            -17.5105496295      -23.6551971127       -9.8825430134  W2        268             0.0000000000
       804       268  TIP3      H2            -18.5135496295      -23.6635071127      -11.0164730134  W2        268             0.0000000000
       805       269  TIP3      OH2            -8.2143696295      -22.9419171127      -15.5398530134  W2        269             0.0000000000
       806       269  TIP3      H1             -7.8395296295      -23.6863071127      -16.0105930134  W2        269             0.0000000000
       807       269  TIP3      H2             -8.2099996295      -23.2118571127      -14.6215230134  W2        269             0.0000000000
       808       270  TIP3      OH2            -8.5455596295      -23.0162071127      -12.7906330134  W2        270             0.0000000000
       809       270  TIP3      H1             -9.4805796295      -22.9160171127      -12.6119330134  W2        270             0.0000000000
       810       270  TIP3      H2             -8.2653696295      -23.7256071127      -12.2123130134  W2        270             0.0000000000
       811       271  TIP3      OH2            -5.5569696295      -33.9489771127       -0.7440730134  W2        271             0.0000000000
       812       271  TIP3      H1             -5.9642896295      -33.4684171127       -1.4647430134  W2        271             0.0000000000
       813       271  TIP3      H2             -5.5163996295      -34.8543771127       -1.0519930134  W2        271             0.0000000000
       814       272  TIP3      OH2           -18.4080196295      -27.5650371127       -2.7474030134  W2        272             0.0000000000
       815       272  TIP3      H1            -18.1918896295      -27.9264771127       -1.8878230134  W2        272             0.0000000000
       816       272  TIP3      H2            -19.2635496295      -27.9396571127       -2.9570530134  W2        272             0.0000000000
       817       273  TIP3      OH2           -15.7892196295      -39.0949871127       -6.7519830134  W2        273             0.0000000000
       818       273  TIP3      H1            -16.6508496295      -39.1821671127       -7.1596930134  W2        273             0.0000000000
       819       273  TIP3      H2            -15.8116496295      -38.2389771127       -6.3242230134  W2        273             0.0000000000
       820       274  TIP3      OH2           -11.1264396295      -39.3729471127       -3.3772830134  W2        274             0.0000000000
       821       274  TIP3      H1            -10.7061296295      -39.7882371127       -2.6242230134  W2        274             0.0000000000
       822       274  TIP3      H2            -12.0594796295      -39.5516171127       -3.2600830134  W2        274             0.0000000000
       823       275  TIP3      OH2            -7.7999496295      -35.6174271127       -2.5238330134  W2        275             0.0000000000
       824       275  TIP3      H1             -8.3139996295      -35.7432071127       -1.7262330134  W2        275             0.0000000000
       825       275  TIP3      H2             -7.9554796295      -34.7051171127       -2.7682130134  W2        275             0.0000000000
       826       276  TIP3      OH2            -7.0374596295      -30.7564271127      -16.7625330134  W2        276             0.0000000000
       827       276  TIP3      H1             -6.9953796295      -30.9790371127      -17.6925330134  W2        276             0.0000000000
       828       276  TIP3      H2             -6.1882496295      -30.3577171127      -16.5725430134  W2        276             0.0000000000
       829       277  TIP3      OH2           -11.4647096295      -36.8806071127      -16.0922030134  W2        277             0.0000000000
       830       277  TIP3      H1            -11.7182296295      -36.8614471127      -15.1693930134  W2        277             0.0000000000
       831       277  TIP3      H2            -11.7214996295      -37.7520671127      -16.3935830134  W2        277             0.0000000000
       832       278  TIP3      OH2           -15.6982096295      -34.1295371127       -5.6569630134  W2        278             0.0000000000
       833       278  TIP3      H1            -16.3399996295      -34.1698071127       -4.9479530134  W2        278             0.0000000000
       834       278  TIP3      H2            -15.6610096295      -33.2030671127       -5.8946630134  W2        278             0.0000000000
       835       279  TIP3      OH2           -15.7012996295      -33.9085271127      -10.7449630134  W2        279             0.0000000000
       836       279  TIP3      H1            -16.5940096295      -34.2489171127      -10.8035830134  W2        279             0.0000000000
       837       279  TIP3      H2            -15.2506396295      -34.2854371127      -11.5006430134  W2        279             0.0000000000
       838       280  TIP3      OH2           -10.1657496295      -33.4924971127      -11.9278830134  W2        280             0.0000000000
       839       280  TIP3      H1            -10.5747196295      -32.6776371127      -12.2194030134  W2        280             0.0000000000
       840       280  TIP3      H2             -9.4451296295      -33.6324871127      -12.5421730134  W2        280             0.0000000000
       841       281  TIP3      OH2           -11.0635896295      -33.3168571127       -0.4398130134  W2        281             0.0000000000
       842       281  TIP3      H1            -11.6262096295      -34.0216971127       -0.1190330134  W2        281             0.0000000000
       843       281  TIP3      H2            -10.2372496295      -33.4376671127        0.0279469866  W2        281             0.0000000000
       844       282  TIP3      OH2            -9.1609796295      -34.0464571127       -9.1139130134  W2        282             0.0000000000
       845       282  TIP3      H1             -9.3565296295      -33.4407771127       -9.8288530134  W2        282             0.0000000000
       846       282  TIP3      H2             -8.9797196295      -34.8799371127       -9.5482830134  W2        282             0.0000000000
       847       283  TIP3      OH2           -17.9481596295      -33.8091871127       -3.7897630134  W2        283             0.0000000000
       848       283  TIP3      H1            -17.9862196295      -33.4090271127       -2.9210530134  W2        283             0.0000000000
       849       283  TIP3      H2            -18.4390496295      -34.6259471127       -3.6994730134  W2        283             0.0000000000
       850       284  TIP3      OH2           -14.5824196295      -36.4349571127      -16.9911630134  W2        284             0.0000000000
       851       284  TIP3      H1            -15.0133496295      -36.8799471127      -16.2614230134  W2        284             0.0000000000
       852       284  TIP3      H2            -15.3005496295      -36.0633271127      -17.5034130134  W2        284             0.0000000000
       853       285  TIP3      OH2           -21.3400796295      -36.6930071127       -9.9392930134  W2        285             0.0000000000
       854       285  TIP3      H1            -20.7093096295      -36.7217971127       -9.2199030134  W2        285             0.0000000000
       855       285  TIP3      H2            -20.8906496295      -37.1181371127      -10.6697030134  W2        285             0.0000000000
       856       286  TIP3      OH2           -20.0658696295      -35.9468071127      -14.5152530134  W2        286             0.0000000000
       857       286  TIP3      H1            -19.5916996295      -35.3558171127      -15.1001630134  W2        286             0.0000000000
       858       286  TIP3      H2            -20.7832296295      -35.4165171127      -14.1682430134  W2        286             0.0000000000
       859       287  TIP3      OH2            -9.8970596295      -32.4083271127       -4.4426730134  W2        287             0.0000000000
       860       287  TIP3      H1             -9.5735796295      -33.0393571127       -5.0856230134  W2        287             0.0000000000
       861       287  TIP3      H2            -10.3371296295      -32.9431071127       -3.7819330134  W2        287             0.0000000000
       862       288  TIP3      OH2           -13.1197696295      -36.4807771127       -9.6585530134  W2        288             0.0000000000
       863       288  TIP3      H1            -14.0306596295      -36.4240971127       -9.3699530134  W2        288             0.0000000000
       864       288  TIP3      H2            -12.6144796295      -36.5412271127       -8.8478330134  W2        288             0.0000000000
       865       289  TIP3      OH2           -18.2914296295      -34.8521471127      -10.8317930134  W2        289             0.0000000000
       866       289  TIP3      H1            -19.1806296295      -34.7525971127      -11.1718330134  W2        289             0.0000000000
       867       289  TIP3      H2            -17.9949396295      -35.6938471127      -11.1780030134  W2        289             0.0000000000
       868       290  TIP3      OH2           -14.6382496295      -34.8518871127      -13.1753330134  W2        290             0.0000000000
       869       290  TIP3      H1            -13.7066996295      -34.7228871127      -12.9970230134  W2        290             0.0000000000
       870       290  TIP3      H2            -14.8532196295      -34.1824571127      -13.8248630134  W2        290             0.0000000000
       871       291  TIP3      OH2            -8.7145796295      -37.2461471127       -6.3943730134  W2        291             0.0000000000
       872       291  TIP3      H1             -9.3914196295      -37.1148371127       -5.7304030134  W2        291             0.0000000000
       873       291  TIP3      H2             -9.2000896295      -37.4011971127       -7.2046030134  W2        291             0.0000000000
       874       292  TIP3      OH2           -15.9642296295      -33.6576671127      -15.6087230134  W2        292             0.0000000000
       875       292  TIP3      H1            -16.5067196295      -34.0372871127      -16.2999630134  W2        292             0.0000000000
       876       292  TIP3      H2            -15.1307396295      -33.4631971127      -16.0373130134  W2        292             0.0000000000
       877       293  TIP3      OH2            -5.4270696295      -21.5746071127       -0.1176130134  W2        293             0.0000000000
       878       293  TIP3      H1             -5.2271996295      -21.1504171127       -0.9520830134  W2        293             0.0000000000
       879       293  TIP3      H2             -4.7716996295      -21.2307871127        0.4894269866  W2        293             0.0000000000
       880       294  TIP3      OH2           -17.8290896295      -29.1004771127       -0.5095630134  W2        294             0.0000000000
       881       294  TIP3      H1            -17.0968496295      -28.8458871127        0.0518869866  W2        294             0.0000000000
       882       294  TIP3      H2            -18.6092196295      -28.8959371127        0.0059769866  W2        294             0.0000000000
       883       295  TIP3      OH2           -11.7997996295      -33.6934771127       -7.7715930134  W2        295             0.0000000000
       884       295  TIP3      H1            -11.2354596295      -34.2398171127       -8.3186330134  W2        295             0.0000000000
       885       295  TIP3      H2            -11.9474596295      -34.2152871127       -6.9828330134  W2        295             0.0000000000
       886       296  TIP3      OH2           -16.7978296295      -37.5568671127      -11.3531130134  W2        296             0.0000000000
       887       296  TIP3      H1            -17.1148796295      -38.4593371127      -11.3885730134  W2        296             0.0000000000
       888       296  TIP3      H2            -16.0164196295      -37.5551271127      -11.9059530134  W2        296             0.0000000000
       889       297  TIP3      OH2           -13.1732096295      -35.3048671127       -5.3575530134  W2        297             0.0000000000
       890       297  TIP3      H1            -14.0086796295      -34.8509171127       -5.2473130134  W2        297             0.0000000000
       891       297  TIP3      H2            -12.6491496295      -35.0290171127       -4.6055630134  W2        297             0.0000000000
       892       298  TIP3      OH2           -12.6289496295      -29.0920971127      -13.6729130134  W2        298             0.0000000000
       893       298  TIP3      H1            -13.3738496295      -29.5995671127      -13.9951230134  W2        298             0.0000000000
       894       298  TIP3      H2            -12.7632296295      -29.0432971127      -12.7264330134  W2        298             0.0000000000
       895       299  TIP3      OH2            -5.4790596295      -29.9592771127       -4.8861530134  W2        299             0.0000000000
       896       299  TIP3      H1             -4.8371796295      -29.5026471127       -5.4299330134  W2        299             0.0000000000
       897       299  TIP3      H2             -6.3093696295      -29.8460371127       -5.3487430134  W2        299             0.0000000000
       898       300  TIP3      OH2            -8.7312696295      -36.2781071127      -15.4736530134  W2        300             0.0000000000
       899       300  TIP3      H1             -9.6698496295      -36.1665471127      -15.6247730134  W2        300             0.0000000000
       900       300  TIP3      H2             -8.4340596295      -35.4214171127      -15.1670830134  W2        300             0.0000000000
       901       301  TIP3      OH2           -11.1097396295      -28.9077671127       -2.4360030134  W2        301             0.0000000000
       902       301  TIP3      H1            -11.4551296295      -29.2895271127       -1.6290430134  W2        301             0.0000000000
       903       301  TIP3      H2            -11.3097296295      -27.9744071127       -2.3647130134  W2        301             0.0000000000
       904       302  TIP3      OH2            -8.0129196295      -34.4108371127      -13.8129130134  W2        302             0.0000000000
       905       302  TIP3      H1             -7.1210196295      -34.5483371127      -13.4937930134  W2        302             0.0000000000
       906       302  TIP3      H2             -7.9565596295      -33.6202271127      -14.3495630134  W2        302             0.0000000000
       907       303  TIP3      OH2           -17.5041196295      -29.7970971127       -7.9031230134  W2        303             0.0000000000
       908       303  TIP3      H1            -16.7593996295      -29.7995271127       -8.5044730134  W2        303             0.0000000000
       909       303  TIP3      H2            -17.4264596295      -30.6207171127       -7.4216130134  W2        303             0.0000000000
       910       304  TIP3      OH2           -10.5035396295      -27.6336671127      -14.6474530134  W2        304             0.0000000000
       911       304  TIP3      H1            -10.7986996295      -26.8068771127      -14.2659730134  W2        304             0.0000000000
       912       304  TIP3      H2            -11.2065396295      -28.2529771127      -14.4513130134  W2        304             0.0000000000
       913       305  TIP3      OH2           -20.4961496295      -31.3364071127       -2.5882730134  W2        305             0.0000000000
       914       305  TIP3      H1            -20.2732896295      -31.7544471127       -1.7565230134  W2        305             0.0000000000
       915       305  TIP3      H2            -21.0981396295      -31.9489071127       -3.0109930134  W2        305             0.0000000000
       916       306  TIP3      OH2           -13.4796596295      -31.8194171127       -0.3753030134  W2        306             0.0000000000
       917       306  TIP3      H1            -13.7755796295      -31.9851171127       -1.2703930134  W2        306             0.0000000000
       918       306  TIP3      H2            -12.5481396295      -32.0393871127       -0.3859130134  W2        306             0.0000000000
       919       307  TIP3      OH2            -8.8593796295      -26.4462171127       -2.4855030134  W2        307             0.0000000000
       920       307  TIP3      H1             -9.7599496295      -26.2629571127       -2.7531130134  W2        307             0.0000000000
       921       307  TIP3      H2             -8.8252696295      -26.1872871127       -1.5646230134  W2        307             0.0000000000
       922       308  TIP3      OH2            -3.1280496295      -34.2014271127      -14.1182430134  W2        308             0.0000000000
       923       308  TIP3      H1             -3.6824196295      -34.5976271127      -14.7904930134  W2        308             0.0000000000
       924       308  TIP3      H2             -3.0276896295      -33.2909071127      -14.3959130134  W2        308             0.0000000000
       925       309  TIP3      OH2            -3.1648496295      -28.4012571127       -1.2810930134  W2        309             0.0000000000
       926       309  TIP3      H1             -4.0159996295      -28.1628771127       -1.6484530134  W2        309             0.0000000000
       927       309  TIP3      H2             -2.5745096295      -28.4179371127       -2.0343830134  W2        309             0.0000000000
       928       310  TIP3      OH2            -4.8328796295      -25.4153871127      -13.6530330134  W2        310             0.0000000000
       929       310  TIP3      H1             -5.2057696295      -26.2410071127      -13.3439730134  W2        310             0.0000000000
       930       310  TIP3      H2             -4.5555296295      -25.5984471127      -14.5506930134  W2        310             0.0000000000
       931       311  TIP3      OH2            -7.6724896295      -30.6074371127       -6.6318430134  W2        311             0.0000000000
       932       311  TIP3      H1             -8.6007996295      -30.8392471127       -6.6589130134  W2        311             0.0000000000
       933       311  TIP3      H2             -7.2213796295      -31.3844571127       -6.9619630134  W2        311             0.0000000000
       934       312  TIP3      OH2           -15.1291796295      -26.2792771127      -10.4989730134  W2        312             0.0000000000
       935       312  TIP3      H1            -14.6019596295      -25.5058371127      -10.6990930134  W2        312             0.0000000000
       936       312  TIP3      H2            -16.0093296295      -26.0543571127      -10.8005730134  W2        312             0.0000000000
       937       313  TIP3      OH2           -19.3744096295      -31.4168671127      -15.9117330134  W2        313             0.0000000000
       938       313  TIP3      H1            -18.7584196295      -30.7901471127      -15.5322530134  W2        313             0.0000000000
       939       313  TIP3      H2            -20.2361496295      -31.1008871127      -15.6400830134  W2        313             0.0000000000
       940       314  TIP3      OH2           -13.7019496295      -28.6162871127      -10.9225430134  W2        314             0.0000000000
       941       314  TIP3      H1            -13.9429496295      -27.6908471127      -10.8810130134  W2        314             0.0000000000
       942       314  TIP3      H2            -14.4425896295      -29.0751571127      -10.5261530134  W2        314             0.0000000000
       943       315  TIP3      OH2           -13.1872896295      -24.4669271127       -4.6074330134  W2        315             0.0000000000
       944       315  TIP3      H1            -12.8248196295      -23.6123671127       -4.8409930134  W2        315             0.0000000000
       945       315  TIP3      H2            -12.6557696295      -24.7587671127       -3.8668030134  W2        315             0.0000000000
       946       316  TIP3      OH2           -15.0188696295      -23.5945271127      -11.3773230134  W2        316             0.0000000000
       947       316  TIP3      H1            -15.9688196295      -23.4887871127      -11.3259930134  W2        316             0.0000000000
       948       316  TIP3      H2            -14.6670596295      -22.7737871127      -11.0325730134  W2        316             0.0000000000
       949       317  TIP3      OH2            -9.6432096295      -28.3678571127       -4.9068730134  W2        317             0.0000000000
       950       317  TIP3      H1            -10.0690796295      -28.5956871127       -4.0804730134  W2        317             0.0000000000
       951       317  TIP3      H2             -9.0626296295      -29.1066771127       -5.0893430134  W2        317             0.0000000000
       952       318  TIP3      OH2            -7.4403196295      -27.4388071127      -15.8329730134  W2        318             0.0000000000
       953       318  TIP3      H1             -7.0870096295      -27.8188271127      -15.0286230134  W2        318             0.0000000000
       954       318  TIP3      H2             -8.3889696295      -27.5323271127      -15.7460430134  W2        318             0.0000000000
       955       319  TIP3      OH2            -6.9847896295      -23.8159071127       -2.4373930134  W2        319             0.0000000000
       956       319  TIP3      H1             -7.5864696295      -24.3716171127       -2.9327630134  W2        319             0.0000000000
       957       319  TIP3      H2             -6.7034196295      -23.1489271127       -3.0636530134  W2        319             0.0000000000
       958       320  TIP3      OH2            -2.9368796295      -22.9595571127      -15.6319530134  W2        320             0.0000000000
       959       320  TIP3      H1             -2.1930896295      -22.3735071127      -15.7717930134  W2        320             0.0000000000
       960       320  TIP3      H2             -3.6310696295      -22.3909771127      -15.2987130134  W2        320             0.0000000000
       961       321  TIP3      OH2           -18.8621996295      -36.5831371127       -3.0301330134  W2        321             0.0000000000
       962       321  TIP3      H1            -19.7549696295      -36.2445971127       -3.0977330134  W2        321             0.0000000000
       963       321  TIP3      H2            -18.9609196295      -37.4385271127       -2.6120530134  W2        321             0.0000000000
       964       322  TIP3      OH2            -6.5743896295      -28.7666071127      -13.6061830134  W2        322             0.0000000000
       965       322  TIP3      H1             -6.8516296295      -29.4946771127      -13.0500730134  W2        322             0.0000000000
       966       322  TIP3      H2             -5.6470896295      -28.6474071127      -13.4009230134  W2        322             0.0000000000
       967       323  TIP3      OH2           -19.2109996295      -24.7786971127       -4.5951930134  W2        323             0.0000000000
       968       323  TIP3      H1            -18.9939696295      -25.7104571127       -4.6262230134  W2        323             0.0000000000
       969       323  TIP3      H2            -18.9646496295      -24.5041971127       -3.7119130134  W2        323             0.0000000000
       970       324  TIP3      OH2           -13.3495396295      -26.3271971127      -17.3859730134  W2        324             0.0000000000
       971       324  TIP3      H1            -13.1105596295      -27.0753871127      -17.9330830134  W2        324             0.0000000000
       972       324  TIP3      H2            -13.6184096295      -26.7150271127      -16.5531930134  W2        324             0.0000000000
       973       325  TIP3      OH2           -14.4124796295      -26.7568171127      -14.9297130134  W2        325             0.0000000000
       974       325  TIP3      H1            -14.2656796295      -27.2768371127      -14.1396230134  W2        325             0.0000000000
       975       325  TIP3      H2            -14.4153096295      -25.8500571127      -14.6231230134  W2        325             0.0000000000
       976       326  TIP3      OH2           -17.9593696295      -29.5044871127      -14.4191730134  W2        326             0.0000000000
       977       326  TIP3      H1            -18.6454396295      -29.1522371127      -13.8522030134  W2        326             0.0000000000
       978       326  TIP3      H2            -17.4365796295      -28.7415271127      -14.6657430134  W2        326             0.0000000000
       979       327  TIP3      OH2           -10.1278596295      -36.8421071127       -4.1402730134  W2        327             0.0000000000
       980       327  TIP3      H1             -9.4290696295      -36.7682371127       -3.4903030134  W2        327             0.0000000000
       981       327  TIP3      H2            -10.5087196295      -37.7066071127       -3.9859830134  W2        327             0.0000000000
       982       328  TIP3      OH2            -9.3433696295      -37.1899371127      -13.0430430134  W2        328             0.0000000000
       983       328  TIP3      H1             -9.1235396295      -36.7183971127      -13.8465030134  W2        328             0.0000000000
       984       328  TIP3      H2             -8.7849696295      -36.7956771127      -12.3729830134  W2        328             0.0000000000
       985       329  TIP3      OH2           -11.6747596295      -25.0594571127      -14.1802930134  W2        329             0.0000000000
       986       329  TIP3      H1            -12.4911496295      -24.5624871127      -14.1278630134  W2        329             0.0000000000
       987       329  TIP3      H2            -11.1451296295      -24.5841071127      -14.8204130134  W2        329             0.0000000000
       988       330  TIP3      OH2           -12.1433796295      -35.4620571127      -12.2082030134  W2        330             0.0000000000
       989       330  TIP3      H1            -11.3311196295      -34.9577371127      -12.1620330134  W2        330             0.0000000000
       990       330  TIP3      H2            -12.3880796295      -35.6070871127      -11.2942430134  W2        330             0.0000000000
       991       331  TIP3      OH2           -11.6077396295      -34.4757871127       -3.0235430134  W2        331             0.0000000000
       992       331  TIP3      H1            -11.4887096295      -33.9022471127       -2.2665030134  W2        331             0.0000000000
       993       331  TIP3      H2            -10.9522796295      -35.1638471127       -2.9087630134  W2        331             0.0000000000
       994       332  TIP3      OH2           -11.2597096295      -38.3807571127      -11.2700930134  W2        332             0.0000000000
       995       332  TIP3      H1            -11.6063596295      -37.7636971127      -10.6256630134  W2        332             0.0000000000
       996       332  TIP3      H2            -10.6010196295      -37.8801871127      -11.7515430134  W2        332             0.0000000000
       997       333  TIP3      OH2           -14.3364496295      -24.0157371127      -14.1986030134  W2        333             0.0000000000
       998       333  TIP3      H1            -14.1755796295      -23.2159871127      -14.6993430134  W2        333             0.0000000000
       999       333  TIP3      H2            -14.5336696295      -23.7091371127      -13.3135430134  W2        333             0.0000000000
      1000       334  TIP3      OH2           -15.6020096295      -37.3178171127      -14.5828430134  W2        334             0.0000000000
      1001       334  TIP3      H1            -15.6855296295      -36.4295071127      -14.2362030134  W2        334             0.0000000000
      1002       334  TIP3      H2            -14.7119796295      -37.5831471127      -14.3511630134  W2        334             0.0000000000
      1003       335  TIP3      OH2            -5.4031596295      -36.5687571127       -2.1885730134  W2        335             0.0000000000
      1004       335  TIP3      H1             -6.3195796295      -36.3065871127       -2.2762030134  W2        335             0.0000000000
      1005       335  TIP3      H2             -5.0676596295      -36.5718571127       -3.0850430134  W2        335             0.0000000000
      1006       336  TIP3      OH2            -6.8010596295      -32.8186571127       -8.0928430134  W2        336             0.0000000000
      1007       336  TIP3      H1             -7.5986196295      -33.2336371127       -8.4213430134  W2        336             0.0000000000
      1008       336  TIP3      H2             -6.3559496295      -33.5092871127       -7.6017930134  W2        336             0.0000000000
      1009       337  TIP3      OH2           -17.3434796295      -26.8905971127      -15.5223930134  W2        337             0.0000000000
      1010       337  TIP3      H1            -16.7513296295      -26.1911171127      -15.2461530134  W2        337             0.0000000000
      1011       337  TIP3      H2            -16.8841796295      -27.3236471127      -16.2419330134  W2        337             0.0000000000
      1012       338  TIP3      OH2           -19.0275596295      -34.2262971127      -16.4064530134  W2        338             0.0000000000
      1013       338  TIP3      H1            -19.0722996295      -33.2869871127      -16.2277530134  W2        338             0.0000000000
      1014       338  TIP3      H2            -19.9152396295      -34.4618071127      -16.6762430134  W2        338             0.0000000000
      1015       339  TIP3      OH2            -5.7145996295      -23.5624071127       -6.4704930134  W2        339             0.0000000000
      1016       339  TIP3      H1             -5.8701696295      -22.8839671127       -7.1275630134  W2        339             0.0000000000
      1017       339  TIP3      H2             -4.7819596295      -23.4904771127       -6.2674330134  W2        339             0.0000000000
      1018       340  TIP3      OH2           -18.2193596295      -39.4446371127       -7.7333530134  W2        340             0.0000000000
      1019       340  TIP3      H1            -18.4483796295      -39.3853871127       -8.6608530134  W2        340             0.0000000000
      1020       340  TIP3      H2            -18.6620196295      -40.2360871127       -7.4269430134  W2        340             0.0000000000
      1021       341  TIP3      OH2           -19.2890296295      -25.5039271127      -11.5727730134  W2        341             0.0000000000
      1022       341  TIP3      H1            -20.1211696295      -25.0316571127      -11.5456330134  W2        341             0.0000000000
      1023       341  TIP3      H2            -18.7431996295      -24.9941671127      -12.1714630134  W2        341             0.0000000000
      1024       342  TIP3      OH2           -20.0006596295      -22.8915571127       -0.2429730134  W2        342             0.0000000000
      1025       342  TIP3      H1            -19.4604396295      -23.1081571127        0.5169469866  W2        342             0.0000000000
      1026       342  TIP3      H2            -20.4818596295      -23.6969571127       -0.4327230134  W2        342             0.0000000000
      1027       343  TIP3      OH2           -15.4033196295      -23.9721171127        1.3774469866  W2        343             0.0000000000
      1028       343  TIP3      H1            -14.6355996295      -24.4310371127        1.7183669866  W2        343             0.0000000000
      1029       343  TIP3      H2            -15.4246996295      -24.1981371127        0.4475669866  W2        343             0.0000000000
      1030       344  TIP3      OH2           -11.3113596295      -24.4640571127      -17.2473730134  W2        344             0.0000000000
      1031       344  TIP3      H1            -11.9552596295      -25.0951971127      -16.9260030134  W2        344             0.0000000000
      1032       344  TIP3      H2            -10.5495296295      -24.9952571127      -17.4790230134  W2        344             0.0000000000
      1033       345  TIP3      OH2            -8.8264496295      -25.5920071127        0.1065969866  W2        345             0.0000000000
      1034       345  TIP3      H1             -9.1774996295      -26.4487071127        0.3496369866  W2        345             0.0000000000
      1035       345  TIP3      H2             -8.1001296295      -25.4493371127        0.7134969866  W2        345             0.0000000000
      1036       346  TIP3      OH2            -6.7070696295      -24.6470671127      -17.0135730134  W2        346             0.0000000000
      1037       346  TIP3      H1             -6.4240296295      -25.4415471127      -16.5608830134  W2        346             0.0000000000
      1038       346  TIP3      H2             -5.9672796295      -24.4139671127      -17.5744630134  W2        346             0.0000000000
      1039       347  TIP3      OH2           -20.0937096295      -29.0811471127        0.7114569866  W2        347             0.0000000000
      1040       347  TIP3      H1            -19.9496596295      -29.9830771127        0.4251269866  W2        347             0.0000000000
      1041       347  TIP3      H2            -20.8659696295      -28.7949371127        0.2236869866  W2        347             0.0000000000
      1042       348  TIP3      OH2           -15.7523396295      -28.7375771127      -17.1560830134  W2        348             0.0000000000
      1043       348  TIP3      H1            -15.6879296295      -29.5316171127      -16.6254430134  W2        348             0.0000000000
      1044       348  TIP3      H2            -15.0994196295      -28.8562971127      -17.8458830134  W2        348             0.0000000000
      1045       349  TIP3      OH2           -13.4380996295      -29.1113371127        0.1440969866  W2        349             0.0000000000
      1046       349  TIP3      H1            -13.7667196295      -28.8405271127       -0.7131630134  W2        349             0.0000000000
      1047       349  TIP3      H2            -13.2862796295      -30.0523571127        0.0565969866  W2        349             0.0000000000
      1048       350  TIP3      OH2           -10.3999996295      -27.6904071127      -17.4202830134  W2        350             0.0000000000
      1049       350  TIP3      H1            -10.6685896295      -27.5101971127      -16.5193930134  W2        350             0.0000000000
      1050       350  TIP3      H2            -10.6064396295      -28.6157871127      -17.5517030134  W2        350             0.0000000000
      1051       351  TIP3      OH2            -7.7035796295      -29.1956071127       -2.4726730134  W2        351             0.0000000000
      1052       351  TIP3      H1             -6.9580996295      -28.6072371127       -2.5922730134  W2        351             0.0000000000
      1053       351  TIP3      H2             -8.4608996295      -28.6136371127       -2.4093630134  W2        351             0.0000000000
      1054       352  TIP3      OH2           -19.2610596295      -31.8808171127        0.1313869866  W2        352             0.0000000000
      1055       352  TIP3      H1            -18.8529396295      -32.7381571127        0.0104469866  W2        352             0.0000000000
      1056       352  TIP3      H2            -19.5212996295      -31.8666871127        1.0524169866  W2        352             0.0000000000
      1057       353  TIP3      OH2           -14.6029596295      -30.7649571127      -14.8502830134  W2        353             0.0000000000
      1058       353  TIP3      H1            -15.0627596295      -31.2491271127      -14.1644330134  W2        353             0.0000000000
      1059       353  TIP3      H2            -14.3480896295      -31.4334171127      -15.4862330134  W2        353             0.0000000000
      1060       354  TIP3      OH2           -15.3140296295      -32.8722471127       -2.4943230134  W2        354             0.0000000000
      1061       354  TIP3      H1            -15.9324196295      -32.1975871127       -2.2138530134  W2        354             0.0000000000
      1062       354  TIP3      H2            -14.9699096295      -32.5508571127       -3.3277030134  W2        354             0.0000000000
      1063       355  TIP3      OH2           -13.5319196295      -32.5217771127      -16.5879630134  W2        355             0.0000000000
      1064       355  TIP3      H1            -13.7124196295      -32.6766571127      -17.5151330134  W2        355             0.0000000000
      1065       355  TIP3      H2            -12.5818696295      -32.4139071127      -16.5431730134  W2        355             0.0000000000
      1066       356  TIP3      OH2           -10.2942096295      -30.4007171127        0.7831569866  W2        356             0.0000000000
      1067       356  TIP3      H1             -9.3410896295      -30.3168071127        0.7557569866  W2        356             0.0000000000
      1068       356  TIP3      H2            -10.4547496295      -31.1125371127        1.4026469866  W2        356             0.0000000000
      1069       357  TIP3      OH2            -4.1420896295      -30.1673571127      -17.1421530134  W2        357             0.0000000000
      1070       357  TIP3      H1             -4.4156096295      -30.5918071127      -17.9553230134  W2        357             0.0000000000
      1071       357  TIP3      H2             -4.1026796295      -29.2359071127      -17.3591130134  W2        357             0.0000000000
      1072       358  TIP3      OH2           -14.9746596295      -35.5171671127       -1.4120130134  W2        358             0.0000000000
      1073       358  TIP3      H1            -14.8245696295      -36.2460371127       -2.0140430134  W2        358             0.0000000000
      1074       358  TIP3      H2            -14.9724196295      -34.7399971127       -1.9707930134  W2        358             0.0000000000
      1075       359  TIP3      OH2           -14.5620896295      -37.1475871127       -3.9192730134  W2        359             0.0000000000
      1076       359  TIP3      H1            -14.0263396295      -36.6959171127       -4.5713430134  W2        359             0.0000000000
      1077       359  TIP3      H2            -15.4141296295      -37.2556071127       -4.3418630134  W2        359             0.0000000000
      1078       360  TIP3      OH2           -12.9802496295      -31.7079671127       -3.6797530134  W2        360             0.0000000000
      1079       360  TIP3      H1            -12.2297696295      -31.8642171127       -4.2529730134  W2        360             0.0000000000
      1080       360  TIP3      H2            -13.3194196295      -30.8563071127       -3.9552030134  W2        360             0.0000000000
      1081       361  TIP3      OH2            -8.5646296295      -33.8927871127        1.3487769866  W2        361             0.0000000000
      1082       361  TIP3      H1             -8.3724996295      -34.8238471127        1.2372269866  W2        361             0.0000000000
      1083       361  TIP3      H2             -7.7069996295      -33.4678371127        1.3383169866  W2        361             0.0000000000
      1084       362  TIP3      OH2            -7.2479096295      -31.1042671127       -0.5739530134  W2        362             0.0000000000
      1085       362  TIP3      H1             -7.5294096295      -30.3948071127       -1.1515730134  W2        362             0.0000000000
      1086       362  TIP3      H2             -6.3054796295      -31.1769671127       -0.7248330134  W2        362             0.0000000000
      1087       363  TIP3      OH2           -16.4960296295      -34.3188171127        0.4995469866  W2        363             0.0000000000
      1088       363  TIP3      H1            -17.2631296295      -34.8513371127        0.2893069866  W2        363             0.0000000000
      1089       363  TIP3      H2            -15.8171296295      -34.6287771127       -0.0998230134  W2        363             0.0000000000
      1090       364  TIP3      OH2           -13.7565396295      -39.6910171127       -3.4879130134  W2        364             0.0000000000
      1091       364  TIP3      H1            -13.8545796295      -38.7446971127       -3.5932930134  W2        364             0.0000000000
      1092       364  TIP3      H2            -14.4989196295      -40.0636371127       -3.9635630134  W2        364             0.0000000000
      1093       365  TIP3      OH2           -12.4924896295      -35.3694771127        0.0759269866  W2        365             0.0000000000
      1094       365  TIP3      H1            -12.7279496295      -35.5888071127        0.9774169866  W2        365             0.0000000000
      1095       365  TIP3      H2            -13.2757996295      -35.5763571127       -0.4338230134  W2        365             0.0000000000
      1096       366  TIP3      OH2            -9.7768296295      -36.2421271127       -0.8487230134  W2        366             0.0000000000
      1097       366  TIP3      H1            -10.7242896295      -36.2101571127       -0.7163930134  W2        366             0.0000000000
      1098       366  TIP3      H2             -9.4641596295      -36.8674171127       -0.1949030134  W2        366             0.0000000000
      1099       367  TIP3      OH2            -8.1426796295      -37.6080171127        1.1564669866  W2        367             0.0000000000
      1100       367  TIP3      H1             -8.2394996295      -38.5602871127        1.1506569866  W2        367             0.0000000000
      1101       367  TIP3      H2             -8.4643696295      -37.3393371127        2.0170169866  W2        367             0.0000000000
      1102       368  TIP3      OH2           -18.3157496295      -36.3984371127        0.2040169866  W2        368             0.0000000000
      1103       368  TIP3      H1            -18.1040096295      -37.1048271127       -0.4062330134  W2        368             0.0000000000
      1104       368  TIP3      H2            -18.4269996295      -36.8358371127        1.0481369866  W2        368             0.0000000000
      1105       369  TIP3      OH2           -13.5347296295      -40.3972771127       -0.8166330134  W2        369             0.0000000000
      1106       369  TIP3      H1            -12.8228896295      -41.0370571127       -0.8307230134  W2        369             0.0000000000
      1107       369  TIP3      H2            -13.6356896295      -40.1304471127       -1.7303230134  W2        369             0.0000000000
      1108       370  TIP3      OH2           -13.1809796295      -38.7144371127        1.2369969866  W2        370             0.0000000000
      1109       370  TIP3      H1            -13.3127596295      -39.1900571127        0.4168469866  W2        370             0.0000000000
      1110       370  TIP3      H2            -13.7802396295      -37.9700771127        1.1817069866  W2        370             0.0000000000
      1111       371  TIP3      OH2           -13.6347496295      -21.8314071127      -15.5866030134  W2        371             0.0000000000
      1112       371  TIP3      H1            -12.7016796295      -21.6735371127      -15.4427630134  W2        371             0.0000000000
      1113       371  TIP3      H2            -13.8988696295      -21.1561071127      -16.2114530134  W2        371             0.0000000000
      1114       372  TIP3      OH2           -20.0662596295      -27.1950271127      -16.1037930134  W2        372             0.0000000000
      1115       372  TIP3      H1            -19.1523396295      -27.1161371127      -15.8304030134  W2        372             0.0000000000
      1116       372  TIP3      H2            -20.0589496295      -27.8820671127      -16.7702330134  W2        372             0.0000000000
      1117       373  TIP3      OH2           -21.4171996295      -21.8021771127      -11.0264030134  W2        373             0.0000000000
      1118       373  TIP3      H1            -22.0644896295      -22.2640071127      -11.5592830134  W2        373             0.0000000000
      1119       373  TIP3      H2            -21.0627396295      -22.4738471127      -10.4437830134  W2        373             0.0000000000
      1120       374  TIP3      OH2           -20.5472796295      -23.7214771127       -9.2217830134  W2        374             0.0000000000
      1121       374  TIP3      H1            -20.8815996295      -24.6017471127       -9.0497630134  W2        374             0.0000000000
      1122       374  TIP3      H2            -20.3250396295      -23.3759771127       -8.3572230134  W2        374             0.0000000000
      1123       375  TIP3      OH2            -2.9987996295      -22.9118371127       -6.2413030134  W2        375             0.0000000000
      1124       375  TIP3      H1             -3.0201296295      -22.7269971127       -5.3023630134  W2        375             0.0000000000
      1125       375  TIP3      H2             -2.3081796295      -22.3434371127       -6.5821630134  W2        375             0.0000000000
      1126       376  TIP3      OH2            -3.4355096295      -23.3447271127       -3.3193930134  W2        376             0.0000000000
      1127       376  TIP3      H1             -3.9226396295      -24.0803171127       -3.6906530134  W2        376             0.0000000000
      1128       376  TIP3      H2             -2.8862396295      -23.7383371127       -2.6414530134  W2        376             0.0000000000
      1129       377  TIP3      OH2            -4.9847796295      -27.5549171127        1.3186369866  W2        377             0.0000000000
      1130       377  TIP3      H1             -5.8506696295      -27.6599471127        1.7128669866  W2        377             0.0000000000
      1131       377  TIP3      H2             -4.6081896295      -26.7965871127        1.7651069866  W2        377             0.0000000000
      1132       378  TIP3      OH2            -3.6838096295      -29.2985471127      -13.1671130134  W2        378             0.0000000000
      1133       378  TIP3      H1             -2.8336696295      -28.8774571127      -13.0399530134  W2        378             0.0000000000
      1134       378  TIP3      H2             -3.6782996295      -30.0385371127      -12.5599730134  W2        378             0.0000000000
      1135       379  TIP3      OH2            -3.2892496295      -31.2448071127      -11.3435430134  W2        379             0.0000000000
      1136       379  TIP3      H1             -4.0157896295      -31.7245471127      -10.9457830134  W2        379             0.0000000000
      1137       379  TIP3      H2             -2.7079196295      -31.0393371127      -10.6113830134  W2        379             0.0000000000
      1138       380  TIP3      OH2            -3.5301296295      -28.4600571127       -6.3957830134  W2        380             0.0000000000
      1139       380  TIP3      H1             -2.6967096295      -28.8380571127       -6.6764230134  W2        380             0.0000000000
      1140       380  TIP3      H2             -3.4180996295      -27.5169371127       -6.5148730134  W2        380             0.0000000000
      1141       381  TIP3      OH2            -5.0438996295      -25.5823071127       -4.0889430134  W2        381             0.0000000000
      1142       381  TIP3      H1             -5.6913696295      -25.2571571127       -3.4634230134  W2        381             0.0000000000
      1143       381  TIP3      H2             -5.5614996295      -26.0225371127       -4.7631130134  W2        381             0.0000000000
      1144       382  TIP3      OH2            -3.0209396295      -31.3439571127      -14.9524130134  W2        382             0.0000000000
      1145       382  TIP3      H1             -3.5428296295      -30.9875471127      -15.6713230134  W2        382             0.0000000000
      1146       382  TIP3      H2             -3.0540196295      -30.6691771127      -14.2743230134  W2        382             0.0000000000
      1147       383  TIP3      OH2            -4.6720396295      -34.1043971127      -16.4017030134  W2        383             0.0000000000
      1148       383  TIP3      H1             -4.5755996295      -33.4376971127      -17.0817330134  W2        383             0.0000000000
      1149       383  TIP3      H2             -4.8120796295      -34.9197671127      -16.8831530134  W2        383             0.0000000000
      1150       384  TIP3      OH2            -5.5025696295      -32.7241571127      -10.7806730134  W2        384             0.0000000000
      1151       384  TIP3      H1             -5.6526896295      -33.6692971127      -10.8008930134  W2        384             0.0000000000
      1152       384  TIP3      H2             -5.8561196295      -32.4430171127       -9.9367630134  W2        384             0.0000000000
      1153       385  TIP3      OH2           -20.4673296295      -30.6459371127       -6.7702930134  W2        385             0.0000000000
      1154       385  TIP3      H1            -20.2830396295      -30.7277671127       -7.7060030134  W2        385             0.0000000000
      1155       385  TIP3      H2            -19.6180396295      -30.7702371127       -6.3466530134  W2        385             0.0000000000
      1156       386  TIP3      OH2            -4.6462796295      -30.7538271127       -1.1418430134  W2        386             0.0000000000
      1157       386  TIP3      H1             -4.0635496295      -31.4885971127       -0.9501230134  W2        386             0.0000000000
      1158       386  TIP3      H2             -4.0823496295      -29.9817971127       -1.0952630134  W2        386             0.0000000000
      1159       387  TIP3      OH2            -3.1495696295      -32.8512471127       -0.4573030134  W2        387             0.0000000000
      1160       387  TIP3      H1             -4.0128996295      -33.2300371127       -0.6228330134  W2        387             0.0000000000
      1161       387  TIP3      H2             -2.5451996295      -33.5897671127       -0.5317230134  W2        387             0.0000000000
      1162       388  TIP3      OH2            -5.4246596295      -36.6964171127      -17.2841530134  W2        388             0.0000000000
      1163       388  TIP3      H1             -4.8140796295      -37.0677371127      -16.6473330134  W2        388             0.0000000000
      1164       388  TIP3      H2             -6.2615096295      -37.1177271127      -17.0881530134  W2        388             0.0000000000
      1165       389  TIP3      OH2            -5.7920896295      -35.1415771127      -12.3181630134  W2        389             0.0000000000
      1166       389  TIP3      H1             -5.5123796295      -36.0485371127      -12.1939930134  W2        389             0.0000000000
      1167       389  TIP3      H2             -5.0329196295      -34.7074271127      -12.7072430134  W2        389             0.0000000000
      1168       390  TIP3      OH2            -5.1802596295      -34.5598371127       -6.8822730134  W2        390             0.0000000000
      1169       390  TIP3      H1             -4.2474596295      -34.3478471127       -6.9166730134  W2        390             0.0000000000
      1170       390  TIP3      H2             -5.4155096295      -34.4586271127       -5.9599730134  W2        390             0.0000000000
      1171       391  TIP3      OH2            -5.1510696295      -33.8233071127       -4.1063330134  W2        391             0.0000000000
      1172       391  TIP3      H1             -5.9939396295      -33.5552671127       -3.7403530134  W2        391             0.0000000000
      1173       391  TIP3      H2             -4.7086396295      -33.0011171127       -4.3172230134  W2        391             0.0000000000
      1174       392  TIP3      OH2           -20.8698496295      -35.3754371127       -0.6294130134  W2        392             0.0000000000
      1175       392  TIP3      H1            -19.9503596295      -35.4976071127       -0.3931030134  W2        392             0.0000000000
      1176       392  TIP3      H2            -21.3193996295      -36.1254671127       -0.2400630134  W2        392             0.0000000000
      1177       393  TIP3      OH2            -2.8679096295      -39.8432871127        1.2471669866  W2        393             0.0000000000
      1178       393  TIP3      H1             -2.5182096295      -40.4969371127        0.6416369866  W2        393             0.0000000000
      1179       393  TIP3      H2             -2.7209596295      -39.0058771127        0.8074269866  W2        393             0.0000000000
      1180       394  TIP3      OH2            -5.1786096295      -37.8786471127      -12.2699630134  W2        394             0.0000000000
      1181       394  TIP3      H1             -4.9961096295      -38.3274971127      -11.4444630134  W2        394             0.0000000000
      1182       394  TIP3      H2             -5.7783196295      -38.4632071127      -12.7335030134  W2        394             0.0000000000
      1183       395  TIP3      OH2           -19.6485996295      -37.0632771127       -7.7381230134  W2        395             0.0000000000
      1184       395  TIP3      H1            -19.2034396295      -37.8550271127       -7.4361530134  W2        395             0.0000000000
      1185       395  TIP3      H2            -19.1822996295      -36.3467571127       -7.3075630134  W2        395             0.0000000000
      1186       396  TIP3      OH2           -21.3445696295      -34.0639771127       -6.6691030134  W2        396             0.0000000000
      1187       396  TIP3      H1            -20.8525896295      -34.2849271127       -7.4599030134  W2        396             0.0000000000
      1188       396  TIP3      H2            -20.9824796295      -33.2236371127       -6.3881530134  W2        396             0.0000000000
      1189       397  TIP3      OH2            -3.3481896295      -37.7338271127       -0.4037030134  W2        397             0.0000000000
      1190       397  TIP3      H1             -4.2656196295      -37.4631171127       -0.4393530134  W2        397             0.0000000000
      1191       397  TIP3      H2             -3.2252496295      -38.2689871127       -1.1877330134  W2        397             0.0000000000
      1192       398  TIP3      OH2            -3.3119896295      -37.8108371127      -15.7419330134  W2        398             0.0000000000
      1193       398  TIP3      H1             -2.8997296295      -38.5322671127      -16.2171330134  W2        398             0.0000000000
      1194       398  TIP3      H2             -2.6303396295      -37.1413771127      -15.6835030134  W2        398             0.0000000000
      1195       399  TIP3      OH2           -21.0309196295      -37.8060671127      -12.6148630134  W2        399             0.0000000000
      1196       399  TIP3      H1            -21.9560796295      -37.5974071127      -12.7443130134  W2        399             0.0000000000
      1197       399  TIP3      H2            -20.5769296295      -37.3219871127      -13.3046330134  W2        399             0.0000000000
      1198       400  TIP3      OH2            -6.2601996295      -22.8218971127      -10.6691230134  W2        400             0.0000000000
      1199       400  TIP3      H1             -5.6079096295      -23.1696871127      -11.2772130134  W2        400             0.0000000000
      1200       400  TIP3      H2             -5.7498196295      -22.3335771127      -10.0231530134  W2        400             0.0000000000
      1201       401  TIP3      OH2           -21.0673796295      -39.0681671127       -4.2706130134  W2        401             0.0000000000
      1202       401  TIP3      H1            -21.7323296295      -39.3141371127       -3.6275230134  W2        401             0.0000000000
      1203       401  TIP3      H2            -21.5102496295      -38.4461271127       -4.8478130134  W2        401             0.0000000000
      1204       402  TIP3      OH2           -18.8754496295      -25.8927571127       -0.1260330134  W2        402             0.0000000000
      1205       402  TIP3      H1            -19.6961996295      -25.7181071127       -0.5865630134  W2        402             0.0000000000
      1206       402  TIP3      H2            -19.1276696295      -25.9662871127        0.7944069866  W2        402             0.0000000000
      1207       403  TIP3      OH2           -15.9211596295      -24.9186371127       -3.8676330134  W2        403             0.0000000000
      1208       403  TIP3      H1            -16.3460496295      -24.1087871127       -4.1501730134  W2        403             0.0000000000
      1209       403  TIP3      H2            -15.0168796295      -24.8332271127       -4.1696530134  W2        403             0.0000000000
      1210       404  TIP3      OH2           -11.6100196295      -23.5196371127       -0.9082630134  W2        404             0.0000000000
      1211       404  TIP3      H1            -11.4252696295      -23.8530271127       -0.0302330134  W2        404             0.0000000000
      1212       404  TIP3      H2            -10.7635696295      -23.2097771127       -1.2303430134  W2        404             0.0000000000
      1213       405  TIP3      OH2            -9.2649796295      -22.2337471127       -1.6641230134  W2        405             0.0000000000
      1214       405  TIP3      H1             -8.5880896295      -22.8665171127       -1.9042030134  W2        405             0.0000000000
      1215       405  TIP3      H2             -8.9430996295      -21.8326971127       -0.8567930134  W2        405             0.0000000000
      1216       406  TIP3      OH2            -4.3475996295      -39.6441971127       -2.5846230134  W2        406             0.0000000000
      1217       406  TIP3      H1             -5.1602496295      -39.3191671127       -2.9721530134  W2        406             0.0000000000
      1218       406  TIP3      H2             -4.1147496295      -40.4043471127       -3.1177130134  W2        406             0.0000000000
      1219       407  TIP3      OH2           -18.5194896295      -21.6622471127       -3.8201030134  W2        407             0.0000000000
      1220       407  TIP3      H1            -19.2398496295      -21.2221471127       -4.2713330134  W2        407             0.0000000000
      1221       407  TIP3      H2            -18.8850896295      -21.9127771127       -2.9717030134  W2        407             0.0000000000
      1222       408  TIP3      OH2           -16.0522296295      -22.0618571127       -4.7903830134  W2        408             0.0000000000
      1223       408  TIP3      H1            -16.9170096295      -21.9900071127       -4.3863730134  W2        408             0.0000000000
      1224       408  TIP3      H2            -16.1073296295      -21.5151271127       -5.5741330134  W2        408             0.0000000000
      1225       409  TIP3      OH2           -11.3416696295      -22.1739671127       -5.6147830134  W2        409             0.0000000000
      1226       409  TIP3      H1            -11.7982696295      -21.6449971127       -6.2689430134  W2        409             0.0000000000
      1227       409  TIP3      H2            -11.1788696295      -21.5708271127       -4.8895530134  W2        409             0.0000000000
      1228       410  TIP3      OH2            -9.0140396295      -23.2960071127       -4.6697530134  W2        410             0.0000000000
      1229       410  TIP3      H1             -9.9186696295      -23.1309871127       -4.9355430134  W2        410             0.0000000000
      1230       410  TIP3      H2             -8.5851796295      -22.4427871127       -4.7354130134  W2        410             0.0000000000
      1231       411  TIP3      OH2            -6.4098496295      -21.7260971127       -4.3749730134  W2        411             0.0000000000
      1232       411  TIP3      H1             -6.5916496295      -20.8102071127       -4.5854830134  W2        411             0.0000000000
      1233       411  TIP3      H2             -6.2330696295      -22.1363871127       -5.2215130134  W2        411             0.0000000000
      1234       412  TIP3      OH2           -19.1046796295      -23.0389971127       -6.9099230134  W2        412             0.0000000000
      1235       412  TIP3      H1            -19.1230796295      -23.4644871127       -6.0526930134  W2        412             0.0000000000
      1236       412  TIP3      H2            -18.2998896295      -23.3574971127       -7.3187030134  W2        412             0.0000000000
      1237       413  TIP3      OH2           -16.9633696295      -24.3291271127       -8.2549330134  W2        413             0.0000000000
      1238       413  TIP3      H1            -17.1822996295      -25.2453871127       -8.0853330134  W2        413             0.0000000000
      1239       413  TIP3      H2            -16.1391496295      -24.1890871127       -7.7887930134  W2        413             0.0000000000
      1240       414  TIP3      OH2           -14.4261196295      -23.8591971127       -7.4061330134  W2        414             0.0000000000
      1241       414  TIP3      H1            -14.2135496295      -24.7472971127       -7.6930430134  W2        414             0.0000000000
      1242       414  TIP3      H2            -14.3616096295      -23.8934271127       -6.4517330134  W2        414             0.0000000000
      1243       415  TIP3      OH2           -10.9177496295      -38.1951371127       -8.2618030134  W2        415             0.0000000000
      1244       415  TIP3      H1            -11.5920696295      -38.8245771127       -8.0062230134  W2        415             0.0000000000
      1245       415  TIP3      H2            -10.3538296295      -38.6792471127       -8.8650130134  W2        415             0.0000000000
      1246       416  TIP3      OH2            -5.7750296295      -40.0877371127       -8.1490930134  W2        416             0.0000000000
      1247       416  TIP3      H1             -5.1712696295      -39.5401971127       -8.6509930134  W2        416             0.0000000000
      1248       416  TIP3      H2             -6.6448296295      -39.7686971127       -8.3896830134  W2        416             0.0000000000
      1249       417  TIP3      OH2            -4.0479896295      -38.9488671127       -9.8160030134  W2        417             0.0000000000
      1250       417  TIP3      H1             -3.4362396295      -39.4632971127      -10.3426430134  W2        417             0.0000000000
      1251       417  TIP3      H2             -3.6656496295      -38.0716571127       -9.7925630134  W2        417             0.0000000000
      1252       418  TIP3      OH2           -18.5909996295      -39.5611071127      -10.4398130134  W2        418             0.0000000000
      1253       418  TIP3      H1            -19.3680196295      -39.7956171127      -10.9472230134  W2        418             0.0000000000
      1254       418  TIP3      H2            -18.0606396295      -40.3578971127      -10.4310130134  W2        418             0.0000000000
      1255       419  TIP3      OH2           -19.7546596295      -39.7632971127      -14.6362030134  W2        419             0.0000000000
      1256       419  TIP3      H1            -19.3155896295      -39.1522471127      -15.2278530134  W2        419             0.0000000000
      1257       419  TIP3      H2            -20.3884196295      -39.2248871127      -14.1622030134  W2        419             0.0000000000
      1258       420  TIP3      OH2           -14.0117396295      -39.6343971127      -10.6265030134  W2        420             0.0000000000
      1259       420  TIP3      H1            -13.1373996295      -39.2459671127      -10.6560730134  W2        420             0.0000000000
      1260       420  TIP3      H2            -14.1476596295      -39.8496171127       -9.7037830134  W2        420             0.0000000000
      1261       421  TIP3      OH2            -8.4548996295      -39.6044171127       -8.9773330134  W2        421             0.0000000000
      1262       421  TIP3      H1             -8.3787396295      -39.5092571127       -9.9267330134  W2        421             0.0000000000
      1263       421  TIP3      H2             -8.7299796295      -40.5121271127       -8.8484230134  W2        421             0.0000000000
      1264       422  TIP3      OH2            -7.1016396295      -39.5786371127      -13.2848330134  W2        422             0.0000000000
      1265       422  TIP3      H1             -7.8045296295      -38.9637171127      -13.4946930134  W2        422             0.0000000000
      1266       422  TIP3      H2             -7.5464996295      -40.4159671127      -13.1537430134  W2        422             0.0000000000
      1267       423  TIP3      OH2           -19.8537096295      -23.8150771127      -13.7386930134  W2        423             0.0000000000
      1268       423  TIP3      H1            -20.5387196295      -23.8531871127      -14.4061830134  W2        423             0.0000000000
      1269       423  TIP3      H2            -19.8499896295      -22.9023171127      -13.4504830134  W2        423             0.0000000000
      1270       424  TIP3      OH2           -17.8937496295      -37.8471471127      -16.1937930134  W2        424             0.0000000000
      1271       424  TIP3      H1            -17.4024096295      -38.4769071127      -16.7212430134  W2        424             0.0000000000
      1272       424  TIP3      H2            -17.2701196295      -37.5512071127      -15.5306730134  W2        424             0.0000000000
      1273       425  TIP3      OH2           -12.8677396295      -37.5539971127      -13.7367430134  W2        425             0.0000000000
      1274       425  TIP3      H1            -12.6896096295      -38.2006771127      -13.0538830134  W2        425             0.0000000000
      1275       425  TIP3      H2            -12.9211196295      -36.7202271127      -13.2696330134  W2        425             0.0000000000
      1276       426  TIP3      OH2           -10.9893596295      -22.6055871127      -15.3410730134  W2        426             0.0000000000
      1277       426  TIP3      H1            -10.1233396295      -22.2388471127      -15.5192530134  W2        426             0.0000000000
      1278       426  TIP3      H2            -11.2360796295      -23.0447871127      -16.1549930134  W2        426             0.0000000000
      1279       427  TIP3      OH2            -4.2803996295      -23.0425571127      -12.6619630134  W2        427             0.0000000000
      1280       427  TIP3      H1             -4.4746896295      -23.7903471127      -13.2270030134  W2        427             0.0000000000
      1281       427  TIP3      H2             -4.3193896295      -22.2845471127      -13.2451730134  W2        427             0.0000000000
      1282       428  TIP3      OH2           -18.6331996295      -39.0469171127       -0.9221930134  W2        428             0.0000000000
      1283       428  TIP3      H1            -18.9993796295      -39.8126571127       -0.4797230134  W2        428             0.0000000000
      1284       428  TIP3      H2            -17.7203496295      -39.0178971127       -0.6356830134  W2        428             0.0000000000
      1285       429  TIP3      OH2           -16.6601196295      -39.6964771127        0.6135169866  W2        429             0.0000000000
      1286       429  TIP3      H1            -15.7617596295      -39.9704571127        0.4288569866  W2        429             0.0000000000
      1287       429  TIP3      H2            -17.0468096295      -40.4388771127        1.0777769866  W2        429             0.0000000000
      1288       430  TIP3      OH2           -18.0355896295      -22.8949971127      -16.7134830134  W2        430             0.0000000000
      1289       430  TIP3      H1            -18.3031296295      -22.6087071127      -15.8401730134  W2        430             0.0000000000
      1290       430  TIP3      H2            -17.2643296295      -23.4410771127      -16.5612330134  W2        430             0.0000000000
      1291       431  TIP3      OH2            -8.2388896295      -40.3639471127        0.7957969866  W2        431             0.0000000000
      1292       431  TIP3      H1             -8.1621696295      -40.7898771127        1.6495669866  W2        431             0.0000000000
      1293       431  TIP3      H2             -7.3452296295      -40.3504771127        0.4531469866  W2        431             0.0000000000
      1294       432  TIP3      OH2            -5.0627796295      -24.2913171127       -0.5117830134  W2        432             0.0000000000
      1295       432  TIP3      H1             -5.8445896295      -24.4775171127       -1.0317230134  W2        432             0.0000000000
      1296       432  TIP3      H2             -5.1347896295      -23.3618871127       -0.2945330134  W2        432             0.0000000000
      1297       433  TIP3      OH2             9.3432603705      -30.4048771127      -10.4810630134  W2        433             0.0000000000
      1298       433  TIP3      H1              9.4323703705      -29.4610571127      -10.6133530134  W2        433             0.0000000000
      1299       433  TIP3      H2              8.7050203705      -30.6802371127      -11.1391230134  W2        433             0.0000000000
      1300       434  TIP3      OH2             8.2763903705      -31.1498071127       -7.0622430134  W2        434             0.0000000000
      1301       434  TIP3      H1              8.2381403705      -31.7961771127       -6.3572830134  W2        434             0.0000000000
      1302       434  TIP3      H2              7.9540403705      -31.6163671127       -7.8333730134  W2        434             0.0000000000
      1303       435  TIP3      OH2             0.6448903705      -31.5355971127       -5.4692530134  W2        435             0.0000000000
      1304       435  TIP3      H1              0.6861003705      -32.1612671127       -4.7460130134  W2        435             0.0000000000
      1305       435  TIP3      H2              1.3476603705      -30.9117371127       -5.2872130134  W2        435             0.0000000000
      1306       436  TIP3      OH2            11.9824103705      -28.2107671127       -8.7607330134  W2        436             0.0000000000
      1307       436  TIP3      H1             11.5416803705      -28.9311671127       -8.3101730134  W2        436             0.0000000000
      1308       436  TIP3      H2             11.9693803705      -27.4900471127       -8.1309630134  W2        436             0.0000000000
      1309       437  TIP3      OH2             1.5682003705      -27.0857071127       -6.9343430134  W2        437             0.0000000000
      1310       437  TIP3      H1              1.1987203705      -27.8876571127       -7.3039130134  W2        437             0.0000000000
      1311       437  TIP3      H2              2.5093103705      -27.2542171127       -6.8880030134  W2        437             0.0000000000
      1312       438  TIP3      OH2            -1.8217496295      -33.4254471127      -11.5414630134  W2        438             0.0000000000
      1313       438  TIP3      H1             -2.2694096295      -32.5795771127      -11.5598130134  W2        438             0.0000000000
      1314       438  TIP3      H2             -2.3826296295      -34.0050271127      -12.0569530134  W2        438             0.0000000000
      1315       439  TIP3      OH2            -1.1111396295      -31.2634871127       -9.4156630134  W2        439             0.0000000000
      1316       439  TIP3      H1             -0.8977896295      -32.0333271127       -8.8883630134  W2        439             0.0000000000
      1317       439  TIP3      H2             -0.3733796295      -31.1738171127      -10.0189030134  W2        439             0.0000000000
      1318       440  TIP3      OH2             9.0939603705      -23.1065971127       -8.5486930134  W2        440             0.0000000000
      1319       440  TIP3      H1              9.7136003705      -23.7831271127       -8.8217730134  W2        440             0.0000000000
      1320       440  TIP3      H2              8.8857003705      -23.3245171127       -7.6402030134  W2        440             0.0000000000
      1321       441  TIP3      OH2             6.6658303705      -28.7176671127       -6.6561430134  W2        441             0.0000000000
      1322       441  TIP3      H1              6.9696203705      -29.4035271127       -7.2507330134  W2        441             0.0000000000
      1323       441  TIP3      H2              7.3872303705      -28.5987971127       -6.0383430134  W2        441             0.0000000000
      1324       442  TIP3      OH2            15.3288103705      -37.1161371127       -5.7955230134  W2        442             0.0000000000
      1325       442  TIP3      H1             15.3780303705      -36.5060171127       -5.0596130134  W2        442             0.0000000000
      1326       442  TIP3      H2             15.7543203705      -36.6550471127       -6.5184130134  W2        442             0.0000000000
      1327       443  TIP3      OH2             9.8065303705      -34.3234271127       -6.3286630134  W2        443             0.0000000000
      1328       443  TIP3      H1              9.9491203705      -35.2697271127       -6.3085030134  W2        443             0.0000000000
      1329       443  TIP3      H2              9.7004303705      -34.1164471127       -7.2571730134  W2        443             0.0000000000
      1330       444  TIP3      OH2             2.9613603705      -36.2217871127       -9.0561830134  W2        444             0.0000000000
      1331       444  TIP3      H1              3.0044703705      -35.3619371127       -9.4745530134  W2        444             0.0000000000
      1332       444  TIP3      H2              2.5037703705      -36.7743171127       -9.6898630134  W2        444             0.0000000000
      1333       445  TIP3      OH2            10.6836303705      -36.0912271127      -10.6553530134  W2        445             0.0000000000
      1334       445  TIP3      H1             11.3300603705      -36.4199071127      -10.0305930134  W2        445             0.0000000000
      1335       445  TIP3      H2             11.1935703705      -35.5733271127      -11.2782130134  W2        445             0.0000000000
      1336       446  TIP3      OH2            -0.4184896295      -33.8252071127       -8.2940430134  W2        446             0.0000000000
      1337       446  TIP3      H1              0.2351703705      -34.3750371127       -7.8620330134  W2        446             0.0000000000
      1338       446  TIP3      H2             -0.3945596295      -34.0993071127       -9.2108430134  W2        446             0.0000000000
      1339       447  TIP3      OH2             4.7379603705      -32.2750771127       -9.0788930134  W2        447             0.0000000000
      1340       447  TIP3      H1              5.3540603705      -32.8015371127       -8.5694930134  W2        447             0.0000000000
      1341       447  TIP3      H2              4.1518403705      -32.9152071127       -9.4825330134  W2        447             0.0000000000
      1342       448  TIP3      OH2            15.7202703705      -35.6382171127       -3.5595430134  W2        448             0.0000000000
      1343       448  TIP3      H1             15.0317303705      -34.9801471127       -3.6548830134  W2        448             0.0000000000
      1344       448  TIP3      H2             15.7357303705      -35.8354271127       -2.6230030134  W2        448             0.0000000000
      1345       449  TIP3      OH2             1.7715503705      -37.3039471127       -4.9821030134  W2        449             0.0000000000
      1346       449  TIP3      H1              1.5527203705      -36.7738871127       -5.7485030134  W2        449             0.0000000000
      1347       449  TIP3      H2              1.1036403705      -37.0773971127       -4.3349630134  W2        449             0.0000000000
      1348       450  TIP3      OH2             9.1405303705      -27.8038371127      -11.4381930134  W2        450             0.0000000000
      1349       450  TIP3      H1              8.8450403705      -28.1266071127      -12.2895030134  W2        450             0.0000000000
      1350       450  TIP3      H2              8.8163103705      -26.9041671127      -11.3969330134  W2        450             0.0000000000
      1351       451  TIP3      OH2             4.3406903705      -29.6283771127       -4.6947330134  W2        451             0.0000000000
      1352       451  TIP3      H1              3.6006003705      -29.0302271127       -4.5912130134  W2        451             0.0000000000
      1353       451  TIP3      H2              5.0546403705      -29.0744171127       -5.0103730134  W2        451             0.0000000000
      1354       452  TIP3      OH2            12.4474703705      -36.8002971127       -8.6747630134  W2        452             0.0000000000
      1355       452  TIP3      H1             12.2322703705      -37.5659571127       -8.1421630134  W2        452             0.0000000000
      1356       452  TIP3      H2             13.1032103705      -36.3278371127       -8.1619130134  W2        452             0.0000000000
      1357       453  TIP3      OH2             1.3652803705      -35.4117671127       -7.0298830134  W2        453             0.0000000000
      1358       453  TIP3      H1              1.9789103705      -34.7790071127       -6.6566430134  W2        453             0.0000000000
      1359       453  TIP3      H2              1.8773503705      -35.8842671127       -7.6861930134  W2        453             0.0000000000
      1360       454  TIP3      OH2             2.7481203705      -27.6640771127       -3.9075830134  W2        454             0.0000000000
      1361       454  TIP3      H1              2.7428803705      -26.7847271127       -4.2856530134  W2        454             0.0000000000
      1362       454  TIP3      H2              1.8945303705      -27.7476671127       -3.4825930134  W2        454             0.0000000000
      1363       455  TIP3      OH2            -1.1307896295      -27.9932871127      -13.1256530134  W2        455             0.0000000000
      1364       455  TIP3      H1             -1.4026996295      -27.7641871127      -14.0143630134  W2        455             0.0000000000
      1365       455  TIP3      H2             -1.0852196295      -27.1554071127      -12.6651230134  W2        455             0.0000000000
      1366       456  TIP3      OH2            12.4941803705      -26.3716971127       -6.4128030134  W2        456             0.0000000000
      1367       456  TIP3      H1             11.5525503705      -26.3133071127       -6.2511130134  W2        456             0.0000000000
      1368       456  TIP3      H2             12.7707903705      -25.4656471127       -6.5498330134  W2        456             0.0000000000
      1369       457  TIP3      OH2            12.7948803705      -38.0851671127       -4.9954130134  W2        457             0.0000000000
      1370       457  TIP3      H1             12.0588003705      -37.4744571127       -5.0332830134  W2        457             0.0000000000
      1371       457  TIP3      H2             13.4782803705      -37.6702671127       -5.5217730134  W2        457             0.0000000000
      1372       458  TIP3      OH2             5.7980203705      -39.9984371127       -7.5296130134  W2        458             0.0000000000
      1373       458  TIP3      H1              5.6804403705      -40.9468371127       -7.5837830134  W2        458             0.0000000000
      1374       458  TIP3      H2              4.9430303705      -39.6658271127       -7.2565030134  W2        458             0.0000000000
      1375       459  TIP3      OH2            10.7463003705      -24.5903471127       -9.7876430134  W2        459             0.0000000000
      1376       459  TIP3      H1             11.1715303705      -25.2975571127      -10.2726830134  W2        459             0.0000000000
      1377       459  TIP3      H2             11.0633003705      -23.7890771127      -10.2044230134  W2        459             0.0000000000
      1378       460  TIP3      OH2            11.9059503705      -26.6894971127      -11.2789830134  W2        460             0.0000000000
      1379       460  TIP3      H1             11.6484303705      -27.3794871127      -11.8903930134  W2        460             0.0000000000
      1380       460  TIP3      H2             11.9770303705      -27.1323771127      -10.4333930134  W2        460             0.0000000000
      1381       461  TIP3      OH2            13.5919703705      -28.1228271127       -2.8016330134  W2        461             0.0000000000
      1382       461  TIP3      H1             13.7316003705      -28.7145771127       -3.5409330134  W2        461             0.0000000000
      1383       461  TIP3      H2             13.7592503705      -27.2502371127       -3.1577530134  W2        461             0.0000000000
      1384       462  TIP3      OH2             8.0645103705      -31.1608771127      -13.0290330134  W2        462             0.0000000000
      1385       462  TIP3      H1              7.3530603705      -30.6259071127      -13.3809830134  W2        462             0.0000000000
      1386       462  TIP3      H2              8.7554703705      -31.1056671127      -13.6891430134  W2        462             0.0000000000
      1387       463  TIP3      OH2             8.1184303705      -32.7034471127      -15.9905330134  W2        463             0.0000000000
      1388       463  TIP3      H1              8.8194203705      -32.6807571127      -15.3391330134  W2        463             0.0000000000
      1389       463  TIP3      H2              8.4207203705      -33.3314771127      -16.6466030134  W2        463             0.0000000000
      1390       464  TIP3      OH2            15.4339003705      -31.7830271127       -4.7355930134  W2        464             0.0000000000
      1391       464  TIP3      H1             14.7813103705      -31.0884671127       -4.6465030134  W2        464             0.0000000000
      1392       464  TIP3      H2             15.8989303705      -31.5729371127       -5.5454330134  W2        464             0.0000000000
      1393       465  TIP3      OH2            11.4702803705      -30.9515471127      -12.0774430134  W2        465             0.0000000000
      1394       465  TIP3      H1             10.7383803705      -30.7231771127      -11.5043830134  W2        465             0.0000000000
      1395       465  TIP3      H2             11.9175003705      -31.6652771127      -11.6226930134  W2        465             0.0000000000
      1396       466  TIP3      OH2            11.3676303705      -32.7772871127       -3.0097430134  W2        466             0.0000000000
      1397       466  TIP3      H1             11.4475403705      -32.0138471127       -2.4378930134  W2        466             0.0000000000
      1398       466  TIP3      H2             10.7664003705      -32.4980471127       -3.7002330134  W2        466             0.0000000000
      1399       467  TIP3      OH2             3.1156503705      -30.3209271127      -10.1949430134  W2        467             0.0000000000
      1400       467  TIP3      H1              2.7851703705      -30.6915871127      -11.0132430134  W2        467             0.0000000000
      1401       467  TIP3      H2              3.7040603705      -30.9915271127       -9.8481130134  W2        467             0.0000000000
      1402       468  TIP3      OH2             4.4824003705      -26.8928671127       -7.5137230134  W2        468             0.0000000000
      1403       468  TIP3      H1              4.3875303705      -27.4715571127       -8.2702630134  W2        468             0.0000000000
      1404       468  TIP3      H2              5.2117603705      -27.2642971127       -7.0174430134  W2        468             0.0000000000
      1405       469  TIP3      OH2             3.4822003705      -31.5523671127       -6.5614430134  W2        469             0.0000000000
      1406       469  TIP3      H1              4.0474503705      -31.4309471127       -7.3243230134  W2        469             0.0000000000
      1407       469  TIP3      H2              3.8010903705      -30.9148671127       -5.9225930134  W2        469             0.0000000000
      1408       470  TIP3      OH2             9.7914203705      -26.0491771127       -5.8273930134  W2        470             0.0000000000
      1409       470  TIP3      H1              9.5510803705      -25.3868671127       -5.1794730134  W2        470             0.0000000000
      1410       470  TIP3      H2              9.5932403705      -26.8836571127       -5.4024330134  W2        470             0.0000000000
      1411       471  TIP3      OH2             4.3622703705      -27.1530971127       -1.8442530134  W2        471             0.0000000000
      1412       471  TIP3      H1              4.0510203705      -26.3707771127       -1.3889330134  W2        471             0.0000000000
      1413       471  TIP3      H2              3.7122903705      -27.3061871127       -2.5300530134  W2        471             0.0000000000
      1414       472  TIP3      OH2            10.3412303705      -31.7892571127      -14.3923230134  W2        472             0.0000000000
      1415       472  TIP3      H1             10.9207803705      -31.6392271127      -13.6454330134  W2        472             0.0000000000
      1416       472  TIP3      H2             10.7552303705      -31.3185171127      -15.1156830134  W2        472             0.0000000000
      1417       473  TIP3      OH2             1.2822603705      -30.9549871127       -2.6156830134  W2        473             0.0000000000
      1418       473  TIP3      H1              1.3525803705      -30.3043071127       -1.9171830134  W2        473             0.0000000000
      1419       473  TIP3      H2              0.3914803705      -30.8522371127       -2.9505930134  W2        473             0.0000000000
      1420       474  TIP3      OH2             8.0677203705      -25.0524071127      -10.9570130134  W2        474             0.0000000000
      1421       474  TIP3      H1              8.5414803705      -24.7567771127      -10.1795930134  W2        474             0.0000000000
      1422       474  TIP3      H2              7.5046503705      -24.3142471127      -11.1900530134  W2        474             0.0000000000
      1423       475  TIP3      OH2             2.6018603705      -25.0815971127       -1.0808730134  W2        475             0.0000000000
      1424       475  TIP3      H1              2.6093903705      -25.2176271127       -2.0283230134  W2        475             0.0000000000
      1425       475  TIP3      H2              1.6859003705      -25.1987871127       -0.8288730134  W2        475             0.0000000000
      1426       476  TIP3      OH2            14.0400703705      -40.0392171127      -14.5793530134  W2        476             0.0000000000
      1427       476  TIP3      H1             13.1401403705      -39.9003171127      -14.2842930134  W2        476             0.0000000000
      1428       476  TIP3      H2             14.2919103705      -39.2077571127      -14.9811830134  W2        476             0.0000000000
      1429       477  TIP3      OH2             2.1059203705      -31.2514971127      -12.6056630134  W2        477             0.0000000000
      1430       477  TIP3      H1              1.8140503705      -30.4833271127      -13.0965330134  W2        477             0.0000000000
      1431       477  TIP3      H2              1.4314403705      -31.9108771127      -12.7685230134  W2        477             0.0000000000
      1432       478  TIP3      OH2            15.2292103705      -25.6729771127      -16.2029630134  W2        478             0.0000000000
      1433       478  TIP3      H1             15.3025603705      -24.7339571127      -16.0324330134  W2        478             0.0000000000
      1434       478  TIP3      H2             16.1347203705      -25.9781171127      -16.2592330134  W2        478             0.0000000000
      1435       479  TIP3      OH2            -1.8010696295      -28.8885771127       -3.7906830134  W2        479             0.0000000000
      1436       479  TIP3      H1             -2.3022296295      -28.9166371127       -4.6057130134  W2        479             0.0000000000
      1437       479  TIP3      H2             -1.7956996295      -29.7942571127       -3.4809530134  W2        479             0.0000000000
      1438       480  TIP3      OH2            -2.0507996295      -26.1081971127       -6.9066630134  W2        480             0.0000000000
      1439       480  TIP3      H1             -1.1047396295      -26.2524971127       -6.9257130134  W2        480             0.0000000000
      1440       480  TIP3      H2             -2.1631696295      -25.3239171127       -6.3695430134  W2        480             0.0000000000
      1441       481  TIP3      OH2            16.1470503705      -25.4422271127       -1.2242930134  W2        481             0.0000000000
      1442       481  TIP3      H1             16.0977303705      -26.3974171127       -1.2615330134  W2        481             0.0000000000
      1443       481  TIP3      H2             15.3202803705      -25.1746971127       -0.8229130134  W2        481             0.0000000000
      1444       482  TIP3      OH2             7.1254503705      -25.8683071127       -2.3481530134  W2        482             0.0000000000
      1445       482  TIP3      H1              7.2129103705      -25.0418471127       -1.8732430134  W2        482             0.0000000000
      1446       482  TIP3      H2              6.2619603705      -26.1979271127       -2.0992230134  W2        482             0.0000000000
      1447       483  TIP3      OH2             7.5400303705      -22.0959371127      -12.5420930134  W2        483             0.0000000000
      1448       483  TIP3      H1              7.4646303705      -22.2172171127      -13.4885730134  W2        483             0.0000000000
      1449       483  TIP3      H2              7.5729003705      -21.1466671127      -12.4236330134  W2        483             0.0000000000
      1450       484  TIP3      OH2             1.1934103705      -23.3072371127      -10.7611930134  W2        484             0.0000000000
      1451       484  TIP3      H1              1.3454503705      -23.6551971127       -9.8825430134  W2        484             0.0000000000
      1452       484  TIP3      H2              0.3424503705      -23.6635071127      -11.0164730134  W2        484             0.0000000000
      1453       485  TIP3      OH2            10.6416303705      -22.9419171127      -15.5398530134  W2        485             0.0000000000
      1454       485  TIP3      H1             11.0164703705      -23.6863071127      -16.0105930134  W2        485             0.0000000000
      1455       485  TIP3      H2             10.6460003705      -23.2118571127      -14.6215230134  W2        485             0.0000000000
      1456       486  TIP3      OH2            10.3104403705      -23.0162071127      -12.7906330134  W2        486             0.0000000000
      1457       486  TIP3      H1              9.3754203705      -22.9160171127      -12.6119330134  W2        486             0.0000000000
      1458       486  TIP3      H2             10.5906303705      -23.7256071127      -12.2123130134  W2        486             0.0000000000
      1459       487  TIP3      OH2            13.2990303705      -33.9489771127       -0.7440730134  W2        487             0.0000000000
      1460       487  TIP3      H1             12.8917103705      -33.4684171127       -1.4647430134  W2        487             0.0000000000
      1461       487  TIP3      H2             13.3396003705      -34.8543771127       -1.0519930134  W2        487             0.0000000000
      1462       488  TIP3      OH2             0.4479803705      -27.5650371127       -2.7474030134  W2        488             0.0000000000
      1463       488  TIP3      H1              0.6641103705      -27.9264771127       -1.8878230134  W2        488             0.0000000000
      1464       488  TIP3      H2             -0.4075496295      -27.9396571127       -2.9570530134  W2        488             0.0000000000
      1465       489  TIP3      OH2             3.0667803705      -39.0949871127       -6.7519830134  W2        489             0.0000000000
      1466       489  TIP3      H1              2.2051503705      -39.1821671127       -7.1596930134  W2        489             0.0000000000
      1467       489  TIP3      H2              3.0443503705      -38.2389771127       -6.3242230134  W2        489             0.0000000000
      1468       490  TIP3      OH2             7.7295603705      -39.3729471127       -3.3772830134  W2        490             0.0000000000
      1469       490  TIP3      H1              8.1498703705      -39.7882371127       -2.6242230134  W2        490             0.0000000000
      1470       490  TIP3      H2              6.7965203705      -39.5516171127       -3.2600830134  W2        490             0.0000000000
      1471       491  TIP3      OH2            11.0560503705      -35.6174271127       -2.5238330134  W2        491             0.0000000000
      1472       491  TIP3      H1             10.5420003705      -35.7432071127       -1.7262330134  W2        491             0.0000000000
      1473       491  TIP3      H2             10.9005203705      -34.7051171127       -2.7682130134  W2        491             0.0000000000
      1474       492  TIP3      OH2            11.8185403705      -30.7564271127      -16.7625330134  W2        492             0.0000000000
      1475       492  TIP3      H1             11.8606203705      -30.9790371127      -17.6925330134  W2        492             0.0000000000
      1476       492  TIP3      H2             12.6677503705      -30.3577171127      -16.5725430134  W2        492             0.0000000000
      1477       493  TIP3      OH2             7.3912903705      -36.8806071127      -16.0922030134  W2        493             0.0000000000
      1478       493  TIP3      H1              7.1377703705      -36.8614471127      -15.1693930134  W2        493             0.0000000000
      1479       493  TIP3      H2              7.1345003705      -37.7520671127      -16.3935830134  W2        493             0.0000000000
      1480       494  TIP3      OH2             3.1577903705      -34.1295371127       -5.6569630134  W2        494             0.0000000000
      1481       494  TIP3      H1              2.5160003705      -34.1698071127       -4.9479530134  W2        494             0.0000000000
      1482       494  TIP3      H2              3.1949903705      -33.2030671127       -5.8946630134  W2        494             0.0000000000
      1483       495  TIP3      OH2             3.1547003705      -33.9085271127      -10.7449630134  W2        495             0.0000000000
      1484       495  TIP3      H1              2.2619903705      -34.2489171127      -10.8035830134  W2        495             0.0000000000
      1485       495  TIP3      H2              3.6053603705      -34.2854371127      -11.5006430134  W2        495             0.0000000000
      1486       496  TIP3      OH2             8.6902503705      -33.4924971127      -11.9278830134  W2        496             0.0000000000
      1487       496  TIP3      H1              8.2812803705      -32.6776371127      -12.2194030134  W2        496             0.0000000000
      1488       496  TIP3      H2              9.4108703705      -33.6324871127      -12.5421730134  W2        496             0.0000000000
      1489       497  TIP3      OH2             7.7924103705      -33.3168571127       -0.4398130134  W2        497             0.0000000000
      1490       497  TIP3      H1              7.2297903705      -34.0216971127       -0.1190330134  W2        497             0.0000000000
      1491       497  TIP3      H2              8.6187503705      -33.4376671127        0.0279469866  W2        497             0.0000000000
      1492       498  TIP3      OH2             9.6950203705      -34.0464571127       -9.1139130134  W2        498             0.0000000000
      1493       498  TIP3      H1              9.4994703705      -33.4407771127       -9.8288530134  W2        498             0.0000000000
      1494       498  TIP3      H2              9.8762803705      -34.8799371127       -9.5482830134  W2        498             0.0000000000
      1495       499  TIP3      OH2             0.9078403705      -33.8091871127       -3.7897630134  W2        499             0.0000000000
      1496       499  TIP3      H1              0.8697803705      -33.4090271127       -2.9210530134  W2        499             0.0000000000
      1497       499  TIP3      H2              0.4169503705      -34.6259471127       -3.6994730134  W2        499             0.0000000000
      1498       500  TIP3      OH2             4.2735803705      -36.4349571127      -16.9911630134  W2        500             0.0000000000
      1499       500  TIP3      H1              3.8426503705      -36.8799471127      -16.2614230134  W2        500             0.0000000000
      1500       500  TIP3      H2              3.5554503705      -36.0633271127      -17.5034130134  W2        500             0.0000000000
      1501       501  TIP3      OH2            -2.4840796295      -36.6930071127       -9.9392930134  W2        501             0.0000000000
      1502       501  TIP3      H1             -1.8533096295      -36.7217971127       -9.2199030134  W2        501             0.0000000000
      1503       501  TIP3      H2             -2.0346496295      -37.1181371127      -10.6697030134  W2        501             0.0000000000
      1504       502  TIP3      OH2            -1.2098696295      -35.9468071127      -14.5152530134  W2        502             0.0000000000
      1505       502  TIP3      H1             -0.7356996295      -35.3558171127      -15.1001630134  W2        502             0.0000000000
      1506       502  TIP3      H2             -1.9272296295      -35.4165171127      -14.1682430134  W2        502             0.0000000000
      1507       503  TIP3      OH2             8.9589403705      -32.4083271127       -4.4426730134  W2        503             0.0000000000
      1508       503  TIP3      H1              9.2824203705      -33.0393571127       -5.0856230134  W2        503             0.0000000000
      1509       503  TIP3      H2              8.5188703705      -32.9431071127       -3.7819330134  W2        503             0.0000000000
      1510       504  TIP3      OH2             5.7362303705      -36.4807771127       -9.6585530134  W2        504             0.0000000000
      1511       504  TIP3      H1              4.8253403705      -36.4240971127       -9.3699530134  W2        504             0.0000000000
      1512       504  TIP3      H2              6.2415203705      -36.5412271127       -8.8478330134  W2        504             0.0000000000
      1513       505  TIP3      OH2             0.5645703705      -34.8521471127      -10.8317930134  W2        505             0.0000000000
      1514       505  TIP3      H1             -0.3246296295      -34.7525971127      -11.1718330134  W2        505             0.0000000000
      1515       505  TIP3      H2              0.8610603705      -35.6938471127      -11.1780030134  W2        505             0.0000000000
      1516       506  TIP3      OH2             4.2177503705      -34.8518871127      -13.1753330134  W2        506             0.0000000000
      1517       506  TIP3      H1              5.1493003705      -34.7228871127      -12.9970230134  W2        506             0.0000000000
      1518       506  TIP3      H2              4.0027803705      -34.1824571127      -13.8248630134  W2        506             0.0000000000
      1519       507  TIP3      OH2            10.1414203705      -37.2461471127       -6.3943730134  W2        507             0.0000000000
      1520       507  TIP3      H1              9.4645803705      -37.1148371127       -5.7304030134  W2        507             0.0000000000
      1521       507  TIP3      H2              9.6559103705      -37.4011971127       -7.2046030134  W2        507             0.0000000000
      1522       508  TIP3      OH2             2.8917703705      -33.6576671127      -15.6087230134  W2        508             0.0000000000
      1523       508  TIP3      H1              2.3492803705      -34.0372871127      -16.2999630134  W2        508             0.0000000000
      1524       508  TIP3      H2              3.7252603705      -33.4631971127      -16.0373130134  W2        508             0.0000000000
      1525       509  TIP3      OH2            13.4289303705      -21.5746071127       -0.1176130134  W2        509             0.0000000000
      1526       509  TIP3      H1             13.6288003705      -21.1504171127       -0.9520830134  W2        509             0.0000000000
      1527       509  TIP3      H2             14.0843003705      -21.2307871127        0.4894269866  W2        509             0.0000000000
      1528       510  TIP3      OH2             1.0269103705      -29.1004771127       -0.5095630134  W2        510             0.0000000000
      1529       510  TIP3      H1              1.7591503705      -28.8458871127        0.0518869866  W2        510             0.0000000000
      1530       510  TIP3      H2              0.2467803705      -28.8959371127        0.0059769866  W2        510             0.0000000000
      1531       511  TIP3      OH2             7.0562003705      -33.6934771127       -7.7715930134  W2        511             0.0000000000
      1532       511  TIP3      H1              7.6205403705      -34.2398171127       -8.3186330134  W2        511             0.0000000000
      1533       511  TIP3      H2              6.9085403705      -34.2152871127       -6.9828330134  W2        511             0.0000000000
      1534       512  TIP3      OH2             2.0581703705      -37.5568671127      -11.3531130134  W2        512             0.0000000000
      1535       512  TIP3      H1              1.7411203705      -38.4593371127      -11.3885730134  W2        512             0.0000000000
      1536       512  TIP3      H2              2.8395803705      -37.5551271127      -11.9059530134  W2        512             0.0000000000
      1537       513  TIP3      OH2             5.6827903705      -35.3048671127       -5.3575530134  W2        513             0.0000000000
      1538       513  TIP3      H1              4.8473203705      -34.8509171127       -5.2473130134  W2        513             0.0000000000
      1539       513  TIP3      H2              6.2068503705      -35.0290171127       -4.6055630134  W2        513             0.0000000000
      1540       514  TIP3      OH2             6.2270503705      -29.0920971127      -13.6729130134  W2        514             0.0000000000
      1541       514  TIP3      H1              5.4821503705      -29.5995671127      -13.9951230134  W2        514             0.0000000000
      1542       514  TIP3      H2              6.0927703705      -29.0432971127      -12.7264330134  W2        514             0.0000000000
      1543       515  TIP3      OH2            13.3769403705      -29.9592771127       -4.8861530134  W2        515             0.0000000000
      1544       515  TIP3      H1             14.0188203705      -29.5026471127       -5.4299330134  W2        515             0.0000000000
      1545       515  TIP3      H2             12.5466303705      -29.8460371127       -5.3487430134  W2        515             0.0000000000
      1546       516  TIP3      OH2            10.1247303705      -36.2781071127      -15.4736530134  W2        516             0.0000000000
      1547       516  TIP3      H1              9.1861503705      -36.1665471127      -15.6247730134  W2        516             0.0000000000
      1548       516  TIP3      H2             10.4219403705      -35.4214171127      -15.1670830134  W2        516             0.0000000000
      1549       517  TIP3      OH2             7.7462603705      -28.9077671127       -2.4360030134  W2        517             0.0000000000
      1550       517  TIP3      H1              7.4008703705      -29.2895271127       -1.6290430134  W2        517             0.0000000000
      1551       517  TIP3      H2              7.5462703705      -27.9744071127       -2.3647130134  W2        517             0.0000000000
      1552       518  TIP3      OH2            10.8430803705      -34.4108371127      -13.8129130134  W2        518             0.0000000000
      1553       518  TIP3      H1             11.7349803705      -34.5483371127      -13.4937930134  W2        518             0.0000000000
      1554       518  TIP3      H2             10.8994403705      -33.6202271127      -14.3495630134  W2        518             0.0000000000
      1555       519  TIP3      OH2             1.3518803705      -29.7970971127       -7.9031230134  W2        519             0.0000000000
      1556       519  TIP3      H1              2.0966003705      -29.7995271127       -8.5044730134  W2        519             0.0000000000
      1557       519  TIP3      H2              1.4295403705      -30.6207171127       -7.4216130134  W2        519             0.0000000000
      1558       520  TIP3      OH2             8.3524603705      -27.6336671127      -14.6474530134  W2        520             0.0000000000
      1559       520  TIP3      H1              8.0573003705      -26.8068771127      -14.2659730134  W2        520             0.0000000000
      1560       520  TIP3      H2              7.6494603705      -28.2529771127      -14.4513130134  W2        520             0.0000000000
      1561       521  TIP3      OH2            -1.6401496295      -31.3364071127       -2.5882730134  W2        521             0.0000000000
      1562       521  TIP3      H1             -1.4172896295      -31.7544471127       -1.7565230134  W2        521             0.0000000000
      1563       521  TIP3      H2             -2.2421396295      -31.9489071127       -3.0109930134  W2        521             0.0000000000
      1564       522  TIP3      OH2             5.3763403705      -31.8194171127       -0.3753030134  W2        522             0.0000000000
      1565       522  TIP3      H1              5.0804203705      -31.9851171127       -1.2703930134  W2        522             0.0000000000
      1566       522  TIP3      H2              6.3078603705      -32.0393871127       -0.3859130134  W2        522             0.0000000000
      1567       523  TIP3      OH2             9.9966203705      -26.4462171127       -2.4855030134  W2        523             0.0000000000
      1568       523  TIP3      H1              9.0960503705      -26.2629571127       -2.7531130134  W2        523             0.0000000000
      1569       523  TIP3      H2             10.0307303705      -26.1872871127       -1.5646230134  W2        523             0.0000000000
      1570       524  TIP3      OH2            15.7279503705      -34.2014271127      -14.1182430134  W2        524             0.0000000000
      1571       524  TIP3      H1             15.1735803705      -34.5976271127      -14.7904930134  W2        524             0.0000000000
      1572       524  TIP3      H2             15.8283103705      -33.2909071127      -14.3959130134  W2        524             0.0000000000
      1573       525  TIP3      OH2            15.6911503705      -28.4012571127       -1.2810930134  W2        525             0.0000000000
      1574       525  TIP3      H1             14.8400003705      -28.1628771127       -1.6484530134  W2        525             0.0000000000
      1575       525  TIP3      H2             16.2814903705      -28.4179371127       -2.0343830134  W2        525             0.0000000000
      1576       526  TIP3      OH2            14.0231203705      -25.4153871127      -13.6530330134  W2        526             0.0000000000
      1577       526  TIP3      H1             13.6502303705      -26.2410071127      -13.3439730134  W2        526             0.0000000000
      1578       526  TIP3      H2             14.3004703705      -25.5984471127      -14.5506930134  W2        526             0.0000000000
      1579       527  TIP3      OH2            11.1835103705      -30.6074371127       -6.6318430134  W2        527             0.0000000000
      1580       527  TIP3      H1             10.2552003705      -30.8392471127       -6.6589130134  W2        527             0.0000000000
      1581       527  TIP3      H2             11.6346203705      -31.3844571127       -6.9619630134  W2        527             0.0000000000
      1582       528  TIP3      OH2             3.7268203705      -26.2792771127      -10.4989730134  W2        528             0.0000000000
      1583       528  TIP3      H1              4.2540403705      -25.5058371127      -10.6990930134  W2        528             0.0000000000
      1584       528  TIP3      H2              2.8466703705      -26.0543571127      -10.8005730134  W2        528             0.0000000000
      1585       529  TIP3      OH2            -0.5184096295      -31.4168671127      -15.9117330134  W2        529             0.0000000000
      1586       529  TIP3      H1              0.0975803705      -30.7901471127      -15.5322530134  W2        529             0.0000000000
      1587       529  TIP3      H2             -1.3801496295      -31.1008871127      -15.6400830134  W2        529             0.0000000000
      1588       530  TIP3      OH2             5.1540503705      -28.6162871127      -10.9225430134  W2        530             0.0000000000
      1589       530  TIP3      H1              4.9130503705      -27.6908471127      -10.8810130134  W2        530             0.0000000000
      1590       530  TIP3      H2              4.4134103705      -29.0751571127      -10.5261530134  W2        530             0.0000000000
      1591       531  TIP3      OH2             5.6687103705      -24.4669271127       -4.6074330134  W2        531             0.0000000000
      1592       531  TIP3      H1              6.0311803705      -23.6123671127       -4.8409930134  W2        531             0.0000000000
      1593       531  TIP3      H2              6.2002303705      -24.7587671127       -3.8668030134  W2        531             0.0000000000
      1594       532  TIP3      OH2             3.8371303705      -23.5945271127      -11.3773230134  W2        532             0.0000000000
      1595       532  TIP3      H1              2.8871803705      -23.4887871127      -11.3259930134  W2        532             0.0000000000
      1596       532  TIP3      H2              4.1889403705      -22.7737871127      -11.0325730134  W2        532             0.0000000000
      1597       533  TIP3      OH2             9.2127903705      -28.3678571127       -4.9068730134  W2        533             0.0000000000
      1598       533  TIP3      H1              8.7869203705      -28.5956871127       -4.0804730134  W2        533             0.0000000000
      1599       533  TIP3      H2              9.7933703705      -29.1066771127       -5.0893430134  W2        533             0.0000000000
      1600       534  TIP3      OH2            11.4156803705      -27.4388071127      -15.8329730134  W2        534             0.0000000000
      1601       534  TIP3      H1             11.7689903705      -27.8188271127      -15.0286230134  W2        534             0.0000000000
      1602       534  TIP3      H2             10.4670303705      -27.5323271127      -15.7460430134  W2        534             0.0000000000
      1603       535  TIP3      OH2            11.8712103705      -23.8159071127       -2.4373930134  W2        535             0.0000000000
      1604       535  TIP3      H1             11.2695303705      -24.3716171127       -2.9327630134  W2        535             0.0000000000
      1605       535  TIP3      H2             12.1525803705      -23.1489271127       -3.0636530134  W2        535             0.0000000000
      1606       536  TIP3      OH2            15.9191203705      -22.9595571127      -15.6319530134  W2        536             0.0000000000
      1607       536  TIP3      H1             16.6629103705      -22.3735071127      -15.7717930134  W2        536             0.0000000000
      1608       536  TIP3      H2             15.2249303705      -22.3909771127      -15.2987130134  W2        536             0.0000000000
      1609       537  TIP3      OH2            -0.0061996295      -36.5831371127       -3.0301330134  W2        537             0.0000000000
      1610       537  TIP3      H1             -0.8989696295      -36.2445971127       -3.0977330134  W2        537             0.0000000000
      1611       537  TIP3      H2             -0.1049196295      -37.4385271127       -2.6120530134  W2        537             0.0000000000
      1612       538  TIP3      OH2            12.2816103705      -28.7666071127      -13.6061830134  W2        538             0.0000000000
      1613       538  TIP3      H1             12.0043703705      -29.4946771127      -13.0500730134  W2        538             0.0000000000
      1614       538  TIP3      H2             13.2089103705      -28.6474071127      -13.4009230134  W2        538             0.0000000000
      1615       539  TIP3      OH2            -0.3549996295      -24.7786971127       -4.5951930134  W2        539             0.0000000000
      1616       539  TIP3      H1             -0.1379696295      -25.7104571127       -4.6262230134  W2        539             0.0000000000
      1617       539  TIP3      H2             -0.1086496295      -24.5041971127       -3.7119130134  W2        539             0.0000000000
      1618       540  TIP3      OH2             5.5064603705      -26.3271971127      -17.3859730134  W2        540             0.0000000000
      1619       540  TIP3      H1              5.7454403705      -27.0753871127      -17.9330830134  W2        540             0.0000000000
      1620       540  TIP3      H2              5.2375903705      -26.7150271127      -16.5531930134  W2        540             0.0000000000
      1621       541  TIP3      OH2             4.4435203705      -26.7568171127      -14.9297130134  W2        541             0.0000000000
      1622       541  TIP3      H1              4.5903203705      -27.2768371127      -14.1396230134  W2        541             0.0000000000
      1623       541  TIP3      H2              4.4406903705      -25.8500571127      -14.6231230134  W2        541             0.0000000000
      1624       542  TIP3      OH2             0.8966303705      -29.5044871127      -14.4191730134  W2        542             0.0000000000
      1625       542  TIP3      H1              0.2105603705      -29.1522371127      -13.8522030134  W2        542             0.0000000000
      1626       542  TIP3      H2              1.4194203705      -28.7415271127      -14.6657430134  W2        542             0.0000000000
      1627       543  TIP3      OH2             8.7281403705      -36.8421071127       -4.1402730134  W2        543             0.0000000000
      1628       543  TIP3      H1              9.4269303705      -36.7682371127       -3.4903030134  W2        543             0.0000000000
      1629       543  TIP3      H2              8.3472803705      -37.7066071127       -3.9859830134  W2        543             0.0000000000
      1630       544  TIP3      OH2             9.5126303705      -37.1899371127      -13.0430430134  W2        544             0.0000000000
      1631       544  TIP3      H1              9.7324603705      -36.7183971127      -13.8465030134  W2        544             0.0000000000
      1632       544  TIP3      H2             10.0710303705      -36.7956771127      -12.3729830134  W2        544             0.0000000000
      1633       545  TIP3      OH2             7.1812403705      -25.0594571127      -14.1802930134  W2        545             0.0000000000
      1634       545  TIP3      H1              6.3648503705      -24.5624871127      -14.1278630134  W2        545             0.0000000000
      1635       545  TIP3      H2              7.7108703705      -24.5841071127      -14.8204130134  W2        545             0.0000000000
      1636       546  TIP3      OH2             6.7126203705      -35.4620571127      -12.2082030134  W2        546             0.0000000000
      1637       546  TIP3      H1              7.5248803705      -34.9577371127      -12.1620330134  W2        546             0.0000000000
      1638       546  TIP3      H2              6.4679203705      -35.6070871127      -11.2942430134  W2        546             0.0000000000
      1639       547  TIP3      OH2             7.2482603705      -34.4757871127       -3.0235430134  W2        547             0.0000000000
      1640       547  TIP3      H1              7.3672903705      -33.9022471127       -2.2665030134  W2        547             0.0000000000
      1641       547  TIP3      H2              7.9037203705      -35.1638471127       -2.9087630134  W2        547             0.0000000000
      1642       548  TIP3      OH2             7.5962903705      -38.3807571127      -11.2700930134  W2        548             0.0000000000
      1643       548  TIP3      H1              7.2496403705      -37.7636971127      -10.6256630134  W2        548             0.0000000000
      1644       548  TIP3      H2              8.2549803705      -37.8801871127      -11.7515430134  W2        548             0.0000000000
      1645       549  TIP3      OH2             4.5195503705      -24.0157371127      -14.1986030134  W2        549             0.0000000000
      1646       549  TIP3      H1              4.6804203705      -23.2159871127      -14.6993430134  W2        549             0.0000000000
      1647       549  TIP3      H2              4.3223303705      -23.7091371127      -13.3135430134  W2        549             0.0000000000
      1648       550  TIP3      OH2             3.2539903705      -37.3178171127      -14.5828430134  W2        550             0.0000000000
      1649       550  TIP3      H1              3.1704703705      -36.4295071127      -14.2362030134  W2        550             0.0000000000
      1650       550  TIP3      H2              4.1440203705      -37.5831471127      -14.3511630134  W2        550             0.0000000000
      1651       551  TIP3      OH2            13.4528403705      -36.5687571127       -2.1885730134  W2        551             0.0000000000
      1652       551  TIP3      H1             12.5364203705      -36.3065871127       -2.2762030134  W2        551             0.0000000000
      1653       551  TIP3      H2             13.7883403705      -36.5718571127       -3.0850430134  W2        551             0.0000000000
      1654       552  TIP3      OH2            12.0549403705      -32.8186571127       -8.0928430134  W2        552             0.0000000000
      1655       552  TIP3      H1             11.2573803705      -33.2336371127       -8.4213430134  W2        552             0.0000000000
      1656       552  TIP3      H2             12.5000503705      -33.5092871127       -7.6017930134  W2        552             0.0000000000
      1657       553  TIP3      OH2             1.5125203705      -26.8905971127      -15.5223930134  W2        553             0.0000000000
      1658       553  TIP3      H1              2.1046703705      -26.1911171127      -15.2461530134  W2        553             0.0000000000
      1659       553  TIP3      H2              1.9718203705      -27.3236471127      -16.2419330134  W2        553             0.0000000000
      1660       554  TIP3      OH2            -0.1715596295      -34.2262971127      -16.4064530134  W2        554             0.0000000000
      1661       554  TIP3      H1             -0.2162996295      -33.2869871127      -16.2277530134  W2        554             0.0000000000
      1662       554  TIP3      H2             -1.0592396295      -34.4618071127      -16.6762430134  W2        554             0.0000000000
      1663       555  TIP3      OH2            13.1414003705      -23.5624071127       -6.4704930134  W2        555             0.0000000000
      1664       555  TIP3      H1             12.9858303705      -22.8839671127       -7.1275630134  W2        555             0.0000000000
      1665       555  TIP3      H2             14.0740403705      -23.4904771127       -6.2674330134  W2        555             0.0000000000
      1666       556  TIP3      OH2             0.6366403705      -39.4446371127       -7.7333530134  W2        556             0.0000000000
      1667       556  TIP3      H1              0.4076203705      -39.3853871127       -8.6608530134  W2        556             0.0000000000
      1668       556  TIP3      H2              0.1939803705      -40.2360871127       -7.4269430134  W2        556             0.0000000000
      1669       557  TIP3      OH2            -0.4330296295      -25.5039271127      -11.5727730134  W2        557             0.0000000000
      1670       557  TIP3      H1             -1.2651696295      -25.0316571127      -11.5456330134  W2        557             0.0000000000
      1671       557  TIP3      H2              0.1128003705      -24.9941671127      -12.1714630134  W2        557             0.0000000000
      1672       558  TIP3      OH2            -1.1446596295      -22.8915571127       -0.2429730134  W2        558             0.0000000000
      1673       558  TIP3      H1             -0.6044396295      -23.1081571127        0.5169469866  W2        558             0.0000000000
      1674       558  TIP3      H2             -1.6258596295      -23.6969571127       -0.4327230134  W2        558             0.0000000000
      1675       559  TIP3      OH2             3.4526803705      -23.9721171127        1.3774469866  W2        559             0.0000000000
      1676       559  TIP3      H1              4.2204003705      -24.4310371127        1.7183669866  W2        559             0.0000000000
      1677       559  TIP3      H2              3.4313003705      -24.1981371127        0.4475669866  W2        559             0.0000000000
      1678       560  TIP3      OH2             7.5446403705      -24.4640571127      -17.2473730134  W2        560             0.0000000000
      1679       560  TIP3      H1              6.9007403705      -25.0951971127      -16.9260030134  W2        560             0.0000000000
      1680       560  TIP3      H2              8.3064703705      -24.9952571127      -17.4790230134  W2        560             0.0000000000
      1681       561  TIP3      OH2            10.0295503705      -25.5920071127        0.1065969866  W2        561             0.0000000000
      1682       561  TIP3      H1              9.6785003705      -26.4487071127        0.3496369866  W2        561             0.0000000000
      1683       561  TIP3      H2             10.7558703705      -25.4493371127        0.7134969866  W2        561             0.0000000000
      1684       562  TIP3      OH2            12.1489303705      -24.6470671127      -17.0135730134  W2        562             0.0000000000
      1685       562  TIP3      H1             12.4319703705      -25.4415471127      -16.5608830134  W2        562             0.0000000000
      1686       562  TIP3      H2             12.8887203705      -24.4139671127      -17.5744630134  W2        562             0.0000000000
      1687       563  TIP3      OH2            -1.2377096295      -29.0811471127        0.7114569866  W2        563             0.0000000000
      1688       563  TIP3      H1             -1.0936596295      -29.9830771127        0.4251269866  W2        563             0.0000000000
      1689       563  TIP3      H2             -2.0099696295      -28.7949371127        0.2236869866  W2        563             0.0000000000
      1690       564  TIP3      OH2             3.1036603705      -28.7375771127      -17.1560830134  W2        564             0.0000000000
      1691       564  TIP3      H1              3.1680703705      -29.5316171127      -16.6254430134  W2        564             0.0000000000
      1692       564  TIP3      H2              3.7565803705      -28.8562971127      -17.8458830134  W2        564             0.0000000000
      1693       565  TIP3      OH2             5.4179003705      -29.1113371127        0.1440969866  W2        565             0.0000000000
      1694       565  TIP3      H1              5.0892803705      -28.8405271127       -0.7131630134  W2        565             0.0000000000
      1695       565  TIP3      H2              5.5697203705      -30.0523571127        0.0565969866  W2        565             0.0000000000
      1696       566  TIP3      OH2             8.4560003705      -27.6904071127      -17.4202830134  W2        566             0.0000000000
      1697       566  TIP3      H1              8.1874103705      -27.5101971127      -16.5193930134  W2        566             0.0000000000
      1698       566  TIP3      H2              8.2495603705      -28.6157871127      -17.5517030134  W2        566             0.0000000000
      1699       567  TIP3      OH2            11.1524203705      -29.1956071127       -2.4726730134  W2        567             0.0000000000
      1700       567  TIP3      H1             11.8979003705      -28.6072371127       -2.5922730134  W2        567             0.0000000000
      1701       567  TIP3      H2             10.3951003705      -28.6136371127       -2.4093630134  W2        567             0.0000000000
      1702       568  TIP3      OH2            -0.4050596295      -31.8808171127        0.1313869866  W2        568             0.0000000000
      1703       568  TIP3      H1              0.0030603705      -32.7381571127        0.0104469866  W2        568             0.0000000000
      1704       568  TIP3      H2             -0.6652996295      -31.8666871127        1.0524169866  W2        568             0.0000000000
      1705       569  TIP3      OH2             4.2530403705      -30.7649571127      -14.8502830134  W2        569             0.0000000000
      1706       569  TIP3      H1              3.7932403705      -31.2491271127      -14.1644330134  W2        569             0.0000000000
      1707       569  TIP3      H2              4.5079103705      -31.4334171127      -15.4862330134  W2        569             0.0000000000
      1708       570  TIP3      OH2             3.5419703705      -32.8722471127       -2.4943230134  W2        570             0.0000000000
      1709       570  TIP3      H1              2.9235803705      -32.1975871127       -2.2138530134  W2        570             0.0000000000
      1710       570  TIP3      H2              3.8860903705      -32.5508571127       -3.3277030134  W2        570             0.0000000000
      1711       571  TIP3      OH2             5.3240803705      -32.5217771127      -16.5879630134  W2        571             0.0000000000
      1712       571  TIP3      H1              5.1435803705      -32.6766571127      -17.5151330134  W2        571             0.0000000000
      1713       571  TIP3      H2              6.2741303705      -32.4139071127      -16.5431730134  W2        571             0.0000000000
      1714       572  TIP3      OH2             8.5617903705      -30.4007171127        0.7831569866  W2        572             0.0000000000
      1715       572  TIP3      H1              9.5149103705      -30.3168071127        0.7557569866  W2        572             0.0000000000
      1716       572  TIP3      H2              8.4012503705      -31.1125371127        1.4026469866  W2        572             0.0000000000
      1717       573  TIP3      OH2            14.7139103705      -30.1673571127      -17.1421530134  W2        573             0.0000000000
      1718       573  TIP3      H1             14.4403903705      -30.5918071127      -17.9553230134  W2        573             0.0000000000
      1719       573  TIP3      H2             14.7533203705      -29.2359071127      -17.3591130134  W2        573             0.0000000000
      1720       574  TIP3      OH2             3.8813403705      -35.5171671127       -1.4120130134  W2        574             0.0000000000
      1721       574  TIP3      H1              4.0314303705      -36.2460371127       -2.0140430134  W2        574             0.0000000000
      1722       574  TIP3      H2              3.8835803705      -34.7399971127       -1.9707930134  W2        574             0.0000000000
      1723       575  TIP3      OH2             4.2939103705      -37.1475871127       -3.9192730134  W2        575             0.0000000000
      1724       575  TIP3      H1              4.8296603705      -36.6959171127       -4.5713430134  W2        575             0.0000000000
      1725       575  TIP3      H2              3.4418703705      -37.2556071127       -4.3418630134  W2        575             0.0000000000
      1726       576  TIP3      OH2             5.8757503705      -31.7079671127       -3.6797530134  W2        576             0.0000000000
      1727       576  TIP3      H1              6.6262303705      -31.8642171127       -4.2529730134  W2        576             0.0000000000
      1728       576  TIP3      H2              5.5365803705      -30.8563071127       -3.9552030134  W2        576             0.0000000000
      1729       577  TIP3      OH2            10.2913703705      -33.8927871127        1.3487769866  W2        577             0.0000000000
      1730       577  TIP3      H1             10.4835003705      -34.8238471127        1.2372269866  W2        577             0.0000000000
      1731       577  TIP3      H2             11.1490003705      -33.4678371127        1.3383169866  W2        577             0.0000000000
      1732       578  TIP3      OH2            11.6080903705      -31.1042671127       -0.5739530134  W2        578             0.0000000000
      1733       578  TIP3      H1             11.3265903705      -30.3948071127       -1.1515730134  W2        578             0.0000000000
      1734       578  TIP3      H2             12.5505203705      -31.1769671127       -0.7248330134  W2        578             0.0000000000
      1735       579  TIP3      OH2             2.3599703705      -34.3188171127        0.4995469866  W2        579             0.0000000000
      1736       579  TIP3      H1              1.5928703705      -34.8513371127        0.2893069866  W2        579             0.0000000000
      1737       579  TIP3      H2              3.0388703705      -34.6287771127       -0.0998230134  W2        579             0.0000000000
      1738       580  TIP3      OH2             5.0994603705      -39.6910171127       -3.4879130134  W2        580             0.0000000000
      1739       580  TIP3      H1              5.0014203705      -38.7446971127       -3.5932930134  W2        580             0.0000000000
      1740       580  TIP3      H2              4.3570803705      -40.0636371127       -3.9635630134  W2        580             0.0000000000
      1741       581  TIP3      OH2             6.3635103705      -35.3694771127        0.0759269866  W2        581             0.0000000000
      1742       581  TIP3      H1              6.1280503705      -35.5888071127        0.9774169866  W2        581             0.0000000000
      1743       581  TIP3      H2              5.5802003705      -35.5763571127       -0.4338230134  W2        581             0.0000000000
      1744       582  TIP3      OH2             9.0791703705      -36.2421271127       -0.8487230134  W2        582             0.0000000000
      1745       582  TIP3      H1              8.1317103705      -36.2101571127       -0.7163930134  W2        582             0.0000000000
      1746       582  TIP3      H2              9.3918403705      -36.8674171127       -0.1949030134  W2        582             0.0000000000
      1747       583  TIP3      OH2            10.7133203705      -37.6080171127        1.1564669866  W2        583             0.0000000000
      1748       583  TIP3      H1             10.6165003705      -38.5602871127        1.1506569866  W2        583             0.0000000000
      1749       583  TIP3      H2             10.3916303705      -37.3393371127        2.0170169866  W2        583             0.0000000000
      1750       584  TIP3      OH2             0.5402503705      -36.3984371127        0.2040169866  W2        584             0.0000000000
      1751       584  TIP3      H1              0.7519903705      -37.1048271127       -0.4062330134  W2        584             0.0000000000
      1752       584  TIP3      H2              0.4290003705      -36.8358371127        1.0481369866  W2        584             0.0000000000
      1753       585  TIP3      OH2             5.3212703705      -40.3972771127       -0.8166330134  W2        585             0.0000000000
      1754       585  TIP3      H1              6.0331103705      -41.0370571127       -0.8307230134  W2        585             0.0000000000
      1755       585  TIP3      H2              5.2203103705      -40.1304471127       -1.7303230134  W2        585             0.0000000000
      1756       586  TIP3      OH2             5.6750203705      -38.7144371127        1.2369969866  W2        586             0.0000000000
      1757       586  TIP3      H1              5.5432403705      -39.1900571127        0.4168469866  W2        586             0.0000000000
      1758       586  TIP3      H2              5.0757603705      -37.9700771127        1.1817069866  W2        586             0.0000000000
      1759       587  TIP3      OH2             5.2212503705      -21.8314071127      -15.5866030134  W2        587             0.0000000000
      1760       587  TIP3      H1              6.1543203705      -21.6735371127      -15.4427630134  W2        587             0.0000000000
      1761       587  TIP3      H2              4.9571303705      -21.1561071127      -16.2114530134  W2        587             0.0000000000
      1762       588  TIP3      OH2            -1.2102596295      -27.1950271127      -16.1037930134  W2        588             0.0000000000
      1763       588  TIP3      H1             -0.2963396295      -27.1161371127      -15.8304030134  W2        588             0.0000000000
      1764       588  TIP3      H2             -1.2029496295      -27.8820671127      -16.7702330134  W2        588             0.0000000000
      1765       589  TIP3      OH2            -2.5611996295      -21.8021771127      -11.0264030134  W2        589             0.0000000000
      1766       589  TIP3      H1             -3.2084896295      -22.2640071127      -11.5592830134  W2        589             0.0000000000
      1767       589  TIP3      H2             -2.2067396295      -22.4738471127      -10.4437830134  W2        589             0.0000000000
      1768       590  TIP3      OH2            -1.6912796295      -23.7214771127       -9.2217830134  W2        590             0.0000000000
      1769       590  TIP3      H1             -2.0255996295      -24.6017471127       -9.0497630134  W2        590             0.0000000000
      1770       590  TIP3      H2             -1.4690396295      -23.3759771127       -8.3572230134  W2        590             0.0000000000
      1771       591  TIP3      OH2            15.8572003705      -22.9118371127       -6.2413030134  W2        591             0.0000000000
      1772       591  TIP3      H1             15.8358703705      -22.7269971127       -5.3023630134  W2        591             0.0000000000
      1773       591  TIP3      H2             16.5478203705      -22.3434371127       -6.5821630134  W2        591             0.0000000000
      1774       592  TIP3      OH2            15.4204903705      -23.3447271127       -3.3193930134  W2        592             0.0000000000
      1775       592  TIP3      H1             14.9333603705      -24.0803171127       -3.6906530134  W2        592             0.0000000000
      1776       592  TIP3      H2             15.9697603705      -23.7383371127       -2.6414530134  W2        592             0.0000000000
      1777       593  TIP3      OH2            13.8712203705      -27.5549171127        1.3186369866  W2        593             0.0000000000
      1778       593  TIP3      H1             13.0053303705      -27.6599471127        1.7128669866  W2        593             0.0000000000
      1779       593  TIP3      H2             14.2478103705      -26.7965871127        1.7651069866  W2        593             0.0000000000
      1780       594  TIP3      OH2            15.1721903705      -29.2985471127      -13.1671130134  W2        594             0.0000000000
      1781       594  TIP3      H1             16.0223303705      -28.8774571127      -13.0399530134  W2        594             0.0000000000
      1782       594  TIP3      H2             15.1777003705      -30.0385371127      -12.5599730134  W2        594             0.0000000000
      1783       595  TIP3      OH2            15.5667503705      -31.2448071127      -11.3435430134  W2        595             0.0000000000
      1784       595  TIP3      H1             14.8402103705      -31.7245471127      -10.9457830134  W2        595             0.0000000000
      1785       595  TIP3      H2             16.1480803705      -31.0393371127      -10.6113830134  W2        595             0.0000000000
      1786       596  TIP3      OH2            15.3258703705      -28.4600571127       -6.3957830134  W2        596             0.0000000000
      1787       596  TIP3      H1             16.1592903705      -28.8380571127       -6.6764230134  W2        596             0.0000000000
      1788       596  TIP3      H2             15.4379003705      -27.5169371127       -6.5148730134  W2        596             0.0000000000
      1789       597  TIP3      OH2            13.8121003705      -25.5823071127       -4.0889430134  W2        597             0.0000000000
      1790       597  TIP3      H1             13.1646303705      -25.2571571127       -3.4634230134  W2        597             0.0000000000
      1791       597  TIP3      H2             13.2945003705      -26.0225371127       -4.7631130134  W2        597             0.0000000000
      1792       598  TIP3      OH2            15.8350603705      -31.3439571127      -14.9524130134  W2        598             0.0000000000
      1793       598  TIP3      H1             15.3131703705      -30.9875471127      -15.6713230134  W2        598             0.0000000000
      1794       598  TIP3      H2             15.8019803705      -30.6691771127      -14.2743230134  W2        598             0.0000000000
      1795       599  TIP3      OH2            14.1839603705      -34.1043971127      -16.4017030134  W2        599             0.0000000000
      1796       599  TIP3      H1             14.2804003705      -33.4376971127      -17.0817330134  W2        599             0.0000000000
      1797       599  TIP3      H2             14.0439203705      -34.9197671127      -16.8831530134  W2        599             0.0000000000
      1798       600  TIP3      OH2            13.3534303705      -32.7241571127      -10.7806730134  W2        600             0.0000000000
      1799       600  TIP3      H1             13.2033103705      -33.6692971127      -10.8008930134  W2        600             0.0000000000
      1800       600  TIP3      H2             12.9998803705      -32.4430171127       -9.9367630134  W2        600             0.0000000000
      1801       601  TIP3      OH2            -1.6113296295      -30.6459371127       -6.7702930134  W2        601             0.0000000000
      1802       601  TIP3      H1             -1.4270396295      -30.7277671127       -7.7060030134  W2        601             0.0000000000
      1803       601  TIP3      H2             -0.7620396295      -30.7702371127       -6.3466530134  W2        601             0.0000000000
      1804       602  TIP3      OH2            14.2097203705      -30.7538271127       -1.1418430134  W2        602             0.0000000000
      1805       602  TIP3      H1             14.7924503705      -31.4885971127       -0.9501230134  W2        602             0.0000000000
      1806       602  TIP3      H2             14.7736503705      -29.9817971127       -1.0952630134  W2        602             0.0000000000
      1807       603  TIP3      OH2            15.7064303705      -32.8512471127       -0.4573030134  W2        603             0.0000000000
      1808       603  TIP3      H1             14.8431003705      -33.2300371127       -0.6228330134  W2        603             0.0000000000
      1809       603  TIP3      H2             16.3108003705      -33.5897671127       -0.5317230134  W2        603             0.0000000000
      1810       604  TIP3      OH2            13.4313403705      -36.6964171127      -17.2841530134  W2        604             0.0000000000
      1811       604  TIP3      H1             14.0419203705      -37.0677371127      -16.6473330134  W2        604             0.0000000000
      1812       604  TIP3      H2             12.5944903705      -37.1177271127      -17.0881530134  W2        604             0.0000000000
      1813       605  TIP3      OH2            13.0639103705      -35.1415771127      -12.3181630134  W2        605             0.0000000000
      1814       605  TIP3      H1             13.3436203705      -36.0485371127      -12.1939930134  W2        605             0.0000000000
      1815       605  TIP3      H2             13.8230803705      -34.7074271127      -12.7072430134  W2        605             0.0000000000
      1816       606  TIP3      OH2            13.6757403705      -34.5598371127       -6.8822730134  W2        606             0.0000000000
      1817       606  TIP3      H1             14.6085403705      -34.3478471127       -6.9166730134  W2        606             0.0000000000
      1818       606  TIP3      H2             13.4404903705      -34.4586271127       -5.9599730134  W2        606             0.0000000000
      1819       607  TIP3      OH2            13.7049303705      -33.8233071127       -4.1063330134  W2        607             0.0000000000
      1820       607  TIP3      H1             12.8620603705      -33.5552671127       -3.7403530134  W2        607             0.0000000000
      1821       607  TIP3      H2             14.1473603705      -33.0011171127       -4.3172230134  W2        607             0.0000000000
      1822       608  TIP3      OH2            -2.0138496295      -35.3754371127       -0.6294130134  W2        608             0.0000000000
      1823       608  TIP3      H1             -1.0943596295      -35.4976071127       -0.3931030134  W2        608             0.0000000000
      1824       608  TIP3      H2             -2.4633996295      -36.1254671127       -0.2400630134  W2        608             0.0000000000
      1825       609  TIP3      OH2            15.9880903705      -39.8432871127        1.2471669866  W2        609             0.0000000000
      1826       609  TIP3      H1             16.3377903705      -40.4969371127        0.6416369866  W2        609             0.0000000000
      1827       609  TIP3      H2             16.1350403705      -39.0058771127        0.8074269866  W2        609             0.0000000000
      1828       610  TIP3      OH2            13.6773903705      -37.8786471127      -12.2699630134  W2        610             0.0000000000
      1829       610  TIP3      H1             13.8598903705      -38.3274971127      -11.4444630134  W2        610             0.0000000000
      1830       610  TIP3      H2             13.0776803705      -38.4632071127      -12.7335030134  W2        610             0.0000000000
      1831       611  TIP3      OH2            -0.7925996295      -37.0632771127       -7.7381230134  W2        611             0.0000000000
      1832       611  TIP3      H1             -0.3474396295      -37.8550271127       -7.4361530134  W2        611             0.0000000000
      1833       611  TIP3      H2             -0.3262996295      -36.3467571127       -7.3075630134  W2        611             0.0000000000
      1834       612  TIP3      OH2            -2.4885696295      -34.0639771127       -6.6691030134  W2        612             0.0000000000
      1835       612  TIP3      H1             -1.9965896295      -34.2849271127       -7.4599030134  W2        612             0.0000000000
      1836       612  TIP3      H2             -2.1264796295      -33.2236371127       -6.3881530134  W2        612             0.0000000000
      1837       613  TIP3      OH2            15.5078103705      -37.7338271127       -0.4037030134  W2        613             0.0000000000
      1838       613  TIP3      H1             14.5903803705      -37.4631171127       -0.4393530134  W2        613             0.0000000000
      1839       613  TIP3      H2             15.6307503705      -38.2689871127       -1.1877330134  W2        613             0.0000000000
      1840       614  TIP3      OH2            15.5440103705      -37.8108371127      -15.7419330134  W2        614             0.0000000000
      1841       614  TIP3      H1             15.9562703705      -38.5322671127      -16.2171330134  W2        614             0.0000000000
      1842       614  TIP3      H2             16.2256603705      -37.1413771127      -15.6835030134  W2        614             0.0000000000
      1843       615  TIP3      OH2            -2.1749196295      -37.8060671127      -12.6148630134  W2        615             0.0000000000
      1844       615  TIP3      H1             -3.1000796295      -37.5974071127      -12.7443130134  W2        615             0.0000000000
      1845       615  TIP3      H2             -1.7209296295      -37.3219871127      -13.3046330134  W2        615             0.0000000000
      1846       616  TIP3      OH2            12.5958003705      -22.8218971127      -10.6691230134  W2        616             0.0000000000
      1847       616  TIP3      H1             13.2480903705      -23.1696871127      -11.2772130134  W2        616             0.0000000000
      1848       616  TIP3      H2             13.1061803705      -22.3335771127      -10.0231530134  W2        616             0.0000000000
      1849       617  TIP3      OH2            -2.2113796295      -39.0681671127       -4.2706130134  W2        617             0.0000000000
      1850       617  TIP3      H1             -2.8763296295      -39.3141371127       -3.6275230134  W2        617             0.0000000000
      1851       617  TIP3      H2             -2.6542496295      -38.4461271127       -4.8478130134  W2        617             0.0000000000
      1852       618  TIP3      OH2            -0.0194496295      -25.8927571127       -0.1260330134  W2        618             0.0000000000
      1853       618  TIP3      H1             -0.8401996295      -25.7181071127       -0.5865630134  W2        618             0.0000000000
      1854       618  TIP3      H2             -0.2716696295      -25.9662871127        0.7944069866  W2        618             0.0000000000
      1855       619  TIP3      OH2             2.9348403705      -24.9186371127       -3.8676330134  W2        619             0.0000000000
      1856       619  TIP3      H1              2.5099503705      -24.1087871127       -4.1501730134  W2        619             0.0000000000
      1857       619  TIP3      H2              3.8391203705      -24.8332271127       -4.1696530134  W2        619             0.0000000000
      1858       620  TIP3      OH2             7.2459803705      -23.5196371127       -0.9082630134  W2        620             0.0000000000
      1859       620  TIP3      H1              7.4307303705      -23.8530271127       -0.0302330134  W2        620             0.0000000000
      1860       620  TIP3      H2              8.0924303705      -23.2097771127       -1.2303430134  W2        620             0.0000000000
      1861       621  TIP3      OH2             9.5910203705      -22.2337471127       -1.6641230134  W2        621             0.0000000000
      1862       621  TIP3      H1             10.2679103705      -22.8665171127       -1.9042030134  W2        621             0.0000000000
      1863       621  TIP3      H2              9.9129003705      -21.8326971127       -0.8567930134  W2        621             0.0000000000
      1864       622  TIP3      OH2            14.5084003705      -39.6441971127       -2.5846230134  W2        622             0.0000000000
      1865       622  TIP3      H1             13.6957503705      -39.3191671127       -2.9721530134  W2        622             0.0000000000
      1866       622  TIP3      H2             14.7412503705      -40.4043471127       -3.1177130134  W2        622             0.0000000000
      1867       623  TIP3      OH2             0.3365103705      -21.6622471127       -3.8201030134  W2        623             0.0000000000
      1868       623  TIP3      H1             -0.3838496295      -21.2221471127       -4.2713330134  W2        623             0.0000000000
      1869       623  TIP3      H2             -0.0290896295      -21.9127771127       -2.9717030134  W2        623             0.0000000000
      1870       624  TIP3      OH2             2.8037703705      -22.0618571127       -4.7903830134  W2        624             0.0000000000
      1871       624  TIP3      H1              1.9389903705      -21.9900071127       -4.3863730134  W2        624             0.0000000000
      1872       624  TIP3      H2              2.7486703705      -21.5151271127       -5.5741330134  W2        624             0.0000000000
      1873       625  TIP3      OH2             7.5143303705      -22.1739671127       -5.6147830134  W2        625             0.0000000000
      1874       625  TIP3      H1              7.0577303705      -21.6449971127       -6.2689430134  W2        625             0.0000000000
      1875       625  TIP3      H2              7.6771303705      -21.5708271127       -4.8895530134  W2        625             0.0000000000
      1876       626  TIP3      OH2             9.8419603705      -23.2960071127       -4.6697530134  W2        626             0.0000000000
      1877       626  TIP3      H1              8.9373303705      -23.1309871127       -4.9355430134  W2        626             0.0000000000
      1878       626  TIP3      H2             10.2708203705      -22.4427871127       -4.7354130134  W2        626             0.0000000000
      1879       627  TIP3      OH2            12.4461503705      -21.7260971127       -4.3749730134  W2        627             0.0000000000
      1880       627  TIP3      H1             12.2643503705      -20.8102071127       -4.5854830134  W2        627             0.0000000000
      1881       627  TIP3      H2             12.6229303705      -22.1363871127       -5.2215130134  W2        627             0.0000000000
      1882       628  TIP3      OH2            -0.2486796295      -23.0389971127       -6.9099230134  W2        628             0.0000000000
      1883       628  TIP3      H1             -0.2670796295      -23.4644871127       -6.0526930134  W2        628             0.0000000000
      1884       628  TIP3      H2              0.5561103705      -23.3574971127       -7.3187030134  W2        628             0.0000000000
      1885       629  TIP3      OH2             1.8926303705      -24.3291271127       -8.2549330134  W2        629             0.0000000000
      1886       629  TIP3      H1              1.6737003705      -25.2453871127       -8.0853330134  W2        629             0.0000000000
      1887       629  TIP3      H2              2.7168503705      -24.1890871127       -7.7887930134  W2        629             0.0000000000
      1888       630  TIP3      OH2             4.4298803705      -23.8591971127       -7.4061330134  W2        630             0.0000000000
      1889       630  TIP3      H1              4.6424503705      -24.7472971127       -7.6930430134  W2        630             0.0000000000
      1890       630  TIP3      H2              4.4943903705      -23.8934271127       -6.4517330134  W2        630             0.0000000000
      1891       631  TIP3      OH2             7.9382503705      -38.1951371127       -8.2618030134  W2        631             0.0000000000
      1892       631  TIP3      H1              7.2639303705      -38.8245771127       -8.0062230134  W2        631             0.0000000000
      1893       631  TIP3      H2              8.5021703705      -38.6792471127       -8.8650130134  W2        631             0.0000000000
      1894       632  TIP3      OH2            13.0809703705      -40.0877371127       -8.1490930134  W2        632             0.0000000000
      1895       632  TIP3      H1             13.6847303705      -39.5401971127       -8.6509930134  W2        632             0.0000000000
      1896       632  TIP3      H2             12.2111703705      -39.7686971127       -8.3896830134  W2        632             0.0000000000
      1897       633  TIP3      OH2            14.8080103705      -38.9488671127       -9.8160030134  W2        633             0.0000000000
      1898       633  TIP3      H1             15.4197603705      -39.4632971127      -10.3426430134  W2        633             0.0000000000
      1899       633  TIP3      H2             15.1903503705      -38.0716571127       -9.7925630134  W2        633             0.0000000000
      1900       634  TIP3      OH2             0.2650003705      -39.5611071127      -10.4398130134  W2        634             0.0000000000
      1901       634  TIP3      H1             -0.5120196295      -39.7956171127      -10.9472230134  W2        634             0.0000000000
      1902       634  TIP3      H2              0.7953603705      -40.3578971127      -10.4310130134  W2        634             0.0000000000
      1903       635  TIP3      OH2            -0.8986596295      -39.7632971127      -14.6362030134  W2        635             0.0000000000
      1904       635  TIP3      H1             -0.4595896295      -39.1522471127      -15.2278530134  W2        635             0.0000000000
      1905       635  TIP3      H2             -1.5324196295      -39.2248871127      -14.1622030134  W2        635             0.0000000000
      1906       636  TIP3      OH2             4.8442603705      -39.6343971127      -10.6265030134  W2        636             0.0000000000
      1907       636  TIP3      H1              5.7186003705      -39.2459671127      -10.6560730134  W2        636             0.0000000000
      1908       636  TIP3      H2              4.7083403705      -39.8496171127       -9.7037830134  W2        636             0.0000000000
      1909       637  TIP3      OH2            10.4011003705      -39.6044171127       -8.9773330134  W2        637             0.0000000000
      1910       637  TIP3      H1             10.4772603705      -39.5092571127       -9.9267330134  W2        637             0.0000000000
      1911       637  TIP3      H2             10.1260203705      -40.5121271127       -8.8484230134  W2        637             0.0000000000
      1912       638  TIP3      OH2            11.7543603705      -39.5786371127      -13.2848330134  W2        638             0.0000000000
      1913       638  TIP3      H1             11.0514703705      -38.9637171127      -13.4946930134  W2        638             0.0000000000
      1914       638  TIP3      H2             11.3095003705      -40.4159671127      -13.1537430134  W2        638             0.0000000000
      1915       639  TIP3      OH2            -0.9977096295      -23.8150771127      -13.7386930134  W2        639             0.0000000000
      1916       639  TIP3      H1             -1.6827196295      -23.8531871127      -14.4061830134  W2        639             0.0000000000
      1917       639  TIP3      H2             -0.9939896295      -22.9023171127      -13.4504830134  W2        639             0.0000000000
      1918       640  TIP3      OH2             0.9622503705      -37.8471471127      -16.1937930134  W2        640             0.0000000000
      1919       640  TIP3      H1              1.4535903705      -38.4769071127      -16.7212430134  W2        640             0.0000000000
      1920       640  TIP3      H2              1.5858803705      -37.5512071127      -15.5306730134  W2        640             0.0000000000
      1921       641  TIP3      OH2             5.9882603705      -37.5539971127      -13.7367430134  W2        641             0.0000000000
      1922       641  TIP3      H1              6.1663903705      -38.2006771127      -13.0538830134  W2        641             0.0000000000
      1923       641  TIP3      H2              5.9348803705      -36.7202271127      -13.2696330134  W2        641             0.0000000000
      1924       642  TIP3      OH2             7.8666403705      -22.6055871127      -15.3410730134  W2        642             0.0000000000
      1925       642  TIP3      H1              8.7326603705      -22.2388471127      -15.5192530134  W2        642             0.0000000000
      1926       642  TIP3      H2              7.6199203705      -23.0447871127      -16.1549930134  W2        642             0.0000000000
      1927       643  TIP3      OH2            14.5756003705      -23.0425571127      -12.6619630134  W2        643             0.0000000000
      1928       643  TIP3      H1             14.3813103705      -23.7903471127      -13.2270030134  W2        643             0.0000000000
      1929       643  TIP3      H2             14.5366103705      -22.2845471127      -13.2451730134  W2        643             0.0000000000
      1930       644  TIP3      OH2             0.2228003705      -39.0469171127       -0.9221930134  W2        644             0.0000000000
      1931       644  TIP3      H1             -0.1433796295      -39.8126571127       -0.4797230134  W2        644             0.0000000000
      1932       644  TIP3      H2              1.1356503705      -39.0178971127       -0.6356830134  W2        644             0.0000000000
      1933       645  TIP3      OH2             2.1958803705      -39.6964771127        0.6135169866  W2        645             0.0000000000
      1934       645  TIP3      H1              3.0942403705      -39.9704571127        0.4288569866  W2        645             0.0000000000
      1935       645  TIP3      H2              1.8091903705      -40.4388771127        1.0777769866  W2        645             0.0000000000
      1936       646  TIP3      OH2             0.8204103705      -22.8949971127      -16.7134830134  W2        646             0.0000000000
      1937       646  TIP3      H1              0.5528703705      -22.6087071127      -15.8401730134  W2        646             0.0000000000
      1938       646  TIP3      H2              1.5916703705      -23.4410771127      -16.5612330134  W2        646             0.0000000000
      1939       647  TIP3      OH2            10.6171103705      -40.3639471127        0.7957969866  W2        647             0.0000000000
      1940       647  TIP3      H1             10.6938303705      -40.7898771127        1.6495669866  W2        647             0.0000000000
      1941       647  TIP3      H2             11.5107703705      -40.3504771127        0.4531469866  W2        647             0.0000000000
      1942       648  TIP3      OH2            13.7932203705      -24.2913171127       -0.5117830134  W2        648             0.0000000000
      1943       648  TIP3      H1             13.0114103705      -24.4775171127       -1.0317230134  W2        648             0.0000000000
      1944       648  TIP3      H2             13.7212103705      -23.3618871127       -0.2945330134  W2        648             0.0000000000
      1945       649  TIP3      OH2            28.1992603705      -30.4048771127      -10.4810630134  W2        649             0.0000000000
      1946       649  TIP3      H1             28.2883703705      -29.4610571127      -10.6133530134  W2        649             0.0000000000
      1947       649  TIP3      H2             27.5610203705      -30.6802371127      -11.1391230134  W2        649             0.0000000000
      1948       650  TIP3      OH2            27.1323903705      -31.1498071127       -7.0622430134  W2        650             0.0000000000
      1949       650  TIP3      H1             27.0941403705      -31.7961771127       -6.3572830134  W2        650             0.0000000000
      1950       650  TIP3      H2             26.8100403705      -31.6163671127       -7.8333730134  W2        650             0.0000000000
      1951       651  TIP3      OH2            19.5008903705      -31.5355971127       -5.4692530134  W2        651             0.0000000000
      1952       651  TIP3      H1             19.5421003705      -32.1612671127       -4.7460130134  W2        651             0.0000000000
      1953       651  TIP3      H2             20.2036603705      -30.9117371127       -5.2872130134  W2        651             0.0000000000
      1954       652  TIP3      OH2            30.8384103705      -28.2107671127       -8.7607330134  W2        652             0.0000000000
      1955       652  TIP3      H1             30.3976803705      -28.9311671127       -8.3101730134  W2        652             0.0000000000
      1956       652  TIP3      H2             30.8253803705      -27.4900471127       -8.1309630134  W2        652             0.0000000000
      1957       653  TIP3      OH2            20.4242003705      -27.0857071127       -6.9343430134  W2        653             0.0000000000
      1958       653  TIP3      H1             20.0547203705      -27.8876571127       -7.3039130134  W2        653             0.0000000000
      1959       653  TIP3      H2             21.3653103705      -27.2542171127       -6.8880030134  W2        653             0.0000000000
      1960       654  TIP3      OH2            17.0342503705      -33.4254471127      -11.5414630134  W2        654             0.0000000000
      1961       654  TIP3      H1             16.5865903705      -32.5795771127      -11.5598130134  W2        654             0.0000000000
      1962       654  TIP3      H2             16.4733703705      -34.0050271127      -12.0569530134  W2        654             0.0000000000
      1963       655  TIP3      OH2            17.7448603705      -31.2634871127       -9.4156630134  W2        655             0.0000000000
      1964       655  TIP3      H1             17.9582103705      -32.0333271127       -8.8883630134  W2        655             0.0000000000
      1965       655  TIP3      H2             18.4826203705      -31.1738171127      -10.0189030134  W2        655             0.0000000000
      1966       656  TIP3      OH2            27.9499603705      -23.1065971127       -8.5486930134  W2        656             0.0000000000
      1967       656  TIP3      H1             28.5696003705      -23.7831271127       -8.8217730134  W2        656             0.0000000000
      1968       656  TIP3      H2             27.7417003705      -23.3245171127       -7.6402030134  W2        656             0.0000000000
      1969       657  TIP3      OH2            25.5218303705      -28.7176671127       -6.6561430134  W2        657             0.0000000000
      1970       657  TIP3      H1             25.8256203705      -29.4035271127       -7.2507330134  W2        657             0.0000000000
      1971       657  TIP3      H2             26.2432303705      -28.5987971127       -6.0383430134  W2        657             0.0000000000
      1972       658  TIP3      OH2            34.1848103705      -37.1161371127       -5.7955230134  W2        658             0.0000000000
      1973       658  TIP3      H1             34.2340303705      -36.5060171127       -5.0596130134  W2        658             0.0000000000
      1974       658  TIP3      H2             34.6103203705      -36.6550471127       -6.5184130134  W2        658             0.0000000000
      1975       659  TIP3      OH2            28.6625303705      -34.3234271127       -6.3286630134  W2        659             0.0000000000
      1976       659  TIP3      H1             28.8051203705      -35.2697271127       -6.3085030134  W2        659             0.0000000000
      1977       659  TIP3      H2             28.5564303705      -34.1164471127       -7.2571730134  W2        659             0.0000000000
      1978       660  TIP3      OH2            21.8173603705      -36.2217871127       -9.0561830134  W2        660             0.0000000000
      1979       660  TIP3      H1             21.8604703705      -35.3619371127       -9.4745530134  W2        660             0.0000000000
      1980       660  TIP3      H2             21.3597703705      -36.7743171127       -9.6898630134  W2        660             0.0000000000
      1981       661  TIP3      OH2            29.5396303705      -36.0912271127      -10.6553530134  W2        661             0.0000000000
      1982       661  TIP3      H1             30.1860603705      -36.4199071127      -10.0305930134  W2        661             0.0000000000
      1983       661  TIP3      H2             30.0495703705      -35.5733271127      -11.2782130134  W2        661             0.0000000000
      1984       662  TIP3      OH2            18.4375103705      -33.8252071127       -8.2940430134  W2        662             0.0000000000
      1985       662  TIP3      H1             19.0911703705      -34.3750371127       -7.8620330134  W2        662             0.0000000000
      1986       662  TIP3      H2             18.4614403705      -34.0993071127       -9.2108430134  W2        662             0.0000000000
      1987       663  TIP3      OH2            23.5939603705      -32.2750771127       -9.0788930134  W2        663             0.0000000000
      1988       663  TIP3      H1             24.2100603705      -32.8015371127       -8.5694930134  W2        663             0.0000000000
      1989       663  TIP3      H2             23.0078403705      -32.9152071127       -9.4825330134  W2        663             0.0000000000
      1990       664  TIP3      OH2            34.5762703705      -35.6382171127       -3.5595430134  W2        664             0.0000000000
      1991       664  TIP3      H1             33.8877303705      -34.9801471127       -3.6548830134  W2        664             0.0000000000
      1992       664  TIP3      H2             34.5917303705      -35.8354271127       -2.6230030134  W2        664             0.0000000000
      1993       665  TIP3      OH2            20.6275503705      -37.3039471127       -4.9821030134  W2        665             0.0000000000
      1994       665  TIP3      H1             20.4087203705      -36.7738871127       -5.7485030134  W2        665             0.0000000000
      1995       665  TIP3      H2             19.9596403705      -37.0773971127       -4.3349630134  W2        665             0.0000000000
      1996       666  TIP3      OH2            27.9965303705      -27.8038371127      -11.4381930134  W2        666             0.0000000000
      1997       666  TIP3      H1             27.7010403705      -28.1266071127      -12.2895030134  W2        666             0.0000000000
      1998       666  TIP3      H2             27.6723103705      -26.9041671127      -11.3969330134  W2        666             0.0000000000
      1999       667  TIP3      OH2            23.1966903705      -29.6283771127       -4.6947330134  W2        667             0.0000000000
      2000       667  TIP3      H1             22.4566003705      -29.0302271127       -4.5912130134  W2        667             0.0000000000
      2001       667  TIP3      H2             23.9106403705      -29.0744171127       -5.0103730134  W2        667             0.0000000000
      2002       668  TIP3      OH2            31.3034703705      -36.8002971127       -8.6747630134  W2        668             0.0000000000
      2003       668  TIP3      H1             31.0882703705      -37.5659571127       -8.1421630134  W2        668             0.0000000000
      2004       668  TIP3      H2             31.9592103705      -36.3278371127       -8.1619130134  W2        668             0.0000000000
      2005       669  TIP3      OH2            20.2212803705      -35.4117671127       -7.0298830134  W2        669             0.0000000000
      2006       669  TIP3      H1             20.8349103705      -34.7790071127       -6.6566430134  W2        669             0.0000000000
      2007       669  TIP3      H2             20.7333503705      -35.8842671127       -7.6861930134  W2        669             0.0000000000
      2008       670  TIP3      OH2            21.6041203705      -27.6640771127       -3.9075830134  W2        670             0.0000000000
      2009       670  TIP3      H1             21.5988803705      -26.7847271127       -4.2856530134  W2        670             0.0000000000
      2010       670  TIP3      H2             20.7505303705      -27.7476671127       -3.4825930134  W2        670             0.0000000000
      2011       671  TIP3      OH2            17.7252103705      -27.9932871127      -13.1256530134  W2        671             0.0000000000
      2012       671  TIP3      H1             17.4533003705      -27.7641871127      -14.0143630134  W2        671             0.0000000000
      2013       671  TIP3      H2             17.7707803705      -27.1554071127      -12.6651230134  W2        671             0.0000000000
      2014       672  TIP3      OH2            31.3501803705      -26.3716971127       -6.4128030134  W2        672             0.0000000000
      2015       672  TIP3      H1             30.4085503705      -26.3133071127       -6.2511130134  W2        672             0.0000000000
      2016       672  TIP3      H2             31.6267903705      -25.4656471127       -6.5498330134  W2        672             0.0000000000
      2017       673  TIP3      OH2            31.6508803705      -38.0851671127       -4.9954130134  W2        673             0.0000000000
      2018       673  TIP3      H1             30.9148003705      -37.4744571127       -5.0332830134  W2        673             0.0000000000
      2019       673  TIP3      H2             32.3342803705      -37.6702671127       -5.5217730134  W2        673             0.0000000000
      2020       674  TIP3      OH2            24.6540203705      -39.9984371127       -7.5296130134  W2        674             0.0000000000
      2021       674  TIP3      H1             24.5364403705      -40.9468371127       -7.5837830134  W2        674             0.0000000000
      2022       674  TIP3      H2             23.7990303705      -39.6658271127       -7.2565030134  W2        674             0.0000000000
      2023       675  TIP3      OH2            29.6023003705      -24.5903471127       -9.7876430134  W2        675             0.0000000000
      2024       675  TIP3      H1             30.0275303705      -25.2975571127      -10.2726830134  W2        675             0.0000000000
      2025       675  TIP3      H2             29.9193003705      -23.7890771127      -10.2044230134  W2        675             0.0000000000
      2026       676  TIP3      OH2            30.7619503705      -26.6894971127      -11.2789830134  W2        676             0.0000000000
      2027       676  TIP3      H1             30.5044303705      -27.3794871127      -11.8903930134  W2        676             0.0000000000
      2028       676  TIP3      H2             30.8330303705      -27.1323771127      -10.4333930134  W2        676             0.0000000000
      2029       677  TIP3      OH2            32.4479703705      -28.1228271127       -2.8016330134  W2        677             0.0000000000
      2030       677  TIP3      H1             32.5876003705      -28.7145771127       -3.5409330134  W2        677             0.0000000000
      2031       677  TIP3      H2             32.6152503705      -27.2502371127       -3.1577530134  W2        677             0.0000000000
      2032       678  TIP3      OH2            26.9205103705      -31.1608771127      -13.0290330134  W2        678             0.0000000000
      2033       678  TIP3      H1             26.2090603705      -30.6259071127      -13.3809830134  W2        678             0.0000000000
      2034       678  TIP3      H2             27.6114703705      -31.1056671127      -13.6891430134  W2        678             0.0000000000
      2035       679  TIP3      OH2            26.9744303705      -32.7034471127      -15.9905330134  W2        679             0.0000000000
      2036       679  TIP3      H1             27.6754203705      -32.6807571127      -15.3391330134  W2        679             0.0000000000
      2037       679  TIP3      H2             27.2767203705      -33.3314771127      -16.6466030134  W2        679             0.0000000000
      2038       680  TIP3      OH2            34.2899003705      -31.7830271127       -4.7355930134  W2        680             0.0000000000
      2039       680  TIP3      H1             33.6373103705      -31.0884671127       -4.6465030134  W2        680             0.0000000000
      2040       680  TIP3      H2             34.7549303705      -31.5729371127       -5.5454330134  W2        680             0.0000000000
      2041       681  TIP3      OH2            30.3262803705      -30.9515471127      -12.0774430134  W2        681             0.0000000000
      2042       681  TIP3      H1             29.5943803705      -30.7231771127      -11.5043830134  W2        681             0.0000000000
      2043       681  TIP3      H2             30.7735003705      -31.6652771127      -11.6226930134  W2        681             0.0000000000
      2044       682  TIP3      OH2            30.2236303705      -32.7772871127       -3.0097430134  W2        682             0.0000000000
      2045       682  TIP3      H1             30.3035403705      -32.0138471127       -2.4378930134  W2        682             0.0000000000
      2046       682  TIP3      H2             29.6224003705      -32.4980471127       -3.7002330134  W2        682             0.0000000000
      2047       683  TIP3      OH2            21.9716503705      -30.3209271127      -10.1949430134  W2        683             0.0000000000
      2048       683  TIP3      H1             21.6411703705      -30.6915871127      -11.0132430134  W2        683             0.0000000000
      2049       683  TIP3      H2             22.5600603705      -30.9915271127       -9.8481130134  W2        683             0.0000000000
      2050       684  TIP3      OH2            23.3384003705      -26.8928671127       -7.5137230134  W2        684             0.0000000000
      2051       684  TIP3      H1             23.2435303705      -27.4715571127       -8.2702630134  W2        684             0.0000000000
      2052       684  TIP3      H2             24.0677603705      -27.2642971127       -7.0174430134  W2        684             0.0000000000
      2053       685  TIP3      OH2            22.3382003705      -31.5523671127       -6.5614430134  W2        685             0.0000000000
      2054       685  TIP3      H1             22.9034503705      -31.4309471127       -7.3243230134  W2        685             0.0000000000
      2055       685  TIP3      H2             22.6570903705      -30.9148671127       -5.9225930134  W2        685             0.0000000000
      2056       686  TIP3      OH2            28.6474203705      -26.0491771127       -5.8273930134  W2        686             0.0000000000
      2057       686  TIP3      H1             28.4070803705      -25.3868671127       -5.1794730134  W2        686             0.0000000000
      2058       686  TIP3      H2             28.4492403705      -26.8836571127       -5.4024330134  W2        686             0.0000000000
      2059       687  TIP3      OH2            23.2182703705      -27.1530971127       -1.8442530134  W2        687             0.0000000000
      2060       687  TIP3      H1             22.9070203705      -26.3707771127       -1.3889330134  W2        687             0.0000000000
      2061       687  TIP3      H2             22.5682903705      -27.3061871127       -2.5300530134  W2        687             0.0000000000
      2062       688  TIP3      OH2            29.1972303705      -31.7892571127      -14.3923230134  W2        688             0.0000000000
      2063       688  TIP3      H1             29.7767803705      -31.6392271127      -13.6454330134  W2        688             0.0000000000
      2064       688  TIP3      H2             29.6112303705      -31.3185171127      -15.1156830134  W2        688             0.0000000000
      2065       689  TIP3      OH2            20.1382603705      -30.9549871127       -2.6156830134  W2        689             0.0000000000
      2066       689  TIP3      H1             20.2085803705      -30.3043071127       -1.9171830134  W2        689             0.0000000000
      2067       689  TIP3      H2             19.2474803705      -30.8522371127       -2.9505930134  W2        689             0.0000000000
      2068       690  TIP3      OH2            26.9237203705      -25.0524071127      -10.9570130134  W2        690             0.0000000000
      2069       690  TIP3      H1             27.3974803705      -24.7567771127      -10.1795930134  W2        690             0.0000000000
      2070       690  TIP3      H2             26.3606503705      -24.3142471127      -11.1900530134  W2        690             0.0000000000
      2071       691  TIP3      OH2            21.4578603705      -25.0815971127       -1.0808730134  W2        691             0.0000000000
      2072       691  TIP3      H1             21.4653903705      -25.2176271127       -2.0283230134  W2        691             0.0000000000
      2073       691  TIP3      H2             20.5419003705      -25.1987871127       -0.8288730134  W2        691             0.0000000000
      2074       692  TIP3      OH2            32.8960703705      -40.0392171127      -14.5793530134  W2        692             0.0000000000
      2075       692  TIP3      H1             31.9961403705      -39.9003171127      -14.2842930134  W2        692             0.0000000000
      2076       692  TIP3      H2             33.1479103705      -39.2077571127      -14.9811830134  W2        692             0.0000000000
      2077       693  TIP3      OH2            20.9619203705      -31.2514971127      -12.6056630134  W2        693             0.0000000000
      2078       693  TIP3      H1             20.6700503705      -30.4833271127      -13.0965330134  W2        693             0.0000000000
      2079       693  TIP3      H2             20.2874403705      -31.9108771127      -12.7685230134  W2        693             0.0000000000
      2080       694  TIP3      OH2            34.0852103705      -25.6729771127      -16.2029630134  W2        694             0.0000000000
      2081       694  TIP3      H1             34.1585603705      -24.7339571127      -16.0324330134  W2        694             0.0000000000
      2082       694  TIP3      H2             34.9907203705      -25.9781171127      -16.2592330134  W2        694             0.0000000000
      2083       695  TIP3      OH2            17.0549303705      -28.8885771127       -3.7906830134  W2        695             0.0000000000
      2084       695  TIP3      H1             16.5537703705      -28.9166371127       -4.6057130134  W2        695             0.0000000000
      2085       695  TIP3      H2             17.0603003705      -29.7942571127       -3.4809530134  W2        695             0.0000000000
      2086       696  TIP3      OH2            16.8052003705      -26.1081971127       -6.9066630134  W2        696             0.0000000000
      2087       696  TIP3      H1             17.7512603705      -26.2524971127       -6.9257130134  W2        696             0.0000000000
      2088       696  TIP3      H2             16.6928303705      -25.3239171127       -6.3695430134  W2        696             0.0000000000
      2089       697  TIP3      OH2            35.0030503705      -25.4422271127       -1.2242930134  W2        697             0.0000000000
      2090       697  TIP3      H1             34.9537303705      -26.3974171127       -1.2615330134  W2        697             0.0000000000
      2091       697  TIP3      H2             34.1762803705      -25.1746971127       -0.8229130134  W2        697             0.0000000000
      2092       698  TIP3      OH2            25.9814503705      -25.8683071127       -2.3481530134  W2        698             0.0000000000
      2093       698  TIP3      H1             26.0689103705      -25.0418471127       -1.8732430134  W2        698             0.0000000000
      2094       698  TIP3      H2             25.1179603705      -26.1979271127       -2.0992230134  W2        698             0.0000000000
      2095       699  TIP3      OH2            26.3960303705      -22.0959371127      -12.5420930134  W2        699             0.0000000000
      2096       699  TIP3      H1             26.3206303705      -22.2172171127      -13.4885730134  W2        699             0.0000000000
      2097       699  TIP3      H2             26.4289003705      -21.1466671127      -12.4236330134  W2        699             0.0000000000
      2098       700  TIP3      OH2            20.0494103705      -23.3072371127      -10.7611930134  W2        700             0.0000000000
      2099       700  TIP3      H1             20.2014503705      -23.6551971127       -9.8825430134  W2        700             0.0000000000
      2100       700  TIP3      H2             19.1984503705      -23.6635071127      -11.0164730134  W2        700             0.0000000000
      2101       701  TIP3      OH2            29.4976303705      -22.9419171127      -15.5398530134  W2        701             0.0000000000
      2102       701  TIP3      H1             29.8724703705      -23.6863071127      -16.0105930134  W2        701             0.0000000000
      2103       701  TIP3      H2             29.5020003705      -23.2118571127      -14.6215230134  W2        701             0.0000000000
      2104       702  TIP3      OH2            29.1664403705      -23.0162071127      -12.7906330134  W2        702             0.0000000000
      2105       702  TIP3      H1             28.2314203705      -22.9160171127      -12.6119330134  W2        702             0.0000000000
      2106       702  TIP3      H2             29.4466303705      -23.7256071127      -12.2123130134  W2        702             0.0000000000
      2107       703  TIP3      OH2            32.1550303705      -33.9489771127       -0.7440730134  W2        703             0.0000000000
      2108       703  TIP3      H1             31.7477103705      -33.4684171127       -1.4647430134  W2        703             0.0000000000
      2109       703  TIP3      H2             32.1956003705      -34.8543771127       -1.0519930134  W2        703             0.0000000000
      2110       704  TIP3      OH2            19.3039803705      -27.5650371127       -2.7474030134  W2        704             0.0000000000
      2111       704  TIP3      H1             19.5201103705      -27.9264771127       -1.8878230134  W2        704             0.0000000000
      2112       704  TIP3      H2             18.4484503705      -27.9396571127       -2.9570530134  W2        704             0.0000000000
      2113       705  TIP3      OH2            21.9227803705      -39.0949871127       -6.7519830134  W2        705             0.0000000000
      2114       705  TIP3      H1             21.0611503705      -39.1821671127       -7.1596930134  W2        705             0.0000000000
      2115       705  TIP3      H2             21.9003503705      -38.2389771127       -6.3242230134  W2        705             0.0000000000
      2116       706  TIP3      OH2            26.5855603705      -39.3729471127       -3.3772830134  W2        706             0.0000000000
      2117       706  TIP3      H1             27.0058703705      -39.7882371127       -2.6242230134  W2        706             0.0000000000
      2118       706  TIP3      H2             25.6525203705      -39.5516171127       -3.2600830134  W2        706             0.0000000000
      2119       707  TIP3      OH2            29.9120503705      -35.6174271127       -2.5238330134  W2        707             0.0000000000
      2120       707  TIP3      H1             29.3980003705      -35.7432071127       -1.7262330134  W2        707             0.0000000000
      2121       707  TIP3      H2             29.7565203705      -34.7051171127       -2.7682130134  W2        707             0.0000000000
      2122       708  TIP3      OH2            30.6745403705      -30.7564271127      -16.7625330134  W2        708             0.0000000000
      2123       708  TIP3      H1             30.7166203705      -30.9790371127      -17.6925330134  W2        708             0.0000000000
      2124       708  TIP3      H2             31.5237503705      -30.3577171127      -16.5725430134  W2        708             0.0000000000
      2125       709  TIP3      OH2            26.2472903705      -36.8806071127      -16.0922030134  W2        709             0.0000000000
      2126       709  TIP3      H1             25.9937703705      -36.8614471127      -15.1693930134  W2        709             0.0000000000
      2127       709  TIP3      H2             25.9905003705      -37.7520671127      -16.3935830134  W2        709             0.0000000000
      2128       710  TIP3      OH2            22.0137903705      -34.1295371127       -5.6569630134  W2        710             0.0000000000
      2129       710  TIP3      H1             21.3720003705      -34.1698071127       -4.9479530134  W2        710             0.0000000000
      2130       710  TIP3      H2             22.0509903705      -33.2030671127       -5.8946630134  W2        710             0.0000000000
      2131       711  TIP3      OH2            22.0107003705      -33.9085271127      -10.7449630134  W2        711             0.0000000000
      2132       711  TIP3      H1             21.1179903705      -34.2489171127      -10.8035830134  W2        711             0.0000000000
      2133       711  TIP3      H2             22.4613603705      -34.2854371127      -11.5006430134  W2        711             0.0000000000
      2134       712  TIP3      OH2            27.5462503705      -33.4924971127      -11.9278830134  W2        712             0.0000000000
      2135       712  TIP3      H1             27.1372803705      -32.6776371127      -12.2194030134  W2        712             0.0000000000
      2136       712  TIP3      H2             28.2668703705      -33.6324871127      -12.5421730134  W2        712             0.0000000000
      2137       713  TIP3      OH2            26.6484103705      -33.3168571127       -0.4398130134  W2        713             0.0000000000
      2138       713  TIP3      H1             26.0857903705      -34.0216971127       -0.1190330134  W2        713             0.0000000000
      2139       713  TIP3      H2             27.4747503705      -33.4376671127        0.0279469866  W2        713             0.0000000000
      2140       714  TIP3      OH2            28.5510203705      -34.0464571127       -9.1139130134  W2        714             0.0000000000
      2141       714  TIP3      H1             28.3554703705      -33.4407771127       -9.8288530134  W2        714             0.0000000000
      2142       714  TIP3      H2             28.7322803705      -34.8799371127       -9.5482830134  W2        714             0.0000000000
      2143       715  TIP3      OH2            19.7638403705      -33.8091871127       -3.7897630134  W2        715             0.0000000000
      2144       715  TIP3      H1             19.7257803705      -33.4090271127       -2.9210530134  W2        715             0.0000000000
      2145       715  TIP3      H2             19.2729503705      -34.6259471127       -3.6994730134  W2        715             0.0000000000
      2146       716  TIP3      OH2            23.1295803705      -36.4349571127      -16.9911630134  W2        716             0.0000000000
      2147       716  TIP3      H1             22.6986503705      -36.8799471127      -16.2614230134  W2        716             0.0000000000
      2148       716  TIP3      H2             22.4114503705      -36.0633271127      -17.5034130134  W2        716             0.0000000000
      2149       717  TIP3      OH2            16.3719203705      -36.6930071127       -9.9392930134  W2        717             0.0000000000
      2150       717  TIP3      H1             17.0026903705      -36.7217971127       -9.2199030134  W2        717             0.0000000000
      2151       717  TIP3      H2             16.8213503705      -37.1181371127      -10.6697030134  W2        717             0.0000000000
      2152       718  TIP3      OH2            17.6461303705      -35.9468071127      -14.5152530134  W2        718             0.0000000000
      2153       718  TIP3      H1             18.1203003705      -35.3558171127      -15.1001630134  W2        718             0.0000000000
      2154       718  TIP3      H2             16.9287703705      -35.4165171127      -14.1682430134  W2        718             0.0000000000
      2155       719  TIP3      OH2            27.8149403705      -32.4083271127       -4.4426730134  W2        719             0.0000000000
      2156       719  TIP3      H1             28.1384203705      -33.0393571127       -5.0856230134  W2        719             0.0000000000
      2157       719  TIP3      H2             27.3748703705      -32.9431071127       -3.7819330134  W2        719             0.0000000000
      2158       720  TIP3      OH2            24.5922303705      -36.4807771127       -9.6585530134  W2        720             0.0000000000
      2159       720  TIP3      H1             23.6813403705      -36.4240971127       -9.3699530134  W2        720             0.0000000000
      2160       720  TIP3      H2             25.0975203705      -36.5412271127       -8.8478330134  W2        720             0.0000000000
      2161       721  TIP3      OH2            19.4205703705      -34.8521471127      -10.8317930134  W2        721             0.0000000000
      2162       721  TIP3      H1             18.5313703705      -34.7525971127      -11.1718330134  W2        721             0.0000000000
      2163       721  TIP3      H2             19.7170603705      -35.6938471127      -11.1780030134  W2        721             0.0000000000
      2164       722  TIP3      OH2            23.0737503705      -34.8518871127      -13.1753330134  W2        722             0.0000000000
      2165       722  TIP3      H1             24.0053003705      -34.7228871127      -12.9970230134  W2        722             0.0000000000
      2166       722  TIP3      H2             22.8587803705      -34.1824571127      -13.8248630134  W2        722             0.0000000000
      2167       723  TIP3      OH2            28.9974203705      -37.2461471127       -6.3943730134  W2        723             0.0000000000
      2168       723  TIP3      H1             28.3205803705      -37.1148371127       -5.7304030134  W2        723             0.0000000000
      2169       723  TIP3      H2             28.5119103705      -37.4011971127       -7.2046030134  W2        723             0.0000000000
      2170       724  TIP3      OH2            21.7477703705      -33.6576671127      -15.6087230134  W2        724             0.0000000000
      2171       724  TIP3      H1             21.2052803705      -34.0372871127      -16.2999630134  W2        724             0.0000000000
      2172       724  TIP3      H2             22.5812603705      -33.4631971127      -16.0373130134  W2        724             0.0000000000
      2173       725  TIP3      OH2            32.2849303705      -21.5746071127       -0.1176130134  W2        725             0.0000000000
      2174       725  TIP3      H1             32.4848003705      -21.1504171127       -0.9520830134  W2        725             0.0000000000
      2175       725  TIP3      H2             32.9403003705      -21.2307871127        0.4894269866  W2        725             0.0000000000
      2176       726  TIP3      OH2            19.8829103705      -29.1004771127       -0.5095630134  W2        726             0.0000000000
      2177       726  TIP3      H1             20.6151503705      -28.8458871127        0.0518869866  W2        726             0.0000000000
      2178       726  TIP3      H2             19.1027803705      -28.8959371127        0.0059769866  W2        726             0.0000000000
      2179       727  TIP3      OH2            25.9122003705      -33.6934771127       -7.7715930134  W2        727             0.0000000000
      2180       727  TIP3      H1             26.4765403705      -34.2398171127       -8.3186330134  W2        727             0.0000000000
      2181       727  TIP3      H2             25.7645403705      -34.2152871127       -6.9828330134  W2        727             0.0000000000
      2182       728  TIP3      OH2            20.9141703705      -37.5568671127      -11.3531130134  W2        728             0.0000000000
      2183       728  TIP3      H1             20.5971203705      -38.4593371127      -11.3885730134  W2        728             0.0000000000
      2184       728  TIP3      H2             21.6955803705      -37.5551271127      -11.9059530134  W2        728             0.0000000000
      2185       729  TIP3      OH2            24.5387903705      -35.3048671127       -5.3575530134  W2        729             0.0000000000
      2186       729  TIP3      H1             23.7033203705      -34.8509171127       -5.2473130134  W2        729             0.0000000000
      2187       729  TIP3      H2             25.0628503705      -35.0290171127       -4.6055630134  W2        729             0.0000000000
      2188       730  TIP3      OH2            25.0830503705      -29.0920971127      -13.6729130134  W2        730             0.0000000000
      2189       730  TIP3      H1             24.3381503705      -29.5995671127      -13.9951230134  W2        730             0.0000000000
      2190       730  TIP3      H2             24.9487703705      -29.0432971127      -12.7264330134  W2        730             0.0000000000
      2191       731  TIP3      OH2            32.2329403705      -29.9592771127       -4.8861530134  W2        731             0.0000000000
      2192       731  TIP3      H1             32.8748203705      -29.5026471127       -5.4299330134  W2        731             0.0000000000
      2193       731  TIP3      H2             31.4026303705      -29.8460371127       -5.3487430134  W2        731             0.0000000000
      2194       732  TIP3      OH2            28.9807303705      -36.2781071127      -15.4736530134  W2        732             0.0000000000
      2195       732  TIP3      H1             28.0421503705      -36.1665471127      -15.6247730134  W2        732             0.0000000000
      2196       732  TIP3      H2             29.2779403705      -35.4214171127      -15.1670830134  W2        732             0.0000000000
      2197       733  TIP3      OH2            26.6022603705      -28.9077671127       -2.4360030134  W2        733             0.0000000000
      2198       733  TIP3      H1             26.2568703705      -29.2895271127       -1.6290430134  W2        733             0.0000000000
      2199       733  TIP3      H2             26.4022703705      -27.9744071127       -2.3647130134  W2        733             0.0000000000
      2200       734  TIP3      OH2            29.6990803705      -34.4108371127      -13.8129130134  W2        734             0.0000000000
      2201       734  TIP3      H1             30.5909803705      -34.5483371127      -13.4937930134  W2        734             0.0000000000
      2202       734  TIP3      H2             29.7554403705      -33.6202271127      -14.3495630134  W2        734             0.0000000000
      2203       735  TIP3      OH2            20.2078803705      -29.7970971127       -7.9031230134  W2        735             0.0000000000
      2204       735  TIP3      H1             20.9526003705      -29.7995271127       -8.5044730134  W2        735             0.0000000000
      2205       735  TIP3      H2             20.2855403705      -30.6207171127       -7.4216130134  W2        735             0.0000000000
      2206       736  TIP3      OH2            27.2084603705      -27.6336671127      -14.6474530134  W2        736             0.0000000000
      2207       736  TIP3      H1             26.9133003705      -26.8068771127      -14.2659730134  W2        736             0.0000000000
      2208       736  TIP3      H2             26.5054603705      -28.2529771127      -14.4513130134  W2        736             0.0000000000
      2209       737  TIP3      OH2            17.2158503705      -31.3364071127       -2.5882730134  W2        737             0.0000000000
      2210       737  TIP3      H1             17.4387103705      -31.7544471127       -1.7565230134  W2        737             0.0000000000
      2211       737  TIP3      H2             16.6138603705      -31.9489071127       -3.0109930134  W2        737             0.0000000000
      2212       738  TIP3      OH2            24.2323403705      -31.8194171127       -0.3753030134  W2        738             0.0000000000
      2213       738  TIP3      H1             23.9364203705      -31.9851171127       -1.2703930134  W2        738             0.0000000000
      2214       738  TIP3      H2             25.1638603705      -32.0393871127       -0.3859130134  W2        738             0.0000000000
      2215       739  TIP3      OH2            28.8526203705      -26.4462171127       -2.4855030134  W2        739             0.0000000000
      2216       739  TIP3      H1             27.9520503705      -26.2629571127       -2.7531130134  W2        739             0.0000000000
      2217       739  TIP3      H2             28.8867303705      -26.1872871127       -1.5646230134  W2        739             0.0000000000
      2218       740  TIP3      OH2            34.5839503705      -34.2014271127      -14.1182430134  W2        740             0.0000000000
      2219       740  TIP3      H1             34.0295803705      -34.5976271127      -14.7904930134  W2        740             0.0000000000
      2220       740  TIP3      H2             34.6843103705      -33.2909071127      -14.3959130134  W2        740             0.0000000000
      2221       741  TIP3      OH2            34.5471503705      -28.4012571127       -1.2810930134  W2        741             0.0000000000
      2222       741  TIP3      H1             33.6960003705      -28.1628771127       -1.6484530134  W2        741             0.0000000000
      2223       741  TIP3      H2             35.1374903705      -28.4179371127       -2.0343830134  W2        741             0.0000000000
      2224       742  TIP3      OH2            32.8791203705      -25.4153871127      -13.6530330134  W2        742             0.0000000000
      2225       742  TIP3      H1             32.5062303705      -26.2410071127      -13.3439730134  W2        742             0.0000000000
      2226       742  TIP3      H2             33.1564703705      -25.5984471127      -14.5506930134  W2        742             0.0000000000
      2227       743  TIP3      OH2            30.0395103705      -30.6074371127       -6.6318430134  W2        743             0.0000000000
      2228       743  TIP3      H1             29.1112003705      -30.8392471127       -6.6589130134  W2        743             0.0000000000
      2229       743  TIP3      H2             30.4906203705      -31.3844571127       -6.9619630134  W2        743             0.0000000000
      2230       744  TIP3      OH2            22.5828203705      -26.2792771127      -10.4989730134  W2        744             0.0000000000
      2231       744  TIP3      H1             23.1100403705      -25.5058371127      -10.6990930134  W2        744             0.0000000000
      2232       744  TIP3      H2             21.7026703705      -26.0543571127      -10.8005730134  W2        744             0.0000000000
      2233       745  TIP3      OH2            18.3375903705      -31.4168671127      -15.9117330134  W2        745             0.0000000000
      2234       745  TIP3      H1             18.9535803705      -30.7901471127      -15.5322530134  W2        745             0.0000000000
      2235       745  TIP3      H2             17.4758503705      -31.1008871127      -15.6400830134  W2        745             0.0000000000
      2236       746  TIP3      OH2            24.0100503705      -28.6162871127      -10.9225430134  W2        746             0.0000000000
      2237       746  TIP3      H1             23.7690503705      -27.6908471127      -10.8810130134  W2        746             0.0000000000
      2238       746  TIP3      H2             23.2694103705      -29.0751571127      -10.5261530134  W2        746             0.0000000000
      2239       747  TIP3      OH2            24.5247103705      -24.4669271127       -4.6074330134  W2        747             0.0000000000
      2240       747  TIP3      H1             24.8871803705      -23.6123671127       -4.8409930134  W2        747             0.0000000000
      2241       747  TIP3      H2             25.0562303705      -24.7587671127       -3.8668030134  W2        747             0.0000000000
      2242       748  TIP3      OH2            22.6931303705      -23.5945271127      -11.3773230134  W2        748             0.0000000000
      2243       748  TIP3      H1             21.7431803705      -23.4887871127      -11.3259930134  W2        748             0.0000000000
      2244       748  TIP3      H2             23.0449403705      -22.7737871127      -11.0325730134  W2        748             0.0000000000
      2245       749  TIP3      OH2            28.0687903705      -28.3678571127       -4.9068730134  W2        749             0.0000000000
      2246       749  TIP3      H1             27.6429203705      -28.5956871127       -4.0804730134  W2        749             0.0000000000
      2247       749  TIP3      H2             28.6493703705      -29.1066771127       -5.0893430134  W2        749             0.0000000000
      2248       750  TIP3      OH2            30.2716803705      -27.4388071127      -15.8329730134  W2        750             0.0000000000
      2249       750  TIP3      H1             30.6249903705      -27.8188271127      -15.0286230134  W2        750             0.0000000000
      2250       750  TIP3      H2             29.3230303705      -27.5323271127      -15.7460430134  W2        750             0.0000000000
      2251       751  TIP3      OH2            30.7272103705      -23.8159071127       -2.4373930134  W2        751             0.0000000000
      2252       751  TIP3      H1             30.1255303705      -24.3716171127       -2.9327630134  W2        751             0.0000000000
      2253       751  TIP3      H2             31.0085803705      -23.1489271127       -3.0636530134  W2        751             0.0000000000
      2254       752  TIP3      OH2            34.7751203705      -22.9595571127      -15.6319530134  W2        752             0.0000000000
      2255       752  TIP3      H1             35.5189103705      -22.3735071127      -15.7717930134  W2        752             0.0000000000
      2256       752  TIP3      H2             34.0809303705      -22.3909771127      -15.2987130134  W2        752             0.0000000000
      2257       753  TIP3      OH2            18.8498003705      -36.5831371127       -3.0301330134  W2        753             0.0000000000
      2258       753  TIP3      H1             17.9570303705      -36.2445971127       -3.0977330134  W2        753             0.0000000000
      2259       753  TIP3      H2             18.7510803705      -37.4385271127       -2.6120530134  W2        753             0.0000000000
      2260       754  TIP3      OH2            31.1376103705      -28.7666071127      -13.6061830134  W2        754             0.0000000000
      2261       754  TIP3      H1             30.8603703705      -29.4946771127      -13.0500730134  W2        754             0.0000000000
      2262       754  TIP3      H2             32.0649103705      -28.6474071127      -13.4009230134  W2        754             0.0000000000
      2263       755  TIP3      OH2            18.5010003705      -24.7786971127       -4.5951930134  W2        755             0.0000000000
      2264       755  TIP3      H1             18.7180303705      -25.7104571127       -4.6262230134  W2        755             0.0000000000
      2265       755  TIP3      H2             18.7473503705      -24.5041971127       -3.7119130134  W2        755             0.0000000000
      2266       756  TIP3      OH2            24.3624603705      -26.3271971127      -17.3859730134  W2        756             0.0000000000
      2267       756  TIP3      H1             24.6014403705      -27.0753871127      -17.9330830134  W2        756             0.0000000000
      2268       756  TIP3      H2             24.0935903705      -26.7150271127      -16.5531930134  W2        756             0.0000000000
      2269       757  TIP3      OH2            23.2995203705      -26.7568171127      -14.9297130134  W2        757             0.0000000000
      2270       757  TIP3      H1             23.4463203705      -27.2768371127      -14.1396230134  W2        757             0.0000000000
      2271       757  TIP3      H2             23.2966903705      -25.8500571127      -14.6231230134  W2        757             0.0000000000
      2272       758  TIP3      OH2            19.7526303705      -29.5044871127      -14.4191730134  W2        758             0.0000000000
      2273       758  TIP3      H1             19.0665603705      -29.1522371127      -13.8522030134  W2        758             0.0000000000
      2274       758  TIP3      H2             20.2754203705      -28.7415271127      -14.6657430134  W2        758             0.0000000000
      2275       759  TIP3      OH2            27.5841403705      -36.8421071127       -4.1402730134  W2        759             0.0000000000
      2276       759  TIP3      H1             28.2829303705      -36.7682371127       -3.4903030134  W2        759             0.0000000000
      2277       759  TIP3      H2             27.2032803705      -37.7066071127       -3.9859830134  W2        759             0.0000000000
      2278       760  TIP3      OH2            28.3686303705      -37.1899371127      -13.0430430134  W2        760             0.0000000000
      2279       760  TIP3      H1             28.5884603705      -36.7183971127      -13.8465030134  W2        760             0.0000000000
      2280       760  TIP3      H2             28.9270303705      -36.7956771127      -12.3729830134  W2        760             0.0000000000
      2281       761  TIP3      OH2            26.0372403705      -25.0594571127      -14.1802930134  W2        761             0.0000000000
      2282       761  TIP3      H1             25.2208503705      -24.5624871127      -14.1278630134  W2        761             0.0000000000
      2283       761  TIP3      H2             26.5668703705      -24.5841071127      -14.8204130134  W2        761             0.0000000000
      2284       762  TIP3      OH2            25.5686203705      -35.4620571127      -12.2082030134  W2        762             0.0000000000
      2285       762  TIP3      H1             26.3808803705      -34.9577371127      -12.1620330134  W2        762             0.0000000000
      2286       762  TIP3      H2             25.3239203705      -35.6070871127      -11.2942430134  W2        762             0.0000000000
      2287       763  TIP3      OH2            26.1042603705      -34.4757871127       -3.0235430134  W2        763             0.0000000000
      2288       763  TIP3      H1             26.2232903705      -33.9022471127       -2.2665030134  W2        763             0.0000000000
      2289       763  TIP3      H2             26.7597203705      -35.1638471127       -2.9087630134  W2        763             0.0000000000
      2290       764  TIP3      OH2            26.4522903705      -38.3807571127      -11.2700930134  W2        764             0.0000000000
      2291       764  TIP3      H1             26.1056403705      -37.7636971127      -10.6256630134  W2        764             0.0000000000
      2292       764  TIP3      H2             27.1109803705      -37.8801871127      -11.7515430134  W2        764             0.0000000000
      2293       765  TIP3      OH2            23.3755503705      -24.0157371127      -14.1986030134  W2        765             0.0000000000
      2294       765  TIP3      H1             23.5364203705      -23.2159871127      -14.6993430134  W2        765             0.0000000000
      2295       765  TIP3      H2             23.1783303705      -23.7091371127      -13.3135430134  W2        765             0.0000000000
      2296       766  TIP3      OH2            22.1099903705      -37.3178171127      -14.5828430134  W2        766             0.0000000000
      2297       766  TIP3      H1             22.0264703705      -36.4295071127      -14.2362030134  W2        766             0.0000000000
      2298       766  TIP3      H2             23.0000203705      -37.5831471127      -14.3511630134  W2        766             0.0000000000
      2299       767  TIP3      OH2            32.3088403705      -36.5687571127       -2.1885730134  W2        767             0.0000000000
      2300       767  TIP3      H1             31.3924203705      -36.3065871127       -2.2762030134  W2        767             0.0000000000
      2301       767  TIP3      H2             32.6443403705      -36.5718571127       -3.0850430134  W2        767             0.0000000000
      2302       768  TIP3      OH2            30.9109403705      -32.8186571127       -8.0928430134  W2        768             0.0000000000
      2303       768  TIP3      H1             30.1133803705      -33.2336371127       -8.4213430134  W2        768             0.0000000000
      2304       768  TIP3      H2             31.3560503705      -33.5092871127       -7.6017930134  W2        768             0.0000000000
      2305       769  TIP3      OH2            20.3685203705      -26.8905971127      -15.5223930134  W2        769             0.0000000000
      2306       769  TIP3      H1             20.9606703705      -26.1911171127      -15.2461530134  W2        769             0.0000000000
      2307       769  TIP3      H2             20.8278203705      -27.3236471127      -16.2419330134  W2        769             0.0000000000
      2308       770  TIP3      OH2            18.6844403705      -34.2262971127      -16.4064530134  W2        770             0.0000000000
      2309       770  TIP3      H1             18.6397003705      -33.2869871127      -16.2277530134  W2        770             0.0000000000
      2310       770  TIP3      H2             17.7967603705      -34.4618071127      -16.6762430134  W2        770             0.0000000000
      2311       771  TIP3      OH2            31.9974003705      -23.5624071127       -6.4704930134  W2        771             0.0000000000
      2312       771  TIP3      H1             31.8418303705      -22.8839671127       -7.1275630134  W2        771             0.0000000000
      2313       771  TIP3      H2             32.9300403705      -23.4904771127       -6.2674330134  W2        771             0.0000000000
      2314       772  TIP3      OH2            19.4926403705      -39.4446371127       -7.7333530134  W2        772             0.0000000000
      2315       772  TIP3      H1             19.2636203705      -39.3853871127       -8.6608530134  W2        772             0.0000000000
      2316       772  TIP3      H2             19.0499803705      -40.2360871127       -7.4269430134  W2        772             0.0000000000
      2317       773  TIP3      OH2            18.4229703705      -25.5039271127      -11.5727730134  W2        773             0.0000000000
      2318       773  TIP3      H1             17.5908303705      -25.0316571127      -11.5456330134  W2        773             0.0000000000
      2319       773  TIP3      H2             18.9688003705      -24.9941671127      -12.1714630134  W2        773             0.0000000000
      2320       774  TIP3      OH2            17.7113403705      -22.8915571127       -0.2429730134  W2        774             0.0000000000
      2321       774  TIP3      H1             18.2515603705      -23.1081571127        0.5169469866  W2        774             0.0000000000
      2322       774  TIP3      H2             17.2301403705      -23.6969571127       -0.4327230134  W2        774             0.0000000000
      2323       775  TIP3      OH2            22.3086803705      -23.9721171127        1.3774469866  W2        775             0.0000000000
      2324       775  TIP3      H1             23.0764003705      -24.4310371127        1.7183669866  W2        775             0.0000000000
      2325       775  TIP3      H2             22.2873003705      -24.1981371127        0.4475669866  W2        775             0.0000000000
      2326       776  TIP3      OH2            26.4006403705      -24.4640571127      -17.2473730134  W2        776             0.0000000000
      2327       776  TIP3      H1             25.7567403705      -25.0951971127      -16.9260030134  W2        776             0.0000000000
      2328       776  TIP3      H2             27.1624703705      -24.9952571127      -17.4790230134  W2        776             0.0000000000
      2329       777  TIP3      OH2            28.8855503705      -25.5920071127        0.1065969866  W2        777             0.0000000000
      2330       777  TIP3      H1             28.5345003705      -26.4487071127        0.3496369866  W2        777             0.0000000000
      2331       777  TIP3      H2             29.6118703705      -25.4493371127        0.7134969866  W2        777             0.0000000000
      2332       778  TIP3      OH2            31.0049303705      -24.6470671127      -17.0135730134  W2        778             0.0000000000
      2333       778  TIP3      H1             31.2879703705      -25.4415471127      -16.5608830134  W2        778             0.0000000000
      2334       778  TIP3      H2             31.7447203705      -24.4139671127      -17.5744630134  W2        778             0.0000000000
      2335       779  TIP3      OH2            17.6182903705      -29.0811471127        0.7114569866  W2        779             0.0000000000
      2336       779  TIP3      H1             17.7623403705      -29.9830771127        0.4251269866  W2        779             0.0000000000
      2337       779  TIP3      H2             16.8460303705      -28.7949371127        0.2236869866  W2        779             0.0000000000
      2338       780  TIP3      OH2            21.9596603705      -28.7375771127      -17.1560830134  W2        780             0.0000000000
      2339       780  TIP3      H1             22.0240703705      -29.5316171127      -16.6254430134  W2        780             0.0000000000
      2340       780  TIP3      H2             22.6125803705      -28.8562971127      -17.8458830134  W2        780             0.0000000000
      2341       781  TIP3      OH2            24.2739003705      -29.1113371127        0.1440969866  W2        781             0.0000000000
      2342       781  TIP3      H1             23.9452803705      -28.8405271127       -0.7131630134  W2        781             0.0000000000
      2343       781  TIP3      H2             24.4257203705      -30.0523571127        0.0565969866  W2        781             0.0000000000
      2344       782  TIP3      OH2            27.3120003705      -27.6904071127      -17.4202830134  W2        782             0.0000000000
      2345       782  TIP3      H1             27.0434103705      -27.5101971127      -16.5193930134  W2        782             0.0000000000
      2346       782  TIP3      H2             27.1055603705      -28.6157871127      -17.5517030134  W2        782             0.0000000000
      2347       783  TIP3      OH2            30.0084203705      -29.1956071127       -2.4726730134  W2        783             0.0000000000
      2348       783  TIP3      H1             30.7539003705      -28.6072371127       -2.5922730134  W2        783             0.0000000000
      2349       783  TIP3      H2             29.2511003705      -28.6136371127       -2.4093630134  W2        783             0.0000000000
      2350       784  TIP3      OH2            18.4509403705      -31.8808171127        0.1313869866  W2        784             0.0000000000
      2351       784  TIP3      H1             18.8590603705      -32.7381571127        0.0104469866  W2        784             0.0000000000
      2352       784  TIP3      H2             18.1907003705      -31.8666871127        1.0524169866  W2        784             0.0000000000
      2353       785  TIP3      OH2            23.1090403705      -30.7649571127      -14.8502830134  W2        785             0.0000000000
      2354       785  TIP3      H1             22.6492403705      -31.2491271127      -14.1644330134  W2        785             0.0000000000
      2355       785  TIP3      H2             23.3639103705      -31.4334171127      -15.4862330134  W2        785             0.0000000000
      2356       786  TIP3      OH2            22.3979703705      -32.8722471127       -2.4943230134  W2        786             0.0000000000
      2357       786  TIP3      H1             21.7795803705      -32.1975871127       -2.2138530134  W2        786             0.0000000000
      2358       786  TIP3      H2             22.7420903705      -32.5508571127       -3.3277030134  W2        786             0.0000000000
      2359       787  TIP3      OH2            24.1800803705      -32.5217771127      -16.5879630134  W2        787             0.0000000000
      2360       787  TIP3      H1             23.9995803705      -32.6766571127      -17.5151330134  W2        787             0.0000000000
      2361       787  TIP3      H2             25.1301303705      -32.4139071127      -16.5431730134  W2        787             0.0000000000
      2362       788  TIP3      OH2            27.4177903705      -30.4007171127        0.7831569866  W2        788             0.0000000000
      2363       788  TIP3      H1             28.3709103705      -30.3168071127        0.7557569866  W2        788             0.0000000000
      2364       788  TIP3      H2             27.2572503705      -31.1125371127        1.4026469866  W2        788             0.0000000000
      2365       789  TIP3      OH2            33.5699103705      -30.1673571127      -17.1421530134  W2        789             0.0000000000
      2366       789  TIP3      H1             33.2963903705      -30.5918071127      -17.9553230134  W2        789             0.0000000000
      2367       789  TIP3      H2             33.6093203705      -29.2359071127      -17.3591130134  W2        789             0.0000000000
      2368       790  TIP3      OH2            22.7373403705      -35.5171671127       -1.4120130134  W2        790             0.0000000000
      2369       790  TIP3      H1             22.8874303705      -36.2460371127       -2.0140430134  W2        790             0.0000000000
      2370       790  TIP3      H2             22.7395803705      -34.7399971127       -1.9707930134  W2        790             0.0000000000
      2371       791  TIP3      OH2            23.1499103705      -37.1475871127       -3.9192730134  W2        791             0.0000000000
      2372       791  TIP3      H1             23.6856603705      -36.6959171127       -4.5713430134  W2        791             0.0000000000
      2373       791  TIP3      H2             22.2978703705      -37.2556071127       -4.3418630134  W2        791             0.0000000000
      2374       792  TIP3      OH2            24.7317503705      -31.7079671127       -3.6797530134  W2        792             0.0000000000
      2375       792  TIP3      H1             25.4822303705      -31.8642171127       -4.2529730134  W2        792             0.0000000000
      2376       792  TIP3      H2             24.3925803705      -30.8563071127       -3.9552030134  W2        792             0.0000000000
      2377       793  TIP3      OH2            29.1473703705      -33.8927871127        1.3487769866  W2        793             0.0000000000
      2378       793  TIP3      H1             29.3395003705      -34.8238471127        1.2372269866  W2        793             0.0000000000
      2379       793  TIP3      H2             30.0050003705      -33.4678371127        1.3383169866  W2        793             0.0000000000
      2380       794  TIP3      OH2            30.4640903705      -31.1042671127       -0.5739530134  W2        794             0.0000000000
      2381       794  TIP3      H1             30.1825903705      -30.3948071127       -1.1515730134  W2        794             0.0000000000
      2382       794  TIP3      H2             31.4065203705      -31.1769671127       -0.7248330134  W2        794             0.0000000000
      2383       795  TIP3      OH2            21.2159703705      -34.3188171127        0.4995469866  W2        795             0.0000000000
      2384       795  TIP3      H1             20.4488703705      -34.8513371127        0.2893069866  W2        795             0.0000000000
      2385       795  TIP3      H2             21.8948703705      -34.6287771127       -0.0998230134  W2        795             0.0000000000
      2386       796  TIP3      OH2            23.9554603705      -39.6910171127       -3.4879130134  W2        796             0.0000000000
      2387       796  TIP3      H1             23.8574203705      -38.7446971127       -3.5932930134  W2        796             0.0000000000
      2388       796  TIP3      H2             23.2130803705      -40.0636371127       -3.9635630134  W2        796             0.0000000000
      2389       797  TIP3      OH2            25.2195103705      -35.3694771127        0.0759269866  W2        797             0.0000000000
      2390       797  TIP3      H1             24.9840503705      -35.5888071127        0.9774169866  W2        797             0.0000000000
      2391       797  TIP3      H2             24.4362003705      -35.5763571127       -0.4338230134  W2        797             0.0000000000
      2392       798  TIP3      OH2            27.9351703705      -36.2421271127       -0.8487230134  W2        798             0.0000000000
      2393       798  TIP3      H1             26.9877103705      -36.2101571127       -0.7163930134  W2        798             0.0000000000
      2394       798  TIP3      H2             28.2478403705      -36.8674171127       -0.1949030134  W2        798             0.0000000000
      2395       799  TIP3      OH2            29.5693203705      -37.6080171127        1.1564669866  W2        799             0.0000000000
      2396       799  TIP3      H1             29.4725003705      -38.5602871127        1.1506569866  W2        799             0.0000000000
      2397       799  TIP3      H2             29.2476303705      -37.3393371127        2.0170169866  W2        799             0.0000000000
      2398       800  TIP3      OH2            19.3962503705      -36.3984371127        0.2040169866  W2        800             0.0000000000
      2399       800  TIP3      H1             19.6079903705      -37.1048271127       -0.4062330134  W2        800             0.0000000000
      2400       800  TIP3      H2             19.2850003705      -36.8358371127        1.0481369866  W2        800             0.0000000000
      2401       801  TIP3      OH2            24.1772703705      -40.3972771127       -0.8166330134  W2        801             0.0000000000
      2402       801  TIP3      H1             24.8891103705      -41.0370571127       -0.8307230134  W2        801             0.0000000000
      2403       801  TIP3      H2             24.0763103705      -40.1304471127       -1.7303230134  W2        801             0.0000000000
      2404       802  TIP3      OH2            24.5310203705      -38.7144371127        1.2369969866  W2        802             0.0000000000
      2405       802  TIP3      H1             24.3992403705      -39.1900571127        0.4168469866  W2        802             0.0000000000
      2406       802  TIP3      H2             23.9317603705      -37.9700771127        1.1817069866  W2        802             0.0000000000
      2407       803  TIP3      OH2            24.0772503705      -21.8314071127      -15.5866030134  W2        803             0.0000000000
      2408       803  TIP3      H1             25.0103203705      -21.6735371127      -15.4427630134  W2        803             0.0000000000
      2409       803  TIP3      H2             23.8131303705      -21.1561071127      -16.2114530134  W2        803             0.0000000000
      2410       804  TIP3      OH2            17.6457403705      -27.1950271127      -16.1037930134  W2        804             0.0000000000
      2411       804  TIP3      H1             18.5596603705      -27.1161371127      -15.8304030134  W2        804             0.0000000000
      2412       804  TIP3      H2             17.6530503705      -27.8820671127      -16.7702330134  W2        804             0.0000000000
      2413       805  TIP3      OH2            16.2948003705      -21.8021771127      -11.0264030134  W2        805             0.0000000000
      2414       805  TIP3      H1             15.6475103705      -22.2640071127      -11.5592830134  W2        805             0.0000000000
      2415       805  TIP3      H2             16.6492603705      -22.4738471127      -10.4437830134  W2        805             0.0000000000
      2416       806  TIP3      OH2            17.1647203705      -23.7214771127       -9.2217830134  W2        806             0.0000000000
      2417       806  TIP3      H1             16.8304003705      -24.6017471127       -9.0497630134  W2        806             0.0000000000
      2418       806  TIP3      H2             17.3869603705      -23.3759771127       -8.3572230134  W2        806             0.0000000000
      2419       807  TIP3      OH2            34.7132003705      -22.9118371127       -6.2413030134  W2        807             0.0000000000
      2420       807  TIP3      H1             34.6918703705      -22.7269971127       -5.3023630134  W2        807             0.0000000000
      2421       807  TIP3      H2             35.4038203705      -22.3434371127       -6.5821630134  W2        807             0.0000000000
      2422       808  TIP3      OH2            34.2764903705      -23.3447271127       -3.3193930134  W2        808             0.0000000000
      2423       808  TIP3      H1             33.7893603705      -24.0803171127       -3.6906530134  W2        808             0.0000000000
      2424       808  TIP3      H2             34.8257603705      -23.7383371127       -2.6414530134  W2        808             0.0000000000
      2425       809  TIP3      OH2            32.7272203705      -27.5549171127        1.3186369866  W2        809             0.0000000000
      2426       809  TIP3      H1             31.8613303705      -27.6599471127        1.7128669866  W2        809             0.0000000000
      2427       809  TIP3      H2             33.1038103705      -26.7965871127        1.7651069866  W2        809             0.0000000000
      2428       810  TIP3      OH2            34.0281903705      -29.2985471127      -13.1671130134  W2        810             0.0000000000
      2429       810  TIP3      H1             34.8783303705      -28.8774571127      -13.0399530134  W2        810             0.0000000000
      2430       810  TIP3      H2             34.0337003705      -30.0385371127      -12.5599730134  W2        810             0.0000000000
      2431       811  TIP3      OH2            34.4227503705      -31.2448071127      -11.3435430134  W2        811             0.0000000000
      2432       811  TIP3      H1             33.6962103705      -31.7245471127      -10.9457830134  W2        811             0.0000000000
      2433       811  TIP3      H2             35.0040803705      -31.0393371127      -10.6113830134  W2        811             0.0000000000
      2434       812  TIP3      OH2            34.1818703705      -28.4600571127       -6.3957830134  W2        812             0.0000000000
      2435       812  TIP3      H1             35.0152903705      -28.8380571127       -6.6764230134  W2        812             0.0000000000
      2436       812  TIP3      H2             34.2939003705      -27.5169371127       -6.5148730134  W2        812             0.0000000000
      2437       813  TIP3      OH2            32.6681003705      -25.5823071127       -4.0889430134  W2        813             0.0000000000
      2438       813  TIP3      H1             32.0206303705      -25.2571571127       -3.4634230134  W2        813             0.0000000000
      2439       813  TIP3      H2             32.1505003705      -26.0225371127       -4.7631130134  W2        813             0.0000000000
      2440       814  TIP3      OH2            34.6910603705      -31.3439571127      -14.9524130134  W2        814             0.0000000000
      2441       814  TIP3      H1             34.1691703705      -30.9875471127      -15.6713230134  W2        814             0.0000000000
      2442       814  TIP3      H2             34.6579803705      -30.6691771127      -14.2743230134  W2        814             0.0000000000
      2443       815  TIP3      OH2            33.0399603705      -34.1043971127      -16.4017030134  W2        815             0.0000000000
      2444       815  TIP3      H1             33.1364003705      -33.4376971127      -17.0817330134  W2        815             0.0000000000
      2445       815  TIP3      H2             32.8999203705      -34.9197671127      -16.8831530134  W2        815             0.0000000000
      2446       816  TIP3      OH2            32.2094303705      -32.7241571127      -10.7806730134  W2        816             0.0000000000
      2447       816  TIP3      H1             32.0593103705      -33.6692971127      -10.8008930134  W2        816             0.0000000000
      2448       816  TIP3      H2             31.8558803705      -32.4430171127       -9.9367630134  W2        816             0.0000000000
      2449       817  TIP3      OH2            17.2446703705      -30.6459371127       -6.7702930134  W2        817             0.0000000000
      2450       817  TIP3      H1             17.4289603705      -30.7277671127       -7.7060030134  W2        817             0.0000000000
      2451       817  TIP3      H2             18.0939603705      -30.7702371127       -6.3466530134  W2        817             0.0000000000
      2452       818  TIP3      OH2            33.0657203705      -30.7538271127       -1.1418430134  W2        818             0.0000000000
      2453       818  TIP3      H1             33.6484503705      -31.4885971127       -0.9501230134  W2        818             0.0000000000
      2454       818  TIP3      H2             33.6296503705      -29.9817971127       -1.0952630134  W2        818             0.0000000000
      2455       819  TIP3      OH2            34.5624303705      -32.8512471127       -0.4573030134  W2        819             0.0000000000
      2456       819  TIP3      H1             33.6991003705      -33.2300371127       -0.6228330134  W2        819             0.0000000000
      2457       819  TIP3      H2             35.1668003705      -33.5897671127       -0.5317230134  W2        819             0.0000000000
      2458       820  TIP3      OH2            32.2873403705      -36.6964171127      -17.2841530134  W2        820             0.0000000000
      2459       820  TIP3      H1             32.8979203705      -37.0677371127      -16.6473330134  W2        820             0.0000000000
      2460       820  TIP3      H2             31.4504903705      -37.1177271127      -17.0881530134  W2        820             0.0000000000
      2461       821  TIP3      OH2            31.9199103705      -35.1415771127      -12.3181630134  W2        821             0.0000000000
      2462       821  TIP3      H1             32.1996203705      -36.0485371127      -12.1939930134  W2        821             0.0000000000
      2463       821  TIP3      H2             32.6790803705      -34.7074271127      -12.7072430134  W2        821             0.0000000000
      2464       822  TIP3      OH2            32.5317403705      -34.5598371127       -6.8822730134  W2        822             0.0000000000
      2465       822  TIP3      H1             33.4645403705      -34.3478471127       -6.9166730134  W2        822             0.0000000000
      2466       822  TIP3      H2             32.2964903705      -34.4586271127       -5.9599730134  W2        822             0.0000000000
      2467       823  TIP3      OH2            32.5609303705      -33.8233071127       -4.1063330134  W2        823             0.0000000000
      2468       823  TIP3      H1             31.7180603705      -33.5552671127       -3.7403530134  W2        823             0.0000000000
      2469       823  TIP3      H2             33.0033603705      -33.0011171127       -4.3172230134  W2        823             0.0000000000
      2470       824  TIP3      OH2            16.8421503705      -35.3754371127       -0.6294130134  W2        824             0.0000000000
      2471       824  TIP3      H1             17.7616403705      -35.4976071127       -0.3931030134  W2        824             0.0000000000
      2472       824  TIP3      H2             16.3926003705      -36.1254671127       -0.2400630134  W2        824             0.0000000000
      2473       825  TIP3      OH2            34.8440903705      -39.8432871127        1.2471669866  W2        825             0.0000000000
      2474       825  TIP3      H1             35.1937903705      -40.4969371127        0.6416369866  W2        825             0.0000000000
      2475       825  TIP3      H2             34.9910403705      -39.0058771127        0.8074269866  W2        825             0.0000000000
      2476       826  TIP3      OH2            32.5333903705      -37.8786471127      -12.2699630134  W2        826             0.0000000000
      2477       826  TIP3      H1             32.7158903705      -38.3274971127      -11.4444630134  W2        826             0.0000000000
      2478       826  TIP3      H2             31.9336803705      -38.4632071127      -12.7335030134  W2        826             0.0000000000
      2479       827  TIP3      OH2            18.0634003705      -37.0632771127       -7.7381230134  W2        827             0.0000000000
      2480       827  TIP3      H1             18.5085603705      -37.8550271127       -7.4361530134  W2        827             0.0000000000
      2481       827  TIP3      H2             18.5297003705      -36.3467571127       -7.3075630134  W2        827             0.0000000000
      2482       828  TIP3      OH2            16.3674303705      -34.0639771127       -6.6691030134  W2        828             0.0000000000
      2483       828  TIP3      H1             16.8594103705      -34.2849271127       -7.4599030134  W2        828             0.0000000000
      2484       828  TIP3      H2             16.7295203705      -33.2236371127       -6.3881530134  W2        828             0.0000000000
      2485       829  TIP3      OH2            34.3638103705      -37.7338271127       -0.4037030134  W2        829             0.0000000000
      2486       829  TIP3      H1             33.4463803705      -37.4631171127       -0.4393530134  W2        829             0.0000000000
      2487       829  TIP3      H2             34.4867503705      -38.2689871127       -1.1877330134  W2        829             0.0000000000
      2488       830  TIP3      OH2            34.4000103705      -37.8108371127      -15.7419330134  W2        830             0.0000000000
      2489       830  TIP3      H1             34.8122703705      -38.5322671127      -16.2171330134  W2        830             0.0000000000
      2490       830  TIP3      H2             35.0816603705      -37.1413771127      -15.6835030134  W2        830             0.0000000000
      2491       831  TIP3      OH2            16.6810803705      -37.8060671127      -12.6148630134  W2        831             0.0000000000
      2492       831  TIP3      H1             15.7559203705      -37.5974071127      -12.7443130134  W2        831             0.0000000000
      2493       831  TIP3      H2             17.1350703705      -37.3219871127      -13.3046330134  W2        831             0.0000000000
      2494       832  TIP3      OH2            31.4518003705      -22.8218971127      -10.6691230134  W2        832             0.0000000000
      2495       832  TIP3      H1             32.1040903705      -23.1696871127      -11.2772130134  W2        832             0.0000000000
      2496       832  TIP3      H2             31.9621803705      -22.3335771127      -10.0231530134  W2        832             0.0000000000
      2497       833  TIP3      OH2            16.6446203705      -39.0681671127       -4.2706130134  W2        833             0.0000000000
      2498       833  TIP3      H1             15.9796703705      -39.3141371127       -3.6275230134  W2        833             0.0000000000
      2499       833  TIP3      H2             16.2017503705      -38.4461271127       -4.8478130134  W2        833             0.0000000000
      2500       834  TIP3      OH2            18.8365503705      -25.8927571127       -0.1260330134  W2        834             0.0000000000
      2501       834  TIP3      H1             18.0158003705      -25.7181071127       -0.5865630134  W2        834             0.0000000000
      2502       834  TIP3      H2             18.5843303705      -25.9662871127        0.7944069866  W2        834             0.0000000000
      2503       835  TIP3      OH2            21.7908403705      -24.9186371127       -3.8676330134  W2        835             0.0000000000
      2504       835  TIP3      H1             21.3659503705      -24.1087871127       -4.1501730134  W2        835             0.0000000000
      2505       835  TIP3      H2             22.6951203705      -24.8332271127       -4.1696530134  W2        835             0.0000000000
      2506       836  TIP3      OH2            26.1019803705      -23.5196371127       -0.9082630134  W2        836             0.0000000000
      2507       836  TIP3      H1             26.2867303705      -23.8530271127       -0.0302330134  W2        836             0.0000000000
      2508       836  TIP3      H2             26.9484303705      -23.2097771127       -1.2303430134  W2        836             0.0000000000
      2509       837  TIP3      OH2            28.4470203705      -22.2337471127       -1.6641230134  W2        837             0.0000000000
      2510       837  TIP3      H1             29.1239103705      -22.8665171127       -1.9042030134  W2        837             0.0000000000
      2511       837  TIP3      H2             28.7689003705      -21.8326971127       -0.8567930134  W2        837             0.0000000000
      2512       838  TIP3      OH2            33.3644003705      -39.6441971127       -2.5846230134  W2        838             0.0000000000
      2513       838  TIP3      H1             32.5517503705      -39.3191671127       -2.9721530134  W2        838             0.0000000000
      2514       838  TIP3      H2             33.5972503705      -40.4043471127       -3.1177130134  W2        838             0.0000000000
      2515       839  TIP3      OH2            19.1925103705      -21.6622471127       -3.8201030134  W2        839             0.0000000000
      2516       839  TIP3      H1             18.4721503705      -21.2221471127       -4.2713330134  W2        839             0.0000000000
      2517       839  TIP3      H2             18.8269103705      -21.9127771127       -2.9717030134  W2        839             0.0000000000
      2518       840  TIP3      OH2            21.6597703705      -22.0618571127       -4.7903830134  W2        840             0.0000000000
      2519       840  TIP3      H1             20.7949903705      -21.9900071127       -4.3863730134  W2        840             0.0000000000
      2520       840  TIP3      H2             21.6046703705      -21.5151271127       -5.5741330134  W2        840             0.0000000000
      2521       841  TIP3      OH2            26.3703303705      -22.1739671127       -5.6147830134  W2        841             0.0000000000
      2522       841  TIP3      H1             25.9137303705      -21.6449971127       -6.2689430134  W2        841             0.0000000000
      2523       841  TIP3      H2             26.5331303705      -21.5708271127       -4.8895530134  W2        841             0.0000000000
      2524       842  TIP3      OH2            28.6979603705      -23.2960071127       -4.6697530134  W2        842             0.0000000000
      2525       842  TIP3      H1             27.7933303705      -23.1309871127       -4.9355430134  W2        842             0.0000000000
      2526       842  TIP3      H2             29.1268203705      -22.4427871127       -4.7354130134  W2        842             0.0000000000
      2527       843  TIP3      OH2            31.3021503705      -21.7260971127       -4.3749730134  W2        843             0.0000000000
      2528       843  TIP3      H1             31.1203503705      -20.8102071127       -4.5854830134  W2        843             0.0000000000
      2529       843  TIP3      H2             31.4789303705      -22.1363871127       -5.2215130134  W2        843             0.0000000000
      2530       844  TIP3      OH2            18.6073203705      -23.0389971127       -6.9099230134  W2        844             0.0000000000
      2531       844  TIP3      H1             18.5889203705      -23.4644871127       -6.0526930134  W2        844             0.0000000000
      2532       844  TIP3      H2             19.4121103705      -23.3574971127       -7.3187030134  W2        844             0.0000000000
      2533       845  TIP3      OH2            20.7486303705      -24.3291271127       -8.2549330134  W2        845             0.0000000000
      2534       845  TIP3      H1             20.5297003705      -25.2453871127       -8.0853330134  W2        845             0.0000000000
      2535       845  TIP3      H2             21.5728503705      -24.1890871127       -7.7887930134  W2        845             0.0000000000
      2536       846  TIP3      OH2            23.2858803705      -23.8591971127       -7.4061330134  W2        846             0.0000000000
      2537       846  TIP3      H1             23.4984503705      -24.7472971127       -7.6930430134  W2        846             0.0000000000
      2538       846  TIP3      H2             23.3503903705      -23.8934271127       -6.4517330134  W2        846             0.0000000000
      2539       847  TIP3      OH2            26.7942503705      -38.1951371127       -8.2618030134  W2        847             0.0000000000
      2540       847  TIP3      H1             26.1199303705      -38.8245771127       -8.0062230134  W2        847             0.0000000000
      2541       847  TIP3      H2             27.3581703705      -38.6792471127       -8.8650130134  W2        847             0.0000000000
      2542       848  TIP3      OH2            31.9369703705      -40.0877371127       -8.1490930134  W2        848             0.0000000000
      2543       848  TIP3      H1             32.5407303705      -39.5401971127       -8.6509930134  W2        848             0.0000000000
      2544       848  TIP3      H2             31.0671703705      -39.7686971127       -8.3896830134  W2        848             0.0000000000
      2545       849  TIP3      OH2            33.6640103705      -38.9488671127       -9.8160030134  W2        849             0.0000000000
      2546       849  TIP3      H1             34.2757603705      -39.4632971127      -10.3426430134  W2        849             0.0000000000
      2547       849  TIP3      H2             34.0463503705      -38.0716571127       -9.7925630134  W2        849             0.0000000000
      2548       850  TIP3      OH2            19.1210003705      -39.5611071127      -10.4398130134  W2        850             0.0000000000
      2549       850  TIP3      H1             18.3439803705      -39.7956171127      -10.9472230134  W2        850             0.0000000000
      2550       850  TIP3      H2             19.6513603705      -40.3578971127      -10.4310130134  W2        850             0.0000000000
      2551       851  TIP3      OH2            17.9573403705      -39.7632971127      -14.6362030134  W2        851             0.0000000000
      2552       851  TIP3      H1             18.3964103705      -39.1522471127      -15.2278530134  W2        851             0.0000000000
      2553       851  TIP3      H2             17.3235803705      -39.2248871127      -14.1622030134  W2        851             0.0000000000
      2554       852  TIP3      OH2            23.7002603705      -39.6343971127      -10.6265030134  W2        852             0.0000000000
      2555       852  TIP3      H1             24.5746003705      -39.2459671127      -10.6560730134  W2        852             0.0000000000
      2556       852  TIP3      H2             23.5643403705      -39.8496171127       -9.7037830134  W2        852             0.0000000000
      2557       853  TIP3      OH2            29.2571003705      -39.6044171127       -8.9773330134  W2        853             0.0000000000
      2558       853  TIP3      H1             29.3332603705      -39.5092571127       -9.9267330134  W2        853             0.0000000000
      2559       853  TIP3      H2             28.9820203705      -40.5121271127       -8.8484230134  W2        853             0.0000000000
      2560       854  TIP3      OH2            30.6103603705      -39.5786371127      -13.2848330134  W2        854             0.0000000000
      2561       854  TIP3      H1             29.9074703705      -38.9637171127      -13.4946930134  W2        854             0.0000000000
      2562       854  TIP3      H2             30.1655003705      -40.4159671127      -13.1537430134  W2        854             0.0000000000
      2563       855  TIP3      OH2            17.8582903705      -23.8150771127      -13.7386930134  W2        855             0.0000000000
      2564       855  TIP3      H1             17.1732803705      -23.8531871127      -14.4061830134  W2        855             0.0000000000
      2565       855  TIP3      H2             17.8620103705      -22.9023171127      -13.4504830134  W2        855             0.0000000000
      2566       856  TIP3      OH2            19.8182503705      -37.8471471127      -16.1937930134  W2        856             0.0000000000
      2567       856  TIP3      H1             20.3095903705      -38.4769071127      -16.7212430134  W2        856             0.0000000000
      2568       856  TIP3      H2             20.4418803705      -37.5512071127      -15.5306730134  W2        856             0.0000000000
      2569       857  TIP3      OH2            24.8442603705      -37.5539971127      -13.7367430134  W2        857             0.0000000000
      2570       857  TIP3      H1             25.0223903705      -38.2006771127      -13.0538830134  W2        857             0.0000000000
      2571       857  TIP3      H2             24.7908803705      -36.7202271127      -13.2696330134  W2        857             0.0000000000
      2572       858  TIP3      OH2            26.7226403705      -22.6055871127      -15.3410730134  W2        858             0.0000000000
      2573       858  TIP3      H1             27.5886603705      -22.2388471127      -15.5192530134  W2        858             0.0000000000
      2574       858  TIP3      H2             26.4759203705      -23.0447871127      -16.1549930134  W2        858             0.0000000000
      2575       859  TIP3      OH2            33.4316003705      -23.0425571127      -12.6619630134  W2        859             0.0000000000
      2576       859  TIP3      H1             33.2373103705      -23.7903471127      -13.2270030134  W2        859             0.0000000000
      2577       859  TIP3      H2             33.3926103705      -22.2845471127      -13.2451730134  W2        859             0.0000000000
      2578       860  TIP3      OH2            19.0788003705      -39.0469171127       -0.9221930134  W2        860             0.0000000000
      2579       860  TIP3      H1             18.7126203705      -39.8126571127       -0.4797230134  W2        860             0.0000000000
      2580       860  TIP3      H2             19.9916503705      -39.0178971127       -0.6356830134  W2        860             0.0000000000
      2581       861  TIP3      OH2            21.0518803705      -39.6964771127        0.6135169866  W2        861             0.0000000000
      2582       861  TIP3      H1             21.9502403705      -39.9704571127        0.4288569866  W2        861             0.0000000000
      2583       861  TIP3      H2             20.6651903705      -40.4388771127        1.0777769866  W2        861             0.0000000000
      2584       862  TIP3      OH2            19.6764103705      -22.8949971127      -16.7134830134  W2        862             0.0000000000
      2585       862  TIP3      H1             19.4088703705      -22.6087071127      -15.8401730134  W2        862             0.0000000000
      2586       862  TIP3      H2             20.4476703705      -23.4410771127      -16.5612330134  W2        862             0.0000000000
      2587       863  TIP3      OH2            29.4731103705      -40.3639471127        0.7957969866  W2        863             0.0000000000
      2588       863  TIP3      H1             29.5498303705      -40.7898771127        1.6495669866  W2        863             0.0000000000
      2589       863  TIP3      H2             30.3667703705      -40.3504771127        0.4531469866  W2        863             0.0000000000
      2590       864  TIP3      OH2            32.6492203705      -24.2913171127       -0.5117830134  W2        864             0.0000000000
      2591       864  TIP3      H1             31.8674103705      -24.4775171127       -1.0317230134  W2        864             0.0000000000
      2592       864  TIP3      H2             32.5772103705      -23.3618871127       -0.2945330134  W2        864             0.0000000000
      2593       865  TIP3      OH2            38.3568903705      -31.5355971127       -5.4692530134  W2        865             0.0000000000
      2594       865  TIP3      H1             38.3981003705      -32.1612671127       -4.7460130134  W2        865             0.0000000000
      2595       865  TIP3      H2             39.0596603705      -30.9117371127       -5.2872130134  W2        865             0.0000000000
      2596       866  TIP3      OH2            39.2802003705      -27.0857071127       -6.9343430134  W2        866             0.0000000000
      2597       866  TIP3      H1             38.9107203705      -27.8876571127       -7.3039130134  W2        866             0.0000000000
      2598       866  TIP3      H2             40.2213103705      -27.2542171127       -6.8880030134  W2        866             0.0000000000
      2599       867  TIP3      OH2            35.8902503705      -33.4254471127      -11.5414630134  W2        867             0.0000000000
      2600       867  TIP3      H1             35.4425903705      -32.5795771127      -11.5598130134  W2        867             0.0000000000
      2601       867  TIP3      H2             35.3293703705      -34.0050271127      -12.0569530134  W2        867             0.0000000000
      2602       868  TIP3      OH2            36.6008603705      -31.2634871127       -9.4156630134  W2        868             0.0000000000
      2603       868  TIP3      H1             36.8142103705      -32.0333271127       -8.8883630134  W2        868             0.0000000000
      2604       868  TIP3      H2             37.3386203705      -31.1738171127      -10.0189030134  W2        868             0.0000000000
      2605       869  TIP3      OH2            37.2935103705      -33.8252071127       -8.2940430134  W2        869             0.0000000000
      2606       869  TIP3      H1             37.9471703705      -34.3750371127       -7.8620330134  W2        869             0.0000000000
      2607       869  TIP3      H2             37.3174403705      -34.0993071127       -9.2108430134  W2        869             0.0000000000
      2608       870  TIP3      OH2            39.4835503705      -37.3039471127       -4.9821030134  W2        870             0.0000000000
      2609       870  TIP3      H1             39.2647203705      -36.7738871127       -5.7485030134  W2        870             0.0000000000
      2610       870  TIP3      H2             38.8156403705      -37.0773971127       -4.3349630134  W2        870             0.0000000000
      2611       871  TIP3      OH2            39.0772803705      -35.4117671127       -7.0298830134  W2        871             0.0000000000
      2612       871  TIP3      H1             39.6909103705      -34.7790071127       -6.6566430134  W2        871             0.0000000000
      2613       871  TIP3      H2             39.5893503705      -35.8842671127       -7.6861930134  W2        871             0.0000000000
      2614       872  TIP3      OH2            40.4601203705      -27.6640771127       -3.9075830134  W2        872             0.0000000000
      2615       872  TIP3      H1             40.4548803705      -26.7847271127       -4.2856530134  W2        872             0.0000000000
      2616       872  TIP3      H2             39.6065303705      -27.7476671127       -3.4825930134  W2        872             0.0000000000
      2617       873  TIP3      OH2            36.5812103705      -27.9932871127      -13.1256530134  W2        873             0.0000000000
      2618       873  TIP3      H1             36.3093003705      -27.7641871127      -14.0143630134  W2        873             0.0000000000
      2619       873  TIP3      H2             36.6267803705      -27.1554071127      -12.6651230134  W2        873             0.0000000000
      2620       874  TIP3      OH2            38.9942603705      -30.9549871127       -2.6156830134  W2        874             0.0000000000
      2621       874  TIP3      H1             39.0645803705      -30.3043071127       -1.9171830134  W2        874             0.0000000000
      2622       874  TIP3      H2             38.1034803705      -30.8522371127       -2.9505930134  W2        874             0.0000000000
      2623       875  TIP3      OH2            40.3138603705      -25.0815971127       -1.0808730134  W2        875             0.0000000000
      2624       875  TIP3      H1             40.3213903705      -25.2176271127       -2.0283230134  W2        875             0.0000000000
      2625       875  TIP3      H2             39.3979003705      -25.1987871127       -0.8288730134  W2        875             0.0000000000
      2626       876  TIP3      OH2            39.8179203705      -31.2514971127      -12.6056630134  W2        876             0.0000000000
      2627       876  TIP3      H1             39.5260503705      -30.4833271127      -13.0965330134  W2        876             0.0000000000
      2628       876  TIP3      H2             39.1434403705      -31.9108771127      -12.7685230134  W2        876             0.0000000000
      2629       877  TIP3      OH2            35.9109303705      -28.8885771127       -3.7906830134  W2        877             0.0000000000
      2630       877  TIP3      H1             35.4097703705      -28.9166371127       -4.6057130134  W2        877             0.0000000000
      2631       877  TIP3      H2             35.9163003705      -29.7942571127       -3.4809530134  W2        877             0.0000000000
      2632       878  TIP3      OH2            35.6612003705      -26.1081971127       -6.9066630134  W2        878             0.0000000000
      2633       878  TIP3      H1             36.6072603705      -26.2524971127       -6.9257130134  W2        878             0.0000000000
      2634       878  TIP3      H2             35.5488303705      -25.3239171127       -6.3695430134  W2        878             0.0000000000
      2635       879  TIP3      OH2            38.9054103705      -23.3072371127      -10.7611930134  W2        879             0.0000000000
      2636       879  TIP3      H1             39.0574503705      -23.6551971127       -9.8825430134  W2        879             0.0000000000
      2637       879  TIP3      H2             38.0544503705      -23.6635071127      -11.0164730134  W2        879             0.0000000000
      2638       880  TIP3      OH2            38.1599803705      -27.5650371127       -2.7474030134  W2        880             0.0000000000
      2639       880  TIP3      H1             38.3761103705      -27.9264771127       -1.8878230134  W2        880             0.0000000000
      2640       880  TIP3      H2             37.3044503705      -27.9396571127       -2.9570530134  W2        880             0.0000000000
      2641       881  TIP3      OH2            38.6198403705      -33.8091871127       -3.7897630134  W2        881             0.0000000000
      2642       881  TIP3      H1             38.5817803705      -33.4090271127       -2.9210530134  W2        881             0.0000000000
      2643       881  TIP3      H2             38.1289503705      -34.6259471127       -3.6994730134  W2        881             0.0000000000
      2644       882  TIP3      OH2            35.2279203705      -36.6930071127       -9.9392930134  W2        882             0.0000000000
      2645       882  TIP3      H1             35.8586903705      -36.7217971127       -9.2199030134  W2        882             0.0000000000
      2646       882  TIP3      H2             35.6773503705      -37.1181371127      -10.6697030134  W2        882             0.0000000000
      2647       883  TIP3      OH2            36.5021303705      -35.9468071127      -14.5152530134  W2        883             0.0000000000
      2648       883  TIP3      H1             36.9763003705      -35.3558171127      -15.1001630134  W2        883             0.0000000000
      2649       883  TIP3      H2             35.7847703705      -35.4165171127      -14.1682430134  W2        883             0.0000000000
      2650       884  TIP3      OH2            38.2765703705      -34.8521471127      -10.8317930134  W2        884             0.0000000000
      2651       884  TIP3      H1             37.3873703705      -34.7525971127      -11.1718330134  W2        884             0.0000000000
      2652       884  TIP3      H2             38.5730603705      -35.6938471127      -11.1780030134  W2        884             0.0000000000
      2653       885  TIP3      OH2            38.7389103705      -29.1004771127       -0.5095630134  W2        885             0.0000000000
      2654       885  TIP3      H1             39.4711503705      -28.8458871127        0.0518869866  W2        885             0.0000000000
      2655       885  TIP3      H2             37.9587803705      -28.8959371127        0.0059769866  W2        885             0.0000000000
      2656       886  TIP3      OH2            39.7701703705      -37.5568671127      -11.3531130134  W2        886             0.0000000000
      2657       886  TIP3      H1             39.4531203705      -38.4593371127      -11.3885730134  W2        886             0.0000000000
      2658       886  TIP3      H2             40.5515803705      -37.5551271127      -11.9059530134  W2        886             0.0000000000
      2659       887  TIP3      OH2            39.0638803705      -29.7970971127       -7.9031230134  W2        887             0.0000000000
      2660       887  TIP3      H1             39.8086003705      -29.7995271127       -8.5044730134  W2        887             0.0000000000
      2661       887  TIP3      H2             39.1415403705      -30.6207171127       -7.4216130134  W2        887             0.0000000000
      2662       888  TIP3      OH2            36.0718503705      -31.3364071127       -2.5882730134  W2        888             0.0000000000
      2663       888  TIP3      H1             36.2947103705      -31.7544471127       -1.7565230134  W2        888             0.0000000000
      2664       888  TIP3      H2             35.4698603705      -31.9489071127       -3.0109930134  W2        888             0.0000000000
      2665       889  TIP3      OH2            37.1935903705      -31.4168671127      -15.9117330134  W2        889             0.0000000000
      2666       889  TIP3      H1             37.8095803705      -30.7901471127      -15.5322530134  W2        889             0.0000000000
      2667       889  TIP3      H2             36.3318503705      -31.1008871127      -15.6400830134  W2        889             0.0000000000
      2668       890  TIP3      OH2            37.7058003705      -36.5831371127       -3.0301330134  W2        890             0.0000000000
      2669       890  TIP3      H1             36.8130303705      -36.2445971127       -3.0977330134  W2        890             0.0000000000
      2670       890  TIP3      H2             37.6070803705      -37.4385271127       -2.6120530134  W2        890             0.0000000000
      2671       891  TIP3      OH2            37.3570003705      -24.7786971127       -4.5951930134  W2        891             0.0000000000
      2672       891  TIP3      H1             37.5740303705      -25.7104571127       -4.6262230134  W2        891             0.0000000000
      2673       891  TIP3      H2             37.6033503705      -24.5041971127       -3.7119130134  W2        891             0.0000000000
      2674       892  TIP3      OH2            38.6086303705      -29.5044871127      -14.4191730134  W2        892             0.0000000000
      2675       892  TIP3      H1             37.9225603705      -29.1522371127      -13.8522030134  W2        892             0.0000000000
      2676       892  TIP3      H2             39.1314203705      -28.7415271127      -14.6657430134  W2        892             0.0000000000
      2677       893  TIP3      OH2            39.2245203705      -26.8905971127      -15.5223930134  W2        893             0.0000000000
      2678       893  TIP3      H1             39.8166703705      -26.1911171127      -15.2461530134  W2        893             0.0000000000
      2679       893  TIP3      H2             39.6838203705      -27.3236471127      -16.2419330134  W2        893             0.0000000000
      2680       894  TIP3      OH2            37.5404403705      -34.2262971127      -16.4064530134  W2        894             0.0000000000
      2681       894  TIP3      H1             37.4957003705      -33.2869871127      -16.2277530134  W2        894             0.0000000000
      2682       894  TIP3      H2             36.6527603705      -34.4618071127      -16.6762430134  W2        894             0.0000000000
      2683       895  TIP3      OH2            38.3486403705      -39.4446371127       -7.7333530134  W2        895             0.0000000000
      2684       895  TIP3      H1             38.1196203705      -39.3853871127       -8.6608530134  W2        895             0.0000000000
      2685       895  TIP3      H2             37.9059803705      -40.2360871127       -7.4269430134  W2        895             0.0000000000
      2686       896  TIP3      OH2            37.2789703705      -25.5039271127      -11.5727730134  W2        896             0.0000000000
      2687       896  TIP3      H1             36.4468303705      -25.0316571127      -11.5456330134  W2        896             0.0000000000
      2688       896  TIP3      H2             37.8248003705      -24.9941671127      -12.1714630134  W2        896             0.0000000000
      2689       897  TIP3      OH2            36.5673403705      -22.8915571127       -0.2429730134  W2        897             0.0000000000
      2690       897  TIP3      H1             37.1075603705      -23.1081571127        0.5169469866  W2        897             0.0000000000
      2691       897  TIP3      H2             36.0861403705      -23.6969571127       -0.4327230134  W2        897             0.0000000000
      2692       898  TIP3      OH2            36.4742903705      -29.0811471127        0.7114569866  W2        898             0.0000000000
      2693       898  TIP3      H1             36.6183403705      -29.9830771127        0.4251269866  W2        898             0.0000000000
      2694       898  TIP3      H2             35.7020303705      -28.7949371127        0.2236869866  W2        898             0.0000000000
      2695       899  TIP3      OH2            37.3069403705      -31.8808171127        0.1313869866  W2        899             0.0000000000
      2696       899  TIP3      H1             37.7150603705      -32.7381571127        0.0104469866  W2        899             0.0000000000
      2697       899  TIP3      H2             37.0467003705      -31.8666871127        1.0524169866  W2        899             0.0000000000
      2698       900  TIP3      OH2            40.0719703705      -34.3188171127        0.4995469866  W2        900             0.0000000000
      2699       900  TIP3      H1             39.3048703705      -34.8513371127        0.2893069866  W2        900             0.0000000000
      2700       900  TIP3      H2             40.7508703705      -34.6287771127       -0.0998230134  W2        900             0.0000000000
      2701       901  TIP3      OH2            38.2522503705      -36.3984371127        0.2040169866  W2        901             0.0000000000
      2702       901  TIP3      H1             38.4639903705      -37.1048271127       -0.4062330134  W2        901             0.0000000000
      2703       901  TIP3      H2             38.1410003705      -36.8358371127        1.0481369866  W2        901             0.0000000000
      2704       902  TIP3      OH2            36.5017403705      -27.1950271127      -16.1037930134  W2        902             0.0000000000
      2705       902  TIP3      H1             37.4156603705      -27.1161371127      -15.8304030134  W2        902             0.0000000000
      2706       902  TIP3      H2             36.5090503705      -27.8820671127      -16.7702330134  W2        902             0.0000000000
      2707       903  TIP3      OH2            35.1508003705      -21.8021771127      -11.0264030134  W2        903             0.0000000000
      2708       903  TIP3      H1             34.5035103705      -22.2640071127      -11.5592830134  W2        903             0.0000000000
      2709       903  TIP3      H2             35.5052603705      -22.4738471127      -10.4437830134  W2        903             0.0000000000
      2710       904  TIP3      OH2            36.0207203705      -23.7214771127       -9.2217830134  W2        904             0.0000000000
      2711       904  TIP3      H1             35.6864003705      -24.6017471127       -9.0497630134  W2        904             0.0000000000
      2712       904  TIP3      H2             36.2429603705      -23.3759771127       -8.3572230134  W2        904             0.0000000000
      2713       905  TIP3      OH2            36.1006703705      -30.6459371127       -6.7702930134  W2        905             0.0000000000
      2714       905  TIP3      H1             36.2849603705      -30.7277671127       -7.7060030134  W2        905             0.0000000000
      2715       905  TIP3      H2             36.9499603705      -30.7702371127       -6.3466530134  W2        905             0.0000000000
      2716       906  TIP3      OH2            35.6981503705      -35.3754371127       -0.6294130134  W2        906             0.0000000000
      2717       906  TIP3      H1             36.6176403705      -35.4976071127       -0.3931030134  W2        906             0.0000000000
      2718       906  TIP3      H2             35.2486003705      -36.1254671127       -0.2400630134  W2        906             0.0000000000
      2719       907  TIP3      OH2            36.9194003705      -37.0632771127       -7.7381230134  W2        907             0.0000000000
      2720       907  TIP3      H1             37.3645603705      -37.8550271127       -7.4361530134  W2        907             0.0000000000
      2721       907  TIP3      H2             37.3857003705      -36.3467571127       -7.3075630134  W2        907             0.0000000000
      2722       908  TIP3      OH2            35.2234303705      -34.0639771127       -6.6691030134  W2        908             0.0000000000
      2723       908  TIP3      H1             35.7154103705      -34.2849271127       -7.4599030134  W2        908             0.0000000000
      2724       908  TIP3      H2             35.5855203705      -33.2236371127       -6.3881530134  W2        908             0.0000000000
      2725       909  TIP3      OH2            35.5370803705      -37.8060671127      -12.6148630134  W2        909             0.0000000000
      2726       909  TIP3      H1             34.6119203705      -37.5974071127      -12.7443130134  W2        909             0.0000000000
      2727       909  TIP3      H2             35.9910703705      -37.3219871127      -13.3046330134  W2        909             0.0000000000
      2728       910  TIP3      OH2            35.5006203705      -39.0681671127       -4.2706130134  W2        910             0.0000000000
      2729       910  TIP3      H1             34.8356703705      -39.3141371127       -3.6275230134  W2        910             0.0000000000
      2730       910  TIP3      H2             35.0577503705      -38.4461271127       -4.8478130134  W2        910             0.0000000000
      2731       911  TIP3      OH2            37.6925503705      -25.8927571127       -0.1260330134  W2        911             0.0000000000
      2732       911  TIP3      H1             36.8718003705      -25.7181071127       -0.5865630134  W2        911             0.0000000000
      2733       911  TIP3      H2             37.4403303705      -25.9662871127        0.7944069866  W2        911             0.0000000000
      2734       912  TIP3      OH2            38.0485103705      -21.6622471127       -3.8201030134  W2        912             0.0000000000
      2735       912  TIP3      H1             37.3281503705      -21.2221471127       -4.2713330134  W2        912             0.0000000000
      2736       912  TIP3      H2             37.6829103705      -21.9127771127       -2.9717030134  W2        912             0.0000000000
      2737       913  TIP3      OH2            40.5157703705      -22.0618571127       -4.7903830134  W2        913             0.0000000000
      2738       913  TIP3      H1             39.6509903705      -21.9900071127       -4.3863730134  W2        913             0.0000000000
      2739       913  TIP3      H2             40.4606703705      -21.5151271127       -5.5741330134  W2        913             0.0000000000
      2740       914  TIP3      OH2            37.4633203705      -23.0389971127       -6.9099230134  W2        914             0.0000000000
      2741       914  TIP3      H1             37.4449203705      -23.4644871127       -6.0526930134  W2        914             0.0000000000
      2742       914  TIP3      H2             38.2681103705      -23.3574971127       -7.3187030134  W2        914             0.0000000000
      2743       915  TIP3      OH2            39.6046303705      -24.3291271127       -8.2549330134  W2        915             0.0000000000
      2744       915  TIP3      H1             39.3857003705      -25.2453871127       -8.0853330134  W2        915             0.0000000000
      2745       915  TIP3      H2             40.4288503705      -24.1890871127       -7.7887930134  W2        915             0.0000000000
      2746       916  TIP3      OH2            37.9770003705      -39.5611071127      -10.4398130134  W2        916             0.0000000000
      2747       916  TIP3      H1             37.1999803705      -39.7956171127      -10.9472230134  W2        916             0.0000000000
      2748       916  TIP3      H2             38.5073603705      -40.3578971127      -10.4310130134  W2        916             0.0000000000
      2749       917  TIP3      OH2            36.8133403705      -39.7632971127      -14.6362030134  W2        917             0.0000000000
      2750       917  TIP3      H1             37.2524103705      -39.1522471127      -15.2278530134  W2        917             0.0000000000
      2751       917  TIP3      H2             36.1795803705      -39.2248871127      -14.1622030134  W2        917             0.0000000000
      2752       918  TIP3      OH2            36.7142903705      -23.8150771127      -13.7386930134  W2        918             0.0000000000
      2753       918  TIP3      H1             36.0292803705      -23.8531871127      -14.4061830134  W2        918             0.0000000000
      2754       918  TIP3      H2             36.7180103705      -22.9023171127      -13.4504830134  W2        918             0.0000000000
      2755       919  TIP3      OH2            38.6742503705      -37.8471471127      -16.1937930134  W2        919             0.0000000000
      2756       919  TIP3      H1             39.1655903705      -38.4769071127      -16.7212430134  W2        919             0.0000000000
      2757       919  TIP3      H2             39.2978803705      -37.5512071127      -15.5306730134  W2        919             0.0000000000
      2758       920  TIP3      OH2            37.9348003705      -39.0469171127       -0.9221930134  W2        920             0.0000000000
      2759       920  TIP3      H1             37.5686203705      -39.8126571127       -0.4797230134  W2        920             0.0000000000
      2760       920  TIP3      H2             38.8476503705      -39.0178971127       -0.6356830134  W2        920             0.0000000000
      2761       921  TIP3      OH2            39.9078803705      -39.6964771127        0.6135169866  W2        921             0.0000000000
      2762       921  TIP3      H1             40.8062403705      -39.9704571127        0.4288569866  W2        921             0.0000000000
      2763       921  TIP3      H2             39.5211903705      -40.4388771127        1.0777769866  W2        921             0.0000000000
      2764       922  TIP3      OH2            38.5324103705      -22.8949971127      -16.7134830134  W2        922             0.0000000000
      2765       922  TIP3      H1             38.2648703705      -22.6087071127      -15.8401730134  W2        922             0.0000000000
      2766       922  TIP3      H2             39.3036703705      -23.4410771127      -16.5612330134  W2        922             0.0000000000
      2767       923  TIP3      OH2           -28.3687396295      -11.5488771127      -10.4810630134  W2        923             0.0000000000
      2768       923  TIP3      H1            -28.2796296295      -10.6050571127      -10.6133530134  W2        923             0.0000000000
      2769       923  TIP3      H2            -29.0069796295      -11.8242371127      -11.1391230134  W2        923             0.0000000000
      2770       924  TIP3      OH2           -29.4356096295      -12.2938071127       -7.0622430134  W2        924             0.0000000000
      2771       924  TIP3      H1            -29.4738596295      -12.9401771127       -6.3572830134  W2        924             0.0000000000
      2772       924  TIP3      H2            -29.7579596295      -12.7603671127       -7.8333730134  W2        924             0.0000000000
      2773       925  TIP3      OH2           -37.0671096295      -12.6795971127       -5.4692530134  W2        925             0.0000000000
      2774       925  TIP3      H1            -37.0258996295      -13.3052671127       -4.7460130134  W2        925             0.0000000000
      2775       925  TIP3      H2            -36.3643396295      -12.0557371127       -5.2872130134  W2        925             0.0000000000
      2776       926  TIP3      OH2           -25.7295896295       -9.3547671127       -8.7607330134  W2        926             0.0000000000
      2777       926  TIP3      H1            -26.1703196295      -10.0751671127       -8.3101730134  W2        926             0.0000000000
      2778       926  TIP3      H2            -25.7426196295       -8.6340471127       -8.1309630134  W2        926             0.0000000000
      2779       927  TIP3      OH2           -36.1437996295       -8.2297071127       -6.9343430134  W2        927             0.0000000000
      2780       927  TIP3      H1            -36.5132796295       -9.0316571127       -7.3039130134  W2        927             0.0000000000
      2781       927  TIP3      H2            -35.2026896295       -8.3982171127       -6.8880030134  W2        927             0.0000000000
      2782       928  TIP3      OH2           -39.5337496295      -14.5694471127      -11.5414630134  W2        928             0.0000000000
      2783       928  TIP3      H1            -39.9814096295      -13.7235771127      -11.5598130134  W2        928             0.0000000000
      2784       928  TIP3      H2            -40.0946296295      -15.1490271127      -12.0569530134  W2        928             0.0000000000
      2785       929  TIP3      OH2           -38.8231396295      -12.4074871127       -9.4156630134  W2        929             0.0000000000
      2786       929  TIP3      H1            -38.6097896295      -13.1773271127       -8.8883630134  W2        929             0.0000000000
      2787       929  TIP3      H2            -38.0853796295      -12.3178171127      -10.0189030134  W2        929             0.0000000000
      2788       930  TIP3      OH2           -28.6180396295       -4.2505971127       -8.5486930134  W2        930             0.0000000000
      2789       930  TIP3      H1            -27.9983996295       -4.9271271127       -8.8217730134  W2        930             0.0000000000
      2790       930  TIP3      H2            -28.8262996295       -4.4685171127       -7.6402030134  W2        930             0.0000000000
      2791       931  TIP3      OH2           -31.0461696295       -9.8616671127       -6.6561430134  W2        931             0.0000000000
      2792       931  TIP3      H1            -30.7423796295      -10.5475271127       -7.2507330134  W2        931             0.0000000000
      2793       931  TIP3      H2            -30.3247696295       -9.7427971127       -6.0383430134  W2        931             0.0000000000
      2794       932  TIP3      OH2           -22.3831896295      -18.2601371127       -5.7955230134  W2        932             0.0000000000
      2795       932  TIP3      H1            -22.3339696295      -17.6500171127       -5.0596130134  W2        932             0.0000000000
      2796       932  TIP3      H2            -21.9576796295      -17.7990471127       -6.5184130134  W2        932             0.0000000000
      2797       933  TIP3      OH2           -27.9054696295      -15.4674271127       -6.3286630134  W2        933             0.0000000000
      2798       933  TIP3      H1            -27.7628796295      -16.4137271127       -6.3085030134  W2        933             0.0000000000
      2799       933  TIP3      H2            -28.0115696295      -15.2604471127       -7.2571730134  W2        933             0.0000000000
      2800       934  TIP3      OH2           -34.7506396295      -17.3657871127       -9.0561830134  W2        934             0.0000000000
      2801       934  TIP3      H1            -34.7075296295      -16.5059371127       -9.4745530134  W2        934             0.0000000000
      2802       934  TIP3      H2            -35.2082296295      -17.9183171127       -9.6898630134  W2        934             0.0000000000
      2803       935  TIP3      OH2           -27.0283696295      -17.2352271127      -10.6553530134  W2        935             0.0000000000
      2804       935  TIP3      H1            -26.3819396295      -17.5639071127      -10.0305930134  W2        935             0.0000000000
      2805       935  TIP3      H2            -26.5184296295      -16.7173271127      -11.2782130134  W2        935             0.0000000000
      2806       936  TIP3      OH2           -38.1304896295      -14.9692071127       -8.2940430134  W2        936             0.0000000000
      2807       936  TIP3      H1            -37.4768296295      -15.5190371127       -7.8620330134  W2        936             0.0000000000
      2808       936  TIP3      H2            -38.1065596295      -15.2433071127       -9.2108430134  W2        936             0.0000000000
      2809       937  TIP3      OH2           -32.9740396295      -13.4190771127       -9.0788930134  W2        937             0.0000000000
      2810       937  TIP3      H1            -32.3579396295      -13.9455371127       -8.5694930134  W2        937             0.0000000000
      2811       937  TIP3      H2            -33.5601596295      -14.0592071127       -9.4825330134  W2        937             0.0000000000
      2812       938  TIP3      OH2           -21.9917296295      -16.7822171127       -3.5595430134  W2        938             0.0000000000
      2813       938  TIP3      H1            -22.6802696295      -16.1241471127       -3.6548830134  W2        938             0.0000000000
      2814       938  TIP3      H2            -21.9762696295      -16.9794271127       -2.6230030134  W2        938             0.0000000000
      2815       939  TIP3      OH2           -35.9404496295      -18.4479471127       -4.9821030134  W2        939             0.0000000000
      2816       939  TIP3      H1            -36.1592796295      -17.9178871127       -5.7485030134  W2        939             0.0000000000
      2817       939  TIP3      H2            -36.6083596295      -18.2213971127       -4.3349630134  W2        939             0.0000000000
      2818       940  TIP3      OH2           -28.5714696295       -8.9478371127      -11.4381930134  W2        940             0.0000000000
      2819       940  TIP3      H1            -28.8669596295       -9.2706071127      -12.2895030134  W2        940             0.0000000000
      2820       940  TIP3      H2            -28.8956896295       -8.0481671127      -11.3969330134  W2        940             0.0000000000
      2821       941  TIP3      OH2           -33.3713096295      -10.7723771127       -4.6947330134  W2        941             0.0000000000
      2822       941  TIP3      H1            -34.1113996295      -10.1742271127       -4.5912130134  W2        941             0.0000000000
      2823       941  TIP3      H2            -32.6573596295      -10.2184171127       -5.0103730134  W2        941             0.0000000000
      2824       942  TIP3      OH2           -25.2645296295      -17.9442971127       -8.6747630134  W2        942             0.0000000000
      2825       942  TIP3      H1            -25.4797296295      -18.7099571127       -8.1421630134  W2        942             0.0000000000
      2826       942  TIP3      H2            -24.6087896295      -17.4718371127       -8.1619130134  W2        942             0.0000000000
      2827       943  TIP3      OH2           -36.3467196295      -16.5557671127       -7.0298830134  W2        943             0.0000000000
      2828       943  TIP3      H1            -35.7330896295      -15.9230071127       -6.6566430134  W2        943             0.0000000000
      2829       943  TIP3      H2            -35.8346496295      -17.0282671127       -7.6861930134  W2        943             0.0000000000
      2830       944  TIP3      OH2           -34.9638796295       -8.8080771127       -3.9075830134  W2        944             0.0000000000
      2831       944  TIP3      H1            -34.9691196295       -7.9287271127       -4.2856530134  W2        944             0.0000000000
      2832       944  TIP3      H2            -35.8174696295       -8.8916671127       -3.4825930134  W2        944             0.0000000000
      2833       945  TIP3      OH2           -38.8427896295       -9.1372871127      -13.1256530134  W2        945             0.0000000000
      2834       945  TIP3      H1            -39.1146996295       -8.9081871127      -14.0143630134  W2        945             0.0000000000
      2835       945  TIP3      H2            -38.7972196295       -8.2994071127      -12.6651230134  W2        945             0.0000000000
      2836       946  TIP3      OH2           -25.2178196295       -7.5156971127       -6.4128030134  W2        946             0.0000000000
      2837       946  TIP3      H1            -26.1594496295       -7.4573071127       -6.2511130134  W2        946             0.0000000000
      2838       946  TIP3      H2            -24.9412096295       -6.6096471127       -6.5498330134  W2        946             0.0000000000
      2839       947  TIP3      OH2           -24.9171196295      -19.2291671127       -4.9954130134  W2        947             0.0000000000
      2840       947  TIP3      H1            -25.6531996295      -18.6184571127       -5.0332830134  W2        947             0.0000000000
      2841       947  TIP3      H2            -24.2337196295      -18.8142671127       -5.5217730134  W2        947             0.0000000000
      2842       948  TIP3      OH2           -31.9139796295      -21.1424371127       -7.5296130134  W2        948             0.0000000000
      2843       948  TIP3      H1            -32.0315596295      -22.0908371127       -7.5837830134  W2        948             0.0000000000
      2844       948  TIP3      H2            -32.7689696295      -20.8098271127       -7.2565030134  W2        948             0.0000000000
      2845       949  TIP3      OH2           -26.9656996295       -5.7343471127       -9.7876430134  W2        949             0.0000000000
      2846       949  TIP3      H1            -26.5404696295       -6.4415571127      -10.2726830134  W2        949             0.0000000000
      2847       949  TIP3      H2            -26.6486996295       -4.9330771127      -10.2044230134  W2        949             0.0000000000
      2848       950  TIP3      OH2           -25.8060496295       -7.8334971127      -11.2789830134  W2        950             0.0000000000
      2849       950  TIP3      H1            -26.0635696295       -8.5234871127      -11.8903930134  W2        950             0.0000000000
      2850       950  TIP3      H2            -25.7349696295       -8.2763771127      -10.4333930134  W2        950             0.0000000000
      2851       951  TIP3      OH2           -24.1200296295       -9.2668271127       -2.8016330134  W2        951             0.0000000000
      2852       951  TIP3      H1            -23.9803996295       -9.8585771127       -3.5409330134  W2        951             0.0000000000
      2853       951  TIP3      H2            -23.9527496295       -8.3942371127       -3.1577530134  W2        951             0.0000000000
      2854       952  TIP3      OH2           -29.6474896295      -12.3048771127      -13.0290330134  W2        952             0.0000000000
      2855       952  TIP3      H1            -30.3589396295      -11.7699071127      -13.3809830134  W2        952             0.0000000000
      2856       952  TIP3      H2            -28.9565296295      -12.2496671127      -13.6891430134  W2        952             0.0000000000
      2857       953  TIP3      OH2           -29.5935696295      -13.8474471127      -15.9905330134  W2        953             0.0000000000
      2858       953  TIP3      H1            -28.8925796295      -13.8247571127      -15.3391330134  W2        953             0.0000000000
      2859       953  TIP3      H2            -29.2912796295      -14.4754771127      -16.6466030134  W2        953             0.0000000000
      2860       954  TIP3      OH2           -22.2780996295      -12.9270271127       -4.7355930134  W2        954             0.0000000000
      2861       954  TIP3      H1            -22.9306896295      -12.2324671127       -4.6465030134  W2        954             0.0000000000
      2862       954  TIP3      H2            -21.8130696295      -12.7169371127       -5.5454330134  W2        954             0.0000000000
      2863       955  TIP3      OH2           -26.2417196295      -12.0955471127      -12.0774430134  W2        955             0.0000000000
      2864       955  TIP3      H1            -26.9736196295      -11.8671771127      -11.5043830134  W2        955             0.0000000000
      2865       955  TIP3      H2            -25.7944996295      -12.8092771127      -11.6226930134  W2        955             0.0000000000
      2866       956  TIP3      OH2           -26.3443696295      -13.9212871127       -3.0097430134  W2        956             0.0000000000
      2867       956  TIP3      H1            -26.2644596295      -13.1578471127       -2.4378930134  W2        956             0.0000000000
      2868       956  TIP3      H2            -26.9455996295      -13.6420471127       -3.7002330134  W2        956             0.0000000000
      2869       957  TIP3      OH2           -34.5963496295      -11.4649271127      -10.1949430134  W2        957             0.0000000000
      2870       957  TIP3      H1            -34.9268296295      -11.8355871127      -11.0132430134  W2        957             0.0000000000
      2871       957  TIP3      H2            -34.0079396295      -12.1355271127       -9.8481130134  W2        957             0.0000000000
      2872       958  TIP3      OH2           -33.2295996295       -8.0368671127       -7.5137230134  W2        958             0.0000000000
      2873       958  TIP3      H1            -33.3244696295       -8.6155571127       -8.2702630134  W2        958             0.0000000000
      2874       958  TIP3      H2            -32.5002396295       -8.4082971127       -7.0174430134  W2        958             0.0000000000
      2875       959  TIP3      OH2           -34.2297996295      -12.6963671127       -6.5614430134  W2        959             0.0000000000
      2876       959  TIP3      H1            -33.6645496295      -12.5749471127       -7.3243230134  W2        959             0.0000000000
      2877       959  TIP3      H2            -33.9109096295      -12.0588671127       -5.9225930134  W2        959             0.0000000000
      2878       960  TIP3      OH2           -27.9205796295       -7.1931771127       -5.8273930134  W2        960             0.0000000000
      2879       960  TIP3      H1            -28.1609196295       -6.5308671127       -5.1794730134  W2        960             0.0000000000
      2880       960  TIP3      H2            -28.1187596295       -8.0276571127       -5.4024330134  W2        960             0.0000000000
      2881       961  TIP3      OH2           -33.3497296295       -8.2970971127       -1.8442530134  W2        961             0.0000000000
      2882       961  TIP3      H1            -33.6609796295       -7.5147771127       -1.3889330134  W2        961             0.0000000000
      2883       961  TIP3      H2            -33.9997096295       -8.4501871127       -2.5300530134  W2        961             0.0000000000
      2884       962  TIP3      OH2           -27.3707696295      -12.9332571127      -14.3923230134  W2        962             0.0000000000
      2885       962  TIP3      H1            -26.7912196295      -12.7832271127      -13.6454330134  W2        962             0.0000000000
      2886       962  TIP3      H2            -26.9567696295      -12.4625171127      -15.1156830134  W2        962             0.0000000000
      2887       963  TIP3      OH2           -36.4297396295      -12.0989871127       -2.6156830134  W2        963             0.0000000000
      2888       963  TIP3      H1            -36.3594196295      -11.4483071127       -1.9171830134  W2        963             0.0000000000
      2889       963  TIP3      H2            -37.3205196295      -11.9962371127       -2.9505930134  W2        963             0.0000000000
      2890       964  TIP3      OH2           -29.6442796295       -6.1964071127      -10.9570130134  W2        964             0.0000000000
      2891       964  TIP3      H1            -29.1705196295       -5.9007771127      -10.1795930134  W2        964             0.0000000000
      2892       964  TIP3      H2            -30.2073496295       -5.4582471127      -11.1900530134  W2        964             0.0000000000
      2893       965  TIP3      OH2           -35.1101396295       -6.2255971127       -1.0808730134  W2        965             0.0000000000
      2894       965  TIP3      H1            -35.1026096295       -6.3616271127       -2.0283230134  W2        965             0.0000000000
      2895       965  TIP3      H2            -36.0260996295       -6.3427871127       -0.8288730134  W2        965             0.0000000000
      2896       966  TIP3      OH2           -23.6719296295      -21.1832171127      -14.5793530134  W2        966             0.0000000000
      2897       966  TIP3      H1            -24.5718596295      -21.0443171127      -14.2842930134  W2        966             0.0000000000
      2898       966  TIP3      H2            -23.4200896295      -20.3517571127      -14.9811830134  W2        966             0.0000000000
      2899       967  TIP3      OH2           -35.6060796295      -12.3954971127      -12.6056630134  W2        967             0.0000000000
      2900       967  TIP3      H1            -35.8979496295      -11.6273271127      -13.0965330134  W2        967             0.0000000000
      2901       967  TIP3      H2            -36.2805596295      -13.0548771127      -12.7685230134  W2        967             0.0000000000
      2902       968  TIP3      OH2           -22.4827896295       -6.8169771127      -16.2029630134  W2        968             0.0000000000
      2903       968  TIP3      H1            -22.4094396295       -5.8779571127      -16.0324330134  W2        968             0.0000000000
      2904       968  TIP3      H2            -21.5772796295       -7.1221171127      -16.2592330134  W2        968             0.0000000000
      2905       969  TIP3      OH2           -39.5130696295      -10.0325771127       -3.7906830134  W2        969             0.0000000000
      2906       969  TIP3      H1            -40.0142296295      -10.0606371127       -4.6057130134  W2        969             0.0000000000
      2907       969  TIP3      H2            -39.5076996295      -10.9382571127       -3.4809530134  W2        969             0.0000000000
      2908       970  TIP3      OH2           -39.7627996295       -7.2521971127       -6.9066630134  W2        970             0.0000000000
      2909       970  TIP3      H1            -38.8167396295       -7.3964971127       -6.9257130134  W2        970             0.0000000000
      2910       970  TIP3      H2            -39.8751696295       -6.4679171127       -6.3695430134  W2        970             0.0000000000
      2911       971  TIP3      OH2           -21.5649496295       -6.5862271127       -1.2242930134  W2        971             0.0000000000
      2912       971  TIP3      H1            -21.6142696295       -7.5414171127       -1.2615330134  W2        971             0.0000000000
      2913       971  TIP3      H2            -22.3917196295       -6.3186971127       -0.8229130134  W2        971             0.0000000000
      2914       972  TIP3      OH2           -30.5865496295       -7.0123071127       -2.3481530134  W2        972             0.0000000000
      2915       972  TIP3      H1            -30.4990896295       -6.1858471127       -1.8732430134  W2        972             0.0000000000
      2916       972  TIP3      H2            -31.4500396295       -7.3419271127       -2.0992230134  W2        972             0.0000000000
      2917       973  TIP3      OH2           -30.1719696295       -3.2399371127      -12.5420930134  W2        973             0.0000000000
      2918       973  TIP3      H1            -30.2473696295       -3.3612171127      -13.4885730134  W2        973             0.0000000000
      2919       973  TIP3      H2            -30.1390996295       -2.2906671127      -12.4236330134  W2        973             0.0000000000
      2920       974  TIP3      OH2           -36.5185896295       -4.4512371127      -10.7611930134  W2        974             0.0000000000
      2921       974  TIP3      H1            -36.3665496295       -4.7991971127       -9.8825430134  W2        974             0.0000000000
      2922       974  TIP3      H2            -37.3695496295       -4.8075071127      -11.0164730134  W2        974             0.0000000000
      2923       975  TIP3      OH2           -27.0703696295       -4.0859171127      -15.5398530134  W2        975             0.0000000000
      2924       975  TIP3      H1            -26.6955296295       -4.8303071127      -16.0105930134  W2        975             0.0000000000
      2925       975  TIP3      H2            -27.0659996295       -4.3558571127      -14.6215230134  W2        975             0.0000000000
      2926       976  TIP3      OH2           -27.4015596295       -4.1602071127      -12.7906330134  W2        976             0.0000000000
      2927       976  TIP3      H1            -28.3365796295       -4.0600171127      -12.6119330134  W2        976             0.0000000000
      2928       976  TIP3      H2            -27.1213696295       -4.8696071127      -12.2123130134  W2        976             0.0000000000
      2929       977  TIP3      OH2           -24.4129696295      -15.0929771127       -0.7440730134  W2        977             0.0000000000
      2930       977  TIP3      H1            -24.8202896295      -14.6124171127       -1.4647430134  W2        977             0.0000000000
      2931       977  TIP3      H2            -24.3723996295      -15.9983771127       -1.0519930134  W2        977             0.0000000000
      2932       978  TIP3      OH2           -37.2640196295       -8.7090371127       -2.7474030134  W2        978             0.0000000000
      2933       978  TIP3      H1            -37.0478896295       -9.0704771127       -1.8878230134  W2        978             0.0000000000
      2934       978  TIP3      H2            -38.1195496295       -9.0836571127       -2.9570530134  W2        978             0.0000000000
      2935       979  TIP3      OH2           -34.6452196295      -20.2389871127       -6.7519830134  W2        979             0.0000000000
      2936       979  TIP3      H1            -35.5068496295      -20.3261671127       -7.1596930134  W2        979             0.0000000000
      2937       979  TIP3      H2            -34.6676496295      -19.3829771127       -6.3242230134  W2        979             0.0000000000
      2938       980  TIP3      OH2           -29.9824396295      -20.5169471127       -3.3772830134  W2        980             0.0000000000
      2939       980  TIP3      H1            -29.5621296295      -20.9322371127       -2.6242230134  W2        980             0.0000000000
      2940       980  TIP3      H2            -30.9154796295      -20.6956171127       -3.2600830134  W2        980             0.0000000000
      2941       981  TIP3      OH2           -26.6559496295      -16.7614271127       -2.5238330134  W2        981             0.0000000000
      2942       981  TIP3      H1            -27.1699996295      -16.8872071127       -1.7262330134  W2        981             0.0000000000
      2943       981  TIP3      H2            -26.8114796295      -15.8491171127       -2.7682130134  W2        981             0.0000000000
      2944       982  TIP3      OH2           -25.8934596295      -11.9004271127      -16.7625330134  W2        982             0.0000000000
      2945       982  TIP3      H1            -25.8513796295      -12.1230371127      -17.6925330134  W2        982             0.0000000000
      2946       982  TIP3      H2            -25.0442496295      -11.5017171127      -16.5725430134  W2        982             0.0000000000
      2947       983  TIP3      OH2           -30.3207096295      -18.0246071127      -16.0922030134  W2        983             0.0000000000
      2948       983  TIP3      H1            -30.5742296295      -18.0054471127      -15.1693930134  W2        983             0.0000000000
      2949       983  TIP3      H2            -30.5774996295      -18.8960671127      -16.3935830134  W2        983             0.0000000000
      2950       984  TIP3      OH2           -34.5542096295      -15.2735371127       -5.6569630134  W2        984             0.0000000000
      2951       984  TIP3      H1            -35.1959996295      -15.3138071127       -4.9479530134  W2        984             0.0000000000
      2952       984  TIP3      H2            -34.5170096295      -14.3470671127       -5.8946630134  W2        984             0.0000000000
      2953       985  TIP3      OH2           -34.5572996295      -15.0525271127      -10.7449630134  W2        985             0.0000000000
      2954       985  TIP3      H1            -35.4500096295      -15.3929171127      -10.8035830134  W2        985             0.0000000000
      2955       985  TIP3      H2            -34.1066396295      -15.4294371127      -11.5006430134  W2        985             0.0000000000
      2956       986  TIP3      OH2           -29.0217496295      -14.6364971127      -11.9278830134  W2        986             0.0000000000
      2957       986  TIP3      H1            -29.4307196295      -13.8216371127      -12.2194030134  W2        986             0.0000000000
      2958       986  TIP3      H2            -28.3011296295      -14.7764871127      -12.5421730134  W2        986             0.0000000000
      2959       987  TIP3      OH2           -29.9195896295      -14.4608571127       -0.4398130134  W2        987             0.0000000000
      2960       987  TIP3      H1            -30.4822096295      -15.1656971127       -0.1190330134  W2        987             0.0000000000
      2961       987  TIP3      H2            -29.0932496295      -14.5816671127        0.0279469866  W2        987             0.0000000000
      2962       988  TIP3      OH2           -28.0169796295      -15.1904571127       -9.1139130134  W2        988             0.0000000000
      2963       988  TIP3      H1            -28.2125296295      -14.5847771127       -9.8288530134  W2        988             0.0000000000
      2964       988  TIP3      H2            -27.8357196295      -16.0239371127       -9.5482830134  W2        988             0.0000000000
      2965       989  TIP3      OH2           -36.8041596295      -14.9531871127       -3.7897630134  W2        989             0.0000000000
      2966       989  TIP3      H1            -36.8422196295      -14.5530271127       -2.9210530134  W2        989             0.0000000000
      2967       989  TIP3      H2            -37.2950496295      -15.7699471127       -3.6994730134  W2        989             0.0000000000
      2968       990  TIP3      OH2           -33.4384196295      -17.5789571127      -16.9911630134  W2        990             0.0000000000
      2969       990  TIP3      H1            -33.8693496295      -18.0239471127      -16.2614230134  W2        990             0.0000000000
      2970       990  TIP3      H2            -34.1565496295      -17.2073271127      -17.5034130134  W2        990             0.0000000000
      2971       991  TIP3      OH2           -40.1960796295      -17.8370071127       -9.9392930134  W2        991             0.0000000000
      2972       991  TIP3      H1            -39.5653096295      -17.8657971127       -9.2199030134  W2        991             0.0000000000
      2973       991  TIP3      H2            -39.7466496295      -18.2621371127      -10.6697030134  W2        991             0.0000000000
      2974       992  TIP3      OH2           -38.9218696295      -17.0908071127      -14.5152530134  W2        992             0.0000000000
      2975       992  TIP3      H1            -38.4476996295      -16.4998171127      -15.1001630134  W2        992             0.0000000000
      2976       992  TIP3      H2            -39.6392296295      -16.5605171127      -14.1682430134  W2        992             0.0000000000
      2977       993  TIP3      OH2           -28.7530596295      -13.5523271127       -4.4426730134  W2        993             0.0000000000
      2978       993  TIP3      H1            -28.4295796295      -14.1833571127       -5.0856230134  W2        993             0.0000000000
      2979       993  TIP3      H2            -29.1931296295      -14.0871071127       -3.7819330134  W2        993             0.0000000000
      2980       994  TIP3      OH2           -31.9757696295      -17.6247771127       -9.6585530134  W2        994             0.0000000000
      2981       994  TIP3      H1            -32.8866596295      -17.5680971127       -9.3699530134  W2        994             0.0000000000
      2982       994  TIP3      H2            -31.4704796295      -17.6852271127       -8.8478330134  W2        994             0.0000000000
      2983       995  TIP3      OH2           -37.1474296295      -15.9961471127      -10.8317930134  W2        995             0.0000000000
      2984       995  TIP3      H1            -38.0366296295      -15.8965971127      -11.1718330134  W2        995             0.0000000000
      2985       995  TIP3      H2            -36.8509396295      -16.8378471127      -11.1780030134  W2        995             0.0000000000
      2986       996  TIP3      OH2           -33.4942496295      -15.9958871127      -13.1753330134  W2        996             0.0000000000
      2987       996  TIP3      H1            -32.5626996295      -15.8668871127      -12.9970230134  W2        996             0.0000000000
      2988       996  TIP3      H2            -33.7092196295      -15.3264571127      -13.8248630134  W2        996             0.0000000000
      2989       997  TIP3      OH2           -27.5705796295      -18.3901471127       -6.3943730134  W2        997             0.0000000000
      2990       997  TIP3      H1            -28.2474196295      -18.2588371127       -5.7304030134  W2        997             0.0000000000
      2991       997  TIP3      H2            -28.0560896295      -18.5451971127       -7.2046030134  W2        997             0.0000000000
      2992       998  TIP3      OH2           -34.8202296295      -14.8016671127      -15.6087230134  W2        998             0.0000000000
      2993       998  TIP3      H1            -35.3627196295      -15.1812871127      -16.2999630134  W2        998             0.0000000000
      2994       998  TIP3      H2            -33.9867396295      -14.6071971127      -16.0373130134  W2        998             0.0000000000
      2995       999  TIP3      OH2           -24.2830696295       -2.7186071127       -0.1176130134  W2        999             0.0000000000
      2996       999  TIP3      H1            -24.0831996295       -2.2944171127       -0.9520830134  W2        999             0.0000000000
      2997       999  TIP3      H2            -23.6276996295       -2.3747871127        0.4894269866  W2        999             0.0000000000
      2998      1000  TIP3      OH2           -36.6850896295      -10.2444771127       -0.5095630134  W2        1000            0.0000000000
      2999      1000  TIP3      H1            -35.9528496295       -9.9898871127        0.0518869866  W2        1000            0.0000000000
      3000      1000  TIP3      H2            -37.4652196295      -10.0399371127        0.0059769866  W2        1000            0.0000000000
      3001      1001  TIP3      OH2           -30.6557996295      -14.8374771127       -7.7715930134  W2        1001            0.0000000000
      3002      1001  TIP3      H1            -30.0914596295      -15.3838171127       -8.3186330134  W2        1001            0.0000000000
      3003      1001  TIP3      H2            -30.8034596295      -15.3592871127       -6.9828330134  W2        1001            0.0000000000
      3004      1002  TIP3      OH2           -35.6538296295      -18.7008671127      -11.3531130134  W2        1002            0.0000000000
      3005      1002  TIP3      H1            -35.9708796295      -19.6033371127      -11.3885730134  W2        1002            0.0000000000
      3006      1002  TIP3      H2            -34.8724196295      -18.6991271127      -11.9059530134  W2        1002            0.0000000000
      3007      1003  TIP3      OH2           -32.0292096295      -16.4488671127       -5.3575530134  W2        1003            0.0000000000
      3008      1003  TIP3      H1            -32.8646796295      -15.9949171127       -5.2473130134  W2        1003            0.0000000000
      3009      1003  TIP3      H2            -31.5051496295      -16.1730171127       -4.6055630134  W2        1003            0.0000000000
      3010      1004  TIP3      OH2           -31.4849496295      -10.2360971127      -13.6729130134  W2        1004            0.0000000000
      3011      1004  TIP3      H1            -32.2298496295      -10.7435671127      -13.9951230134  W2        1004            0.0000000000
      3012      1004  TIP3      H2            -31.6192296295      -10.1872971127      -12.7264330134  W2        1004            0.0000000000
      3013      1005  TIP3      OH2           -24.3350596295      -11.1032771127       -4.8861530134  W2        1005            0.0000000000
      3014      1005  TIP3      H1            -23.6931796295      -10.6466471127       -5.4299330134  W2        1005            0.0000000000
      3015      1005  TIP3      H2            -25.1653696295      -10.9900371127       -5.3487430134  W2        1005            0.0000000000
      3016      1006  TIP3      OH2           -27.5872696295      -17.4221071127      -15.4736530134  W2        1006            0.0000000000
      3017      1006  TIP3      H1            -28.5258496295      -17.3105471127      -15.6247730134  W2        1006            0.0000000000
      3018      1006  TIP3      H2            -27.2900596295      -16.5654171127      -15.1670830134  W2        1006            0.0000000000
      3019      1007  TIP3      OH2           -29.9657396295      -10.0517671127       -2.4360030134  W2        1007            0.0000000000
      3020      1007  TIP3      H1            -30.3111296295      -10.4335271127       -1.6290430134  W2        1007            0.0000000000
      3021      1007  TIP3      H2            -30.1657296295       -9.1184071127       -2.3647130134  W2        1007            0.0000000000
      3022      1008  TIP3      OH2           -26.8689196295      -15.5548371127      -13.8129130134  W2        1008            0.0000000000
      3023      1008  TIP3      H1            -25.9770196295      -15.6923371127      -13.4937930134  W2        1008            0.0000000000
      3024      1008  TIP3      H2            -26.8125596295      -14.7642271127      -14.3495630134  W2        1008            0.0000000000
      3025      1009  TIP3      OH2           -36.3601196295      -10.9410971127       -7.9031230134  W2        1009            0.0000000000
      3026      1009  TIP3      H1            -35.6153996295      -10.9435271127       -8.5044730134  W2        1009            0.0000000000
      3027      1009  TIP3      H2            -36.2824596295      -11.7647171127       -7.4216130134  W2        1009            0.0000000000
      3028      1010  TIP3      OH2           -29.3595396295       -8.7776671127      -14.6474530134  W2        1010            0.0000000000
      3029      1010  TIP3      H1            -29.6546996295       -7.9508771127      -14.2659730134  W2        1010            0.0000000000
      3030      1010  TIP3      H2            -30.0625396295       -9.3969771127      -14.4513130134  W2        1010            0.0000000000
      3031      1011  TIP3      OH2           -39.3521496295      -12.4804071127       -2.5882730134  W2        1011            0.0000000000
      3032      1011  TIP3      H1            -39.1292896295      -12.8984471127       -1.7565230134  W2        1011            0.0000000000
      3033      1011  TIP3      H2            -39.9541396295      -13.0929071127       -3.0109930134  W2        1011            0.0000000000
      3034      1012  TIP3      OH2           -32.3356596295      -12.9634171127       -0.3753030134  W2        1012            0.0000000000
      3035      1012  TIP3      H1            -32.6315796295      -13.1291171127       -1.2703930134  W2        1012            0.0000000000
      3036      1012  TIP3      H2            -31.4041396295      -13.1833871127       -0.3859130134  W2        1012            0.0000000000
      3037      1013  TIP3      OH2           -27.7153796295       -7.5902171127       -2.4855030134  W2        1013            0.0000000000
      3038      1013  TIP3      H1            -28.6159496295       -7.4069571127       -2.7531130134  W2        1013            0.0000000000
      3039      1013  TIP3      H2            -27.6812696295       -7.3312871127       -1.5646230134  W2        1013            0.0000000000
      3040      1014  TIP3      OH2           -21.9840496295      -15.3454271127      -14.1182430134  W2        1014            0.0000000000
      3041      1014  TIP3      H1            -22.5384196295      -15.7416271127      -14.7904930134  W2        1014            0.0000000000
      3042      1014  TIP3      H2            -21.8836896295      -14.4349071127      -14.3959130134  W2        1014            0.0000000000
      3043      1015  TIP3      OH2           -22.0208496295       -9.5452571127       -1.2810930134  W2        1015            0.0000000000
      3044      1015  TIP3      H1            -22.8719996295       -9.3068771127       -1.6484530134  W2        1015            0.0000000000
      3045      1015  TIP3      H2            -21.4305096295       -9.5619371127       -2.0343830134  W2        1015            0.0000000000
      3046      1016  TIP3      OH2           -23.6888796295       -6.5593871127      -13.6530330134  W2        1016            0.0000000000
      3047      1016  TIP3      H1            -24.0617696295       -7.3850071127      -13.3439730134  W2        1016            0.0000000000
      3048      1016  TIP3      H2            -23.4115296295       -6.7424471127      -14.5506930134  W2        1016            0.0000000000
      3049      1017  TIP3      OH2           -26.5284896295      -11.7514371127       -6.6318430134  W2        1017            0.0000000000
      3050      1017  TIP3      H1            -27.4567996295      -11.9832471127       -6.6589130134  W2        1017            0.0000000000
      3051      1017  TIP3      H2            -26.0773796295      -12.5284571127       -6.9619630134  W2        1017            0.0000000000
      3052      1018  TIP3      OH2           -33.9851796295       -7.4232771127      -10.4989730134  W2        1018            0.0000000000
      3053      1018  TIP3      H1            -33.4579596295       -6.6498371127      -10.6990930134  W2        1018            0.0000000000
      3054      1018  TIP3      H2            -34.8653296295       -7.1983571127      -10.8005730134  W2        1018            0.0000000000
      3055      1019  TIP3      OH2           -38.2304096295      -12.5608671127      -15.9117330134  W2        1019            0.0000000000
      3056      1019  TIP3      H1            -37.6144196295      -11.9341471127      -15.5322530134  W2        1019            0.0000000000
      3057      1019  TIP3      H2            -39.0921496295      -12.2448871127      -15.6400830134  W2        1019            0.0000000000
      3058      1020  TIP3      OH2           -32.5579496295       -9.7602871127      -10.9225430134  W2        1020            0.0000000000
      3059      1020  TIP3      H1            -32.7989496295       -8.8348471127      -10.8810130134  W2        1020            0.0000000000
      3060      1020  TIP3      H2            -33.2985896295      -10.2191571127      -10.5261530134  W2        1020            0.0000000000
      3061      1021  TIP3      OH2           -32.0432896295       -5.6109271127       -4.6074330134  W2        1021            0.0000000000
      3062      1021  TIP3      H1            -31.6808196295       -4.7563671127       -4.8409930134  W2        1021            0.0000000000
      3063      1021  TIP3      H2            -31.5117696295       -5.9027671127       -3.8668030134  W2        1021            0.0000000000
      3064      1022  TIP3      OH2           -33.8748696295       -4.7385271127      -11.3773230134  W2        1022            0.0000000000
      3065      1022  TIP3      H1            -34.8248196295       -4.6327871127      -11.3259930134  W2        1022            0.0000000000
      3066      1022  TIP3      H2            -33.5230596295       -3.9177871127      -11.0325730134  W2        1022            0.0000000000
      3067      1023  TIP3      OH2           -28.4992096295       -9.5118571127       -4.9068730134  W2        1023            0.0000000000
      3068      1023  TIP3      H1            -28.9250796295       -9.7396871127       -4.0804730134  W2        1023            0.0000000000
      3069      1023  TIP3      H2            -27.9186296295      -10.2506771127       -5.0893430134  W2        1023            0.0000000000
      3070      1024  TIP3      OH2           -26.2963196295       -8.5828071127      -15.8329730134  W2        1024            0.0000000000
      3071      1024  TIP3      H1            -25.9430096295       -8.9628271127      -15.0286230134  W2        1024            0.0000000000
      3072      1024  TIP3      H2            -27.2449696295       -8.6763271127      -15.7460430134  W2        1024            0.0000000000
      3073      1025  TIP3      OH2           -25.8407896295       -4.9599071127       -2.4373930134  W2        1025            0.0000000000
      3074      1025  TIP3      H1            -26.4424696295       -5.5156171127       -2.9327630134  W2        1025            0.0000000000
      3075      1025  TIP3      H2            -25.5594196295       -4.2929271127       -3.0636530134  W2        1025            0.0000000000
      3076      1026  TIP3      OH2           -21.7928796295       -4.1035571127      -15.6319530134  W2        1026            0.0000000000
      3077      1026  TIP3      H1            -21.0490896295       -3.5175071127      -15.7717930134  W2        1026            0.0000000000
      3078      1026  TIP3      H2            -22.4870696295       -3.5349771127      -15.2987130134  W2        1026            0.0000000000
      3079      1027  TIP3      OH2           -37.7181996295      -17.7271371127       -3.0301330134  W2        1027            0.0000000000
      3080      1027  TIP3      H1            -38.6109696295      -17.3885971127       -3.0977330134  W2        1027            0.0000000000
      3081      1027  TIP3      H2            -37.8169196295      -18.5825271127       -2.6120530134  W2        1027            0.0000000000
      3082      1028  TIP3      OH2           -25.4303896295       -9.9106071127      -13.6061830134  W2        1028            0.0000000000
      3083      1028  TIP3      H1            -25.7076296295      -10.6386771127      -13.0500730134  W2        1028            0.0000000000
      3084      1028  TIP3      H2            -24.5030896295       -9.7914071127      -13.4009230134  W2        1028            0.0000000000
      3085      1029  TIP3      OH2           -38.0669996295       -5.9226971127       -4.5951930134  W2        1029            0.0000000000
      3086      1029  TIP3      H1            -37.8499696295       -6.8544571127       -4.6262230134  W2        1029            0.0000000000
      3087      1029  TIP3      H2            -37.8206496295       -5.6481971127       -3.7119130134  W2        1029            0.0000000000
      3088      1030  TIP3      OH2           -32.2055396295       -7.4711971127      -17.3859730134  W2        1030            0.0000000000
      3089      1030  TIP3      H1            -31.9665596295       -8.2193871127      -17.9330830134  W2        1030            0.0000000000
      3090      1030  TIP3      H2            -32.4744096295       -7.8590271127      -16.5531930134  W2        1030            0.0000000000
      3091      1031  TIP3      OH2           -33.2684796295       -7.9008171127      -14.9297130134  W2        1031            0.0000000000
      3092      1031  TIP3      H1            -33.1216796295       -8.4208371127      -14.1396230134  W2        1031            0.0000000000
      3093      1031  TIP3      H2            -33.2713096295       -6.9940571127      -14.6231230134  W2        1031            0.0000000000
      3094      1032  TIP3      OH2           -36.8153696295      -10.6484871127      -14.4191730134  W2        1032            0.0000000000
      3095      1032  TIP3      H1            -37.5014396295      -10.2962371127      -13.8522030134  W2        1032            0.0000000000
      3096      1032  TIP3      H2            -36.2925796295       -9.8855271127      -14.6657430134  W2        1032            0.0000000000
      3097      1033  TIP3      OH2           -28.9838596295      -17.9861071127       -4.1402730134  W2        1033            0.0000000000
      3098      1033  TIP3      H1            -28.2850696295      -17.9122371127       -3.4903030134  W2        1033            0.0000000000
      3099      1033  TIP3      H2            -29.3647196295      -18.8506071127       -3.9859830134  W2        1033            0.0000000000
      3100      1034  TIP3      OH2           -28.1993696295      -18.3339371127      -13.0430430134  W2        1034            0.0000000000
      3101      1034  TIP3      H1            -27.9795396295      -17.8623971127      -13.8465030134  W2        1034            0.0000000000
      3102      1034  TIP3      H2            -27.6409696295      -17.9396771127      -12.3729830134  W2        1034            0.0000000000
      3103      1035  TIP3      OH2           -30.5307596295       -6.2034571127      -14.1802930134  W2        1035            0.0000000000
      3104      1035  TIP3      H1            -31.3471496295       -5.7064871127      -14.1278630134  W2        1035            0.0000000000
      3105      1035  TIP3      H2            -30.0011296295       -5.7281071127      -14.8204130134  W2        1035            0.0000000000
      3106      1036  TIP3      OH2           -30.9993796295      -16.6060571127      -12.2082030134  W2        1036            0.0000000000
      3107      1036  TIP3      H1            -30.1871196295      -16.1017371127      -12.1620330134  W2        1036            0.0000000000
      3108      1036  TIP3      H2            -31.2440796295      -16.7510871127      -11.2942430134  W2        1036            0.0000000000
      3109      1037  TIP3      OH2           -30.4637396295      -15.6197871127       -3.0235430134  W2        1037            0.0000000000
      3110      1037  TIP3      H1            -30.3447096295      -15.0462471127       -2.2665030134  W2        1037            0.0000000000
      3111      1037  TIP3      H2            -29.8082796295      -16.3078471127       -2.9087630134  W2        1037            0.0000000000
      3112      1038  TIP3      OH2           -30.1157096295      -19.5247571127      -11.2700930134  W2        1038            0.0000000000
      3113      1038  TIP3      H1            -30.4623596295      -18.9076971127      -10.6256630134  W2        1038            0.0000000000
      3114      1038  TIP3      H2            -29.4570196295      -19.0241871127      -11.7515430134  W2        1038            0.0000000000
      3115      1039  TIP3      OH2           -33.1924496295       -5.1597371127      -14.1986030134  W2        1039            0.0000000000
      3116      1039  TIP3      H1            -33.0315796295       -4.3599871127      -14.6993430134  W2        1039            0.0000000000
      3117      1039  TIP3      H2            -33.3896696295       -4.8531371127      -13.3135430134  W2        1039            0.0000000000
      3118      1040  TIP3      OH2           -34.4580096295      -18.4618171127      -14.5828430134  W2        1040            0.0000000000
      3119      1040  TIP3      H1            -34.5415296295      -17.5735071127      -14.2362030134  W2        1040            0.0000000000
      3120      1040  TIP3      H2            -33.5679796295      -18.7271471127      -14.3511630134  W2        1040            0.0000000000
      3121      1041  TIP3      OH2           -24.2591596295      -17.7127571127       -2.1885730134  W2        1041            0.0000000000
      3122      1041  TIP3      H1            -25.1755796295      -17.4505871127       -2.2762030134  W2        1041            0.0000000000
      3123      1041  TIP3      H2            -23.9236596295      -17.7158571127       -3.0850430134  W2        1041            0.0000000000
      3124      1042  TIP3      OH2           -25.6570596295      -13.9626571127       -8.0928430134  W2        1042            0.0000000000
      3125      1042  TIP3      H1            -26.4546196295      -14.3776371127       -8.4213430134  W2        1042            0.0000000000
      3126      1042  TIP3      H2            -25.2119496295      -14.6532871127       -7.6017930134  W2        1042            0.0000000000
      3127      1043  TIP3      OH2           -36.1994796295       -8.0345971127      -15.5223930134  W2        1043            0.0000000000
      3128      1043  TIP3      H1            -35.6073296295       -7.3351171127      -15.2461530134  W2        1043            0.0000000000
      3129      1043  TIP3      H2            -35.7401796295       -8.4676471127      -16.2419330134  W2        1043            0.0000000000
      3130      1044  TIP3      OH2           -37.8835596295      -15.3702971127      -16.4064530134  W2        1044            0.0000000000
      3131      1044  TIP3      H1            -37.9282996295      -14.4309871127      -16.2277530134  W2        1044            0.0000000000
      3132      1044  TIP3      H2            -38.7712396295      -15.6058071127      -16.6762430134  W2        1044            0.0000000000
      3133      1045  TIP3      OH2           -24.5705996295       -4.7064071127       -6.4704930134  W2        1045            0.0000000000
      3134      1045  TIP3      H1            -24.7261696295       -4.0279671127       -7.1275630134  W2        1045            0.0000000000
      3135      1045  TIP3      H2            -23.6379596295       -4.6344771127       -6.2674330134  W2        1045            0.0000000000
      3136      1046  TIP3      OH2           -37.0753596295      -20.5886371127       -7.7333530134  W2        1046            0.0000000000
      3137      1046  TIP3      H1            -37.3043796295      -20.5293871127       -8.6608530134  W2        1046            0.0000000000
      3138      1046  TIP3      H2            -37.5180196295      -21.3800871127       -7.4269430134  W2        1046            0.0000000000
      3139      1047  TIP3      OH2           -38.1450296295       -6.6479271127      -11.5727730134  W2        1047            0.0000000000
      3140      1047  TIP3      H1            -38.9771696295       -6.1756571127      -11.5456330134  W2        1047            0.0000000000
      3141      1047  TIP3      H2            -37.5991996295       -6.1381671127      -12.1714630134  W2        1047            0.0000000000
      3142      1048  TIP3      OH2           -38.8566596295       -4.0355571127       -0.2429730134  W2        1048            0.0000000000
      3143      1048  TIP3      H1            -38.3164396295       -4.2521571127        0.5169469866  W2        1048            0.0000000000
      3144      1048  TIP3      H2            -39.3378596295       -4.8409571127       -0.4327230134  W2        1048            0.0000000000
      3145      1049  TIP3      OH2           -34.2593196295       -5.1161171127        1.3774469866  W2        1049            0.0000000000
      3146      1049  TIP3      H1            -33.4915996295       -5.5750371127        1.7183669866  W2        1049            0.0000000000
      3147      1049  TIP3      H2            -34.2806996295       -5.3421371127        0.4475669866  W2        1049            0.0000000000
      3148      1050  TIP3      OH2           -30.1673596295       -5.6080571127      -17.2473730134  W2        1050            0.0000000000
      3149      1050  TIP3      H1            -30.8112596295       -6.2391971127      -16.9260030134  W2        1050            0.0000000000
      3150      1050  TIP3      H2            -29.4055296295       -6.1392571127      -17.4790230134  W2        1050            0.0000000000
      3151      1051  TIP3      OH2           -27.6824496295       -6.7360071127        0.1065969866  W2        1051            0.0000000000
      3152      1051  TIP3      H1            -28.0334996295       -7.5927071127        0.3496369866  W2        1051            0.0000000000
      3153      1051  TIP3      H2            -26.9561296295       -6.5933371127        0.7134969866  W2        1051            0.0000000000
      3154      1052  TIP3      OH2           -25.5630696295       -5.7910671127      -17.0135730134  W2        1052            0.0000000000
      3155      1052  TIP3      H1            -25.2800296295       -6.5855471127      -16.5608830134  W2        1052            0.0000000000
      3156      1052  TIP3      H2            -24.8232796295       -5.5579671127      -17.5744630134  W2        1052            0.0000000000
      3157      1053  TIP3      OH2           -38.9497096295      -10.2251471127        0.7114569866  W2        1053            0.0000000000
      3158      1053  TIP3      H1            -38.8056596295      -11.1270771127        0.4251269866  W2        1053            0.0000000000
      3159      1053  TIP3      H2            -39.7219696295       -9.9389371127        0.2236869866  W2        1053            0.0000000000
      3160      1054  TIP3      OH2           -34.6083396295       -9.8815771127      -17.1560830134  W2        1054            0.0000000000
      3161      1054  TIP3      H1            -34.5439296295      -10.6756171127      -16.6254430134  W2        1054            0.0000000000
      3162      1054  TIP3      H2            -33.9554196295      -10.0002971127      -17.8458830134  W2        1054            0.0000000000
      3163      1055  TIP3      OH2           -32.2940996295      -10.2553371127        0.1440969866  W2        1055            0.0000000000
      3164      1055  TIP3      H1            -32.6227196295       -9.9845271127       -0.7131630134  W2        1055            0.0000000000
      3165      1055  TIP3      H2            -32.1422796295      -11.1963571127        0.0565969866  W2        1055            0.0000000000
      3166      1056  TIP3      OH2           -29.2559996295       -8.8344071127      -17.4202830134  W2        1056            0.0000000000
      3167      1056  TIP3      H1            -29.5245896295       -8.6541971127      -16.5193930134  W2        1056            0.0000000000
      3168      1056  TIP3      H2            -29.4624396295       -9.7597871127      -17.5517030134  W2        1056            0.0000000000
      3169      1057  TIP3      OH2           -26.5595796295      -10.3396071127       -2.4726730134  W2        1057            0.0000000000
      3170      1057  TIP3      H1            -25.8140996295       -9.7512371127       -2.5922730134  W2        1057            0.0000000000
      3171      1057  TIP3      H2            -27.3168996295       -9.7576371127       -2.4093630134  W2        1057            0.0000000000
      3172      1058  TIP3      OH2           -38.1170596295      -13.0248171127        0.1313869866  W2        1058            0.0000000000
      3173      1058  TIP3      H1            -37.7089396295      -13.8821571127        0.0104469866  W2        1058            0.0000000000
      3174      1058  TIP3      H2            -38.3772996295      -13.0106871127        1.0524169866  W2        1058            0.0000000000
      3175      1059  TIP3      OH2           -33.4589596295      -11.9089571127      -14.8502830134  W2        1059            0.0000000000
      3176      1059  TIP3      H1            -33.9187596295      -12.3931271127      -14.1644330134  W2        1059            0.0000000000
      3177      1059  TIP3      H2            -33.2040896295      -12.5774171127      -15.4862330134  W2        1059            0.0000000000
      3178      1060  TIP3      OH2           -34.1700296295      -14.0162471127       -2.4943230134  W2        1060            0.0000000000
      3179      1060  TIP3      H1            -34.7884196295      -13.3415871127       -2.2138530134  W2        1060            0.0000000000
      3180      1060  TIP3      H2            -33.8259096295      -13.6948571127       -3.3277030134  W2        1060            0.0000000000
      3181      1061  TIP3      OH2           -32.3879196295      -13.6657771127      -16.5879630134  W2        1061            0.0000000000
      3182      1061  TIP3      H1            -32.5684196295      -13.8206571127      -17.5151330134  W2        1061            0.0000000000
      3183      1061  TIP3      H2            -31.4378696295      -13.5579071127      -16.5431730134  W2        1061            0.0000000000
      3184      1062  TIP3      OH2           -29.1502096295      -11.5447171127        0.7831569866  W2        1062            0.0000000000
      3185      1062  TIP3      H1            -28.1970896295      -11.4608071127        0.7557569866  W2        1062            0.0000000000
      3186      1062  TIP3      H2            -29.3107496295      -12.2565371127        1.4026469866  W2        1062            0.0000000000
      3187      1063  TIP3      OH2           -22.9980896295      -11.3113571127      -17.1421530134  W2        1063            0.0000000000
      3188      1063  TIP3      H1            -23.2716096295      -11.7358071127      -17.9553230134  W2        1063            0.0000000000
      3189      1063  TIP3      H2            -22.9586796295      -10.3799071127      -17.3591130134  W2        1063            0.0000000000
      3190      1064  TIP3      OH2           -33.8306596295      -16.6611671127       -1.4120130134  W2        1064            0.0000000000
      3191      1064  TIP3      H1            -33.6805696295      -17.3900371127       -2.0140430134  W2        1064            0.0000000000
      3192      1064  TIP3      H2            -33.8284196295      -15.8839971127       -1.9707930134  W2        1064            0.0000000000
      3193      1065  TIP3      OH2           -33.4180896295      -18.2915871127       -3.9192730134  W2        1065            0.0000000000
      3194      1065  TIP3      H1            -32.8823396295      -17.8399171127       -4.5713430134  W2        1065            0.0000000000
      3195      1065  TIP3      H2            -34.2701296295      -18.3996071127       -4.3418630134  W2        1065            0.0000000000
      3196      1066  TIP3      OH2           -31.8362496295      -12.8519671127       -3.6797530134  W2        1066            0.0000000000
      3197      1066  TIP3      H1            -31.0857696295      -13.0082171127       -4.2529730134  W2        1066            0.0000000000
      3198      1066  TIP3      H2            -32.1754196295      -12.0003071127       -3.9552030134  W2        1066            0.0000000000
      3199      1067  TIP3      OH2           -27.4206296295      -15.0367871127        1.3487769866  W2        1067            0.0000000000
      3200      1067  TIP3      H1            -27.2284996295      -15.9678471127        1.2372269866  W2        1067            0.0000000000
      3201      1067  TIP3      H2            -26.5629996295      -14.6118371127        1.3383169866  W2        1067            0.0000000000
      3202      1068  TIP3      OH2           -26.1039096295      -12.2482671127       -0.5739530134  W2        1068            0.0000000000
      3203      1068  TIP3      H1            -26.3854096295      -11.5388071127       -1.1515730134  W2        1068            0.0000000000
      3204      1068  TIP3      H2            -25.1614796295      -12.3209671127       -0.7248330134  W2        1068            0.0000000000
      3205      1069  TIP3      OH2           -35.3520296295      -15.4628171127        0.4995469866  W2        1069            0.0000000000
      3206      1069  TIP3      H1            -36.1191296295      -15.9953371127        0.2893069866  W2        1069            0.0000000000
      3207      1069  TIP3      H2            -34.6731296295      -15.7727771127       -0.0998230134  W2        1069            0.0000000000
      3208      1070  TIP3      OH2           -32.6125396295      -20.8350171127       -3.4879130134  W2        1070            0.0000000000
      3209      1070  TIP3      H1            -32.7105796295      -19.8886971127       -3.5932930134  W2        1070            0.0000000000
      3210      1070  TIP3      H2            -33.3549196295      -21.2076371127       -3.9635630134  W2        1070            0.0000000000
      3211      1071  TIP3      OH2           -31.3484896295      -16.5134771127        0.0759269866  W2        1071            0.0000000000
      3212      1071  TIP3      H1            -31.5839496295      -16.7328071127        0.9774169866  W2        1071            0.0000000000
      3213      1071  TIP3      H2            -32.1317996295      -16.7203571127       -0.4338230134  W2        1071            0.0000000000
      3214      1072  TIP3      OH2           -28.6328296295      -17.3861271127       -0.8487230134  W2        1072            0.0000000000
      3215      1072  TIP3      H1            -29.5802896295      -17.3541571127       -0.7163930134  W2        1072            0.0000000000
      3216      1072  TIP3      H2            -28.3201596295      -18.0114171127       -0.1949030134  W2        1072            0.0000000000
      3217      1073  TIP3      OH2           -26.9986796295      -18.7520171127        1.1564669866  W2        1073            0.0000000000
      3218      1073  TIP3      H1            -27.0954996295      -19.7042871127        1.1506569866  W2        1073            0.0000000000
      3219      1073  TIP3      H2            -27.3203696295      -18.4833371127        2.0170169866  W2        1073            0.0000000000
      3220      1074  TIP3      OH2           -37.1717496295      -17.5424371127        0.2040169866  W2        1074            0.0000000000
      3221      1074  TIP3      H1            -36.9600096295      -18.2488271127       -0.4062330134  W2        1074            0.0000000000
      3222      1074  TIP3      H2            -37.2829996295      -17.9798371127        1.0481369866  W2        1074            0.0000000000
      3223      1075  TIP3      OH2           -32.3907296295      -21.5412771127       -0.8166330134  W2        1075            0.0000000000
      3224      1075  TIP3      H1            -31.6788896295      -22.1810571127       -0.8307230134  W2        1075            0.0000000000
      3225      1075  TIP3      H2            -32.4916896295      -21.2744471127       -1.7303230134  W2        1075            0.0000000000
      3226      1076  TIP3      OH2           -32.0369796295      -19.8584371127        1.2369969866  W2        1076            0.0000000000
      3227      1076  TIP3      H1            -32.1687596295      -20.3340571127        0.4168469866  W2        1076            0.0000000000
      3228      1076  TIP3      H2            -32.6362396295      -19.1140771127        1.1817069866  W2        1076            0.0000000000
      3229      1077  TIP3      OH2           -32.4907496295       -2.9754071127      -15.5866030134  W2        1077            0.0000000000
      3230      1077  TIP3      H1            -31.5576796295       -2.8175371127      -15.4427630134  W2        1077            0.0000000000
      3231      1077  TIP3      H2            -32.7548696295       -2.3001071127      -16.2114530134  W2        1077            0.0000000000
      3232      1078  TIP3      OH2           -38.9222596295       -8.3390271127      -16.1037930134  W2        1078            0.0000000000
      3233      1078  TIP3      H1            -38.0083396295       -8.2601371127      -15.8304030134  W2        1078            0.0000000000
      3234      1078  TIP3      H2            -38.9149496295       -9.0260671127      -16.7702330134  W2        1078            0.0000000000
      3235      1079  TIP3      OH2           -40.2731996295       -2.9461771127      -11.0264030134  W2        1079            0.0000000000
      3236      1079  TIP3      H1            -40.9204896295       -3.4080071127      -11.5592830134  W2        1079            0.0000000000
      3237      1079  TIP3      H2            -39.9187396295       -3.6178471127      -10.4437830134  W2        1079            0.0000000000
      3238      1080  TIP3      OH2           -39.4032796295       -4.8654771127       -9.2217830134  W2        1080            0.0000000000
      3239      1080  TIP3      H1            -39.7375996295       -5.7457471127       -9.0497630134  W2        1080            0.0000000000
      3240      1080  TIP3      H2            -39.1810396295       -4.5199771127       -8.3572230134  W2        1080            0.0000000000
      3241      1081  TIP3      OH2           -21.8547996295       -4.0558371127       -6.2413030134  W2        1081            0.0000000000
      3242      1081  TIP3      H1            -21.8761296295       -3.8709971127       -5.3023630134  W2        1081            0.0000000000
      3243      1081  TIP3      H2            -21.1641796295       -3.4874371127       -6.5821630134  W2        1081            0.0000000000
      3244      1082  TIP3      OH2           -22.2915096295       -4.4887271127       -3.3193930134  W2        1082            0.0000000000
      3245      1082  TIP3      H1            -22.7786396295       -5.2243171127       -3.6906530134  W2        1082            0.0000000000
      3246      1082  TIP3      H2            -21.7422396295       -4.8823371127       -2.6414530134  W2        1082            0.0000000000
      3247      1083  TIP3      OH2           -23.8407796295       -8.6989171127        1.3186369866  W2        1083            0.0000000000
      3248      1083  TIP3      H1            -24.7066696295       -8.8039471127        1.7128669866  W2        1083            0.0000000000
      3249      1083  TIP3      H2            -23.4641896295       -7.9405871127        1.7651069866  W2        1083            0.0000000000
      3250      1084  TIP3      OH2           -22.5398096295      -10.4425471127      -13.1671130134  W2        1084            0.0000000000
      3251      1084  TIP3      H1            -21.6896696295      -10.0214571127      -13.0399530134  W2        1084            0.0000000000
      3252      1084  TIP3      H2            -22.5342996295      -11.1825371127      -12.5599730134  W2        1084            0.0000000000
      3253      1085  TIP3      OH2           -22.1452496295      -12.3888071127      -11.3435430134  W2        1085            0.0000000000
      3254      1085  TIP3      H1            -22.8717896295      -12.8685471127      -10.9457830134  W2        1085            0.0000000000
      3255      1085  TIP3      H2            -21.5639196295      -12.1833371127      -10.6113830134  W2        1085            0.0000000000
      3256      1086  TIP3      OH2           -22.3861296295       -9.6040571127       -6.3957830134  W2        1086            0.0000000000
      3257      1086  TIP3      H1            -21.5527096295       -9.9820571127       -6.6764230134  W2        1086            0.0000000000
      3258      1086  TIP3      H2            -22.2740996295       -8.6609371127       -6.5148730134  W2        1086            0.0000000000
      3259      1087  TIP3      OH2           -23.8998996295       -6.7263071127       -4.0889430134  W2        1087            0.0000000000
      3260      1087  TIP3      H1            -24.5473696295       -6.4011571127       -3.4634230134  W2        1087            0.0000000000
      3261      1087  TIP3      H2            -24.4174996295       -7.1665371127       -4.7631130134  W2        1087            0.0000000000
      3262      1088  TIP3      OH2           -21.8769396295      -12.4879571127      -14.9524130134  W2        1088            0.0000000000
      3263      1088  TIP3      H1            -22.3988296295      -12.1315471127      -15.6713230134  W2        1088            0.0000000000
      3264      1088  TIP3      H2            -21.9100196295      -11.8131771127      -14.2743230134  W2        1088            0.0000000000
      3265      1089  TIP3      OH2           -23.5280396295      -15.2483971127      -16.4017030134  W2        1089            0.0000000000
      3266      1089  TIP3      H1            -23.4315996295      -14.5816971127      -17.0817330134  W2        1089            0.0000000000
      3267      1089  TIP3      H2            -23.6680796295      -16.0637671127      -16.8831530134  W2        1089            0.0000000000
      3268      1090  TIP3      OH2           -24.3585696295      -13.8681571127      -10.7806730134  W2        1090            0.0000000000
      3269      1090  TIP3      H1            -24.5086896295      -14.8132971127      -10.8008930134  W2        1090            0.0000000000
      3270      1090  TIP3      H2            -24.7121196295      -13.5870171127       -9.9367630134  W2        1090            0.0000000000
      3271      1091  TIP3      OH2           -39.3233296295      -11.7899371127       -6.7702930134  W2        1091            0.0000000000
      3272      1091  TIP3      H1            -39.1390396295      -11.8717671127       -7.7060030134  W2        1091            0.0000000000
      3273      1091  TIP3      H2            -38.4740396295      -11.9142371127       -6.3466530134  W2        1091            0.0000000000
      3274      1092  TIP3      OH2           -23.5022796295      -11.8978271127       -1.1418430134  W2        1092            0.0000000000
      3275      1092  TIP3      H1            -22.9195496295      -12.6325971127       -0.9501230134  W2        1092            0.0000000000
      3276      1092  TIP3      H2            -22.9383496295      -11.1257971127       -1.0952630134  W2        1092            0.0000000000
      3277      1093  TIP3      OH2           -22.0055696295      -13.9952471127       -0.4573030134  W2        1093            0.0000000000
      3278      1093  TIP3      H1            -22.8688996295      -14.3740371127       -0.6228330134  W2        1093            0.0000000000
      3279      1093  TIP3      H2            -21.4011996295      -14.7337671127       -0.5317230134  W2        1093            0.0000000000
      3280      1094  TIP3      OH2           -24.2806596295      -17.8404171127      -17.2841530134  W2        1094            0.0000000000
      3281      1094  TIP3      H1            -23.6700796295      -18.2117371127      -16.6473330134  W2        1094            0.0000000000
      3282      1094  TIP3      H2            -25.1175096295      -18.2617271127      -17.0881530134  W2        1094            0.0000000000
      3283      1095  TIP3      OH2           -24.6480896295      -16.2855771127      -12.3181630134  W2        1095            0.0000000000
      3284      1095  TIP3      H1            -24.3683796295      -17.1925371127      -12.1939930134  W2        1095            0.0000000000
      3285      1095  TIP3      H2            -23.8889196295      -15.8514271127      -12.7072430134  W2        1095            0.0000000000
      3286      1096  TIP3      OH2           -24.0362596295      -15.7038371127       -6.8822730134  W2        1096            0.0000000000
      3287      1096  TIP3      H1            -23.1034596295      -15.4918471127       -6.9166730134  W2        1096            0.0000000000
      3288      1096  TIP3      H2            -24.2715096295      -15.6026271127       -5.9599730134  W2        1096            0.0000000000
      3289      1097  TIP3      OH2           -24.0070696295      -14.9673071127       -4.1063330134  W2        1097            0.0000000000
      3290      1097  TIP3      H1            -24.8499396295      -14.6992671127       -3.7403530134  W2        1097            0.0000000000
      3291      1097  TIP3      H2            -23.5646396295      -14.1451171127       -4.3172230134  W2        1097            0.0000000000
      3292      1098  TIP3      OH2           -39.7258496295      -16.5194371127       -0.6294130134  W2        1098            0.0000000000
      3293      1098  TIP3      H1            -38.8063596295      -16.6416071127       -0.3931030134  W2        1098            0.0000000000
      3294      1098  TIP3      H2            -40.1753996295      -17.2694671127       -0.2400630134  W2        1098            0.0000000000
      3295      1099  TIP3      OH2           -21.7239096295      -20.9872871127        1.2471669866  W2        1099            0.0000000000
      3296      1099  TIP3      H1            -21.3742096295      -21.6409371127        0.6416369866  W2        1099            0.0000000000
      3297      1099  TIP3      H2            -21.5769596295      -20.1498771127        0.8074269866  W2        1099            0.0000000000
      3298      1100  TIP3      OH2           -24.0346096295      -19.0226471127      -12.2699630134  W2        1100            0.0000000000
      3299      1100  TIP3      H1            -23.8521096295      -19.4714971127      -11.4444630134  W2        1100            0.0000000000
      3300      1100  TIP3      H2            -24.6343196295      -19.6072071127      -12.7335030134  W2        1100            0.0000000000
      3301      1101  TIP3      OH2           -38.5045996295      -18.2072771127       -7.7381230134  W2        1101            0.0000000000
      3302      1101  TIP3      H1            -38.0594396295      -18.9990271127       -7.4361530134  W2        1101            0.0000000000
      3303      1101  TIP3      H2            -38.0382996295      -17.4907571127       -7.3075630134  W2        1101            0.0000000000
      3304      1102  TIP3      OH2           -40.2005696295      -15.2079771127       -6.6691030134  W2        1102            0.0000000000
      3305      1102  TIP3      H1            -39.7085896295      -15.4289271127       -7.4599030134  W2        1102            0.0000000000
      3306      1102  TIP3      H2            -39.8384796295      -14.3676371127       -6.3881530134  W2        1102            0.0000000000
      3307      1103  TIP3      OH2           -22.2041896295      -18.8778271127       -0.4037030134  W2        1103            0.0000000000
      3308      1103  TIP3      H1            -23.1216196295      -18.6071171127       -0.4393530134  W2        1103            0.0000000000
      3309      1103  TIP3      H2            -22.0812496295      -19.4129871127       -1.1877330134  W2        1103            0.0000000000
      3310      1104  TIP3      OH2           -22.1679896295      -18.9548371127      -15.7419330134  W2        1104            0.0000000000
      3311      1104  TIP3      H1            -21.7557296295      -19.6762671127      -16.2171330134  W2        1104            0.0000000000
      3312      1104  TIP3      H2            -21.4863396295      -18.2853771127      -15.6835030134  W2        1104            0.0000000000
      3313      1105  TIP3      OH2           -39.8869196295      -18.9500671127      -12.6148630134  W2        1105            0.0000000000
      3314      1105  TIP3      H1            -40.8120796295      -18.7414071127      -12.7443130134  W2        1105            0.0000000000
      3315      1105  TIP3      H2            -39.4329296295      -18.4659871127      -13.3046330134  W2        1105            0.0000000000
      3316      1106  TIP3      OH2           -25.1161996295       -3.9658971127      -10.6691230134  W2        1106            0.0000000000
      3317      1106  TIP3      H1            -24.4639096295       -4.3136871127      -11.2772130134  W2        1106            0.0000000000
      3318      1106  TIP3      H2            -24.6058196295       -3.4775771127      -10.0231530134  W2        1106            0.0000000000
      3319      1107  TIP3      OH2           -39.9233796295      -20.2121671127       -4.2706130134  W2        1107            0.0000000000
      3320      1107  TIP3      H1            -40.5883296295      -20.4581371127       -3.6275230134  W2        1107            0.0000000000
      3321      1107  TIP3      H2            -40.3662496295      -19.5901271127       -4.8478130134  W2        1107            0.0000000000
      3322      1108  TIP3      OH2           -37.7314496295       -7.0367571127       -0.1260330134  W2        1108            0.0000000000
      3323      1108  TIP3      H1            -38.5521996295       -6.8621071127       -0.5865630134  W2        1108            0.0000000000
      3324      1108  TIP3      H2            -37.9836696295       -7.1102871127        0.7944069866  W2        1108            0.0000000000
      3325      1109  TIP3      OH2           -34.7771596295       -6.0626371127       -3.8676330134  W2        1109            0.0000000000
      3326      1109  TIP3      H1            -35.2020496295       -5.2527871127       -4.1501730134  W2        1109            0.0000000000
      3327      1109  TIP3      H2            -33.8728796295       -5.9772271127       -4.1696530134  W2        1109            0.0000000000
      3328      1110  TIP3      OH2           -30.4660196295       -4.6636371127       -0.9082630134  W2        1110            0.0000000000
      3329      1110  TIP3      H1            -30.2812696295       -4.9970271127       -0.0302330134  W2        1110            0.0000000000
      3330      1110  TIP3      H2            -29.6195696295       -4.3537771127       -1.2303430134  W2        1110            0.0000000000
      3331      1111  TIP3      OH2           -28.1209796295       -3.3777471127       -1.6641230134  W2        1111            0.0000000000
      3332      1111  TIP3      H1            -27.4440896295       -4.0105171127       -1.9042030134  W2        1111            0.0000000000
      3333      1111  TIP3      H2            -27.7990996295       -2.9766971127       -0.8567930134  W2        1111            0.0000000000
      3334      1112  TIP3      OH2           -23.2035996295      -20.7881971127       -2.5846230134  W2        1112            0.0000000000
      3335      1112  TIP3      H1            -24.0162496295      -20.4631671127       -2.9721530134  W2        1112            0.0000000000
      3336      1112  TIP3      H2            -22.9707496295      -21.5483471127       -3.1177130134  W2        1112            0.0000000000
      3337      1113  TIP3      OH2           -37.3754896295       -2.8062471127       -3.8201030134  W2        1113            0.0000000000
      3338      1113  TIP3      H1            -38.0958496295       -2.3661471127       -4.2713330134  W2        1113            0.0000000000
      3339      1113  TIP3      H2            -37.7410896295       -3.0567771127       -2.9717030134  W2        1113            0.0000000000
      3340      1114  TIP3      OH2           -34.9082296295       -3.2058571127       -4.7903830134  W2        1114            0.0000000000
      3341      1114  TIP3      H1            -35.7730096295       -3.1340071127       -4.3863730134  W2        1114            0.0000000000
      3342      1114  TIP3      H2            -34.9633296295       -2.6591271127       -5.5741330134  W2        1114            0.0000000000
      3343      1115  TIP3      OH2           -30.1976696295       -3.3179671127       -5.6147830134  W2        1115            0.0000000000
      3344      1115  TIP3      H1            -30.6542696295       -2.7889971127       -6.2689430134  W2        1115            0.0000000000
      3345      1115  TIP3      H2            -30.0348696295       -2.7148271127       -4.8895530134  W2        1115            0.0000000000
      3346      1116  TIP3      OH2           -27.8700396295       -4.4400071127       -4.6697530134  W2        1116            0.0000000000
      3347      1116  TIP3      H1            -28.7746696295       -4.2749871127       -4.9355430134  W2        1116            0.0000000000
      3348      1116  TIP3      H2            -27.4411796295       -3.5867871127       -4.7354130134  W2        1116            0.0000000000
      3349      1117  TIP3      OH2           -25.2658496295       -2.8700971127       -4.3749730134  W2        1117            0.0000000000
      3350      1117  TIP3      H1            -25.4476496295       -1.9542071127       -4.5854830134  W2        1117            0.0000000000
      3351      1117  TIP3      H2            -25.0890696295       -3.2803871127       -5.2215130134  W2        1117            0.0000000000
      3352      1118  TIP3      OH2           -37.9606796295       -4.1829971127       -6.9099230134  W2        1118            0.0000000000
      3353      1118  TIP3      H1            -37.9790796295       -4.6084871127       -6.0526930134  W2        1118            0.0000000000
      3354      1118  TIP3      H2            -37.1558896295       -4.5014971127       -7.3187030134  W2        1118            0.0000000000
      3355      1119  TIP3      OH2           -35.8193696295       -5.4731271127       -8.2549330134  W2        1119            0.0000000000
      3356      1119  TIP3      H1            -36.0382996295       -6.3893871127       -8.0853330134  W2        1119            0.0000000000
      3357      1119  TIP3      H2            -34.9951496295       -5.3330871127       -7.7887930134  W2        1119            0.0000000000
      3358      1120  TIP3      OH2           -33.2821196295       -5.0031971127       -7.4061330134  W2        1120            0.0000000000
      3359      1120  TIP3      H1            -33.0695496295       -5.8912971127       -7.6930430134  W2        1120            0.0000000000
      3360      1120  TIP3      H2            -33.2176096295       -5.0374271127       -6.4517330134  W2        1120            0.0000000000
      3361      1121  TIP3      OH2           -29.7737496295      -19.3391371127       -8.2618030134  W2        1121            0.0000000000
      3362      1121  TIP3      H1            -30.4480696295      -19.9685771127       -8.0062230134  W2        1121            0.0000000000
      3363      1121  TIP3      H2            -29.2098296295      -19.8232471127       -8.8650130134  W2        1121            0.0000000000
      3364      1122  TIP3      OH2           -24.6310296295      -21.2317371127       -8.1490930134  W2        1122            0.0000000000
      3365      1122  TIP3      H1            -24.0272696295      -20.6841971127       -8.6509930134  W2        1122            0.0000000000
      3366      1122  TIP3      H2            -25.5008296295      -20.9126971127       -8.3896830134  W2        1122            0.0000000000
      3367      1123  TIP3      OH2           -22.9039896295      -20.0928671127       -9.8160030134  W2        1123            0.0000000000
      3368      1123  TIP3      H1            -22.2922396295      -20.6072971127      -10.3426430134  W2        1123            0.0000000000
      3369      1123  TIP3      H2            -22.5216496295      -19.2156571127       -9.7925630134  W2        1123            0.0000000000
      3370      1124  TIP3      OH2           -37.4469996295      -20.7051071127      -10.4398130134  W2        1124            0.0000000000
      3371      1124  TIP3      H1            -38.2240196295      -20.9396171127      -10.9472230134  W2        1124            0.0000000000
      3372      1124  TIP3      H2            -36.9166396295      -21.5018971127      -10.4310130134  W2        1124            0.0000000000
      3373      1125  TIP3      OH2           -38.6106596295      -20.9072971127      -14.6362030134  W2        1125            0.0000000000
      3374      1125  TIP3      H1            -38.1715896295      -20.2962471127      -15.2278530134  W2        1125            0.0000000000
      3375      1125  TIP3      H2            -39.2444196295      -20.3688871127      -14.1622030134  W2        1125            0.0000000000
      3376      1126  TIP3      OH2           -32.8677396295      -20.7783971127      -10.6265030134  W2        1126            0.0000000000
      3377      1126  TIP3      H1            -31.9933996295      -20.3899671127      -10.6560730134  W2        1126            0.0000000000
      3378      1126  TIP3      H2            -33.0036596295      -20.9936171127       -9.7037830134  W2        1126            0.0000000000
      3379      1127  TIP3      OH2           -27.3108996295      -20.7484171127       -8.9773330134  W2        1127            0.0000000000
      3380      1127  TIP3      H1            -27.2347396295      -20.6532571127       -9.9267330134  W2        1127            0.0000000000
      3381      1127  TIP3      H2            -27.5859796295      -21.6561271127       -8.8484230134  W2        1127            0.0000000000
      3382      1128  TIP3      OH2           -25.9576396295      -20.7226371127      -13.2848330134  W2        1128            0.0000000000
      3383      1128  TIP3      H1            -26.6605296295      -20.1077171127      -13.4946930134  W2        1128            0.0000000000
      3384      1128  TIP3      H2            -26.4024996295      -21.5599671127      -13.1537430134  W2        1128            0.0000000000
      3385      1129  TIP3      OH2           -38.7097096295       -4.9590771127      -13.7386930134  W2        1129            0.0000000000
      3386      1129  TIP3      H1            -39.3947196295       -4.9971871127      -14.4061830134  W2        1129            0.0000000000
      3387      1129  TIP3      H2            -38.7059896295       -4.0463171127      -13.4504830134  W2        1129            0.0000000000
      3388      1130  TIP3      OH2           -36.7497496295      -18.9911471127      -16.1937930134  W2        1130            0.0000000000
      3389      1130  TIP3      H1            -36.2584096295      -19.6209071127      -16.7212430134  W2        1130            0.0000000000
      3390      1130  TIP3      H2            -36.1261196295      -18.6952071127      -15.5306730134  W2        1130            0.0000000000
      3391      1131  TIP3      OH2           -31.7237396295      -18.6979971127      -13.7367430134  W2        1131            0.0000000000
      3392      1131  TIP3      H1            -31.5456096295      -19.3446771127      -13.0538830134  W2        1131            0.0000000000
      3393      1131  TIP3      H2            -31.7771196295      -17.8642271127      -13.2696330134  W2        1131            0.0000000000
      3394      1132  TIP3      OH2           -29.8453596295       -3.7495871127      -15.3410730134  W2        1132            0.0000000000
      3395      1132  TIP3      H1            -28.9793396295       -3.3828471127      -15.5192530134  W2        1132            0.0000000000
      3396      1132  TIP3      H2            -30.0920796295       -4.1887871127      -16.1549930134  W2        1132            0.0000000000
      3397      1133  TIP3      OH2           -23.1363996295       -4.1865571127      -12.6619630134  W2        1133            0.0000000000
      3398      1133  TIP3      H1            -23.3306896295       -4.9343471127      -13.2270030134  W2        1133            0.0000000000
      3399      1133  TIP3      H2            -23.1753896295       -3.4285471127      -13.2451730134  W2        1133            0.0000000000
      3400      1134  TIP3      OH2           -37.4891996295      -20.1909171127       -0.9221930134  W2        1134            0.0000000000
      3401      1134  TIP3      H1            -37.8553796295      -20.9566571127       -0.4797230134  W2        1134            0.0000000000
      3402      1134  TIP3      H2            -36.5763496295      -20.1618971127       -0.6356830134  W2        1134            0.0000000000
      3403      1135  TIP3      OH2           -35.5161196295      -20.8404771127        0.6135169866  W2        1135            0.0000000000
      3404      1135  TIP3      H1            -34.6177596295      -21.1144571127        0.4288569866  W2        1135            0.0000000000
      3405      1135  TIP3      H2            -35.9028096295      -21.5828771127        1.0777769866  W2        1135            0.0000000000
      3406      1136  TIP3      OH2           -36.8915896295       -4.0389971127      -16.7134830134  W2        1136            0.0000000000
      3407      1136  TIP3      H1            -37.1591296295       -3.7527071127      -15.8401730134  W2        1136            0.0000000000
      3408      1136  TIP3      H2            -36.1203296295       -4.5850771127      -16.5612330134  W2        1136            0.0000000000
      3409      1137  TIP3      OH2           -27.0948896295      -21.5079471127        0.7957969866  W2        1137            0.0000000000
      3410      1137  TIP3      H1            -27.0181696295      -21.9338771127        1.6495669866  W2        1137            0.0000000000
      3411      1137  TIP3      H2            -26.2012296295      -21.4944771127        0.4531469866  W2        1137            0.0000000000
      3412      1138  TIP3      OH2           -23.9187796295       -5.4353171127       -0.5117830134  W2        1138            0.0000000000
      3413      1138  TIP3      H1            -24.7005896295       -5.6215171127       -1.0317230134  W2        1138            0.0000000000
      3414      1138  TIP3      H2            -23.9907896295       -4.5058871127       -0.2945330134  W2        1138            0.0000000000
      3415      1139  TIP3      OH2            -9.5127396295      -11.5488771127      -10.4810630134  W2        1139            0.0000000000
      3416      1139  TIP3      H1             -9.4236296295      -10.6050571127      -10.6133530134  W2        1139            0.0000000000
      3417      1139  TIP3      H2            -10.1509796295      -11.8242371127      -11.1391230134  W2        1139            0.0000000000
      3418      1140  TIP3      OH2           -10.5796096295      -12.2938071127       -7.0622430134  W2        1140            0.0000000000
      3419      1140  TIP3      H1            -10.6178596295      -12.9401771127       -6.3572830134  W2        1140            0.0000000000
      3420      1140  TIP3      H2            -10.9019596295      -12.7603671127       -7.8333730134  W2        1140            0.0000000000
      3421      1141  TIP3      OH2           -18.2111096295      -12.6795971127       -5.4692530134  W2        1141            0.0000000000
      3422      1141  TIP3      H1            -18.1698996295      -13.3052671127       -4.7460130134  W2        1141            0.0000000000
      3423      1141  TIP3      H2            -17.5083396295      -12.0557371127       -5.2872130134  W2        1141            0.0000000000
      3424      1142  TIP3      OH2            -6.8735896295       -9.3547671127       -8.7607330134  W2        1142            0.0000000000
      3425      1142  TIP3      H1             -7.3143196295      -10.0751671127       -8.3101730134  W2        1142            0.0000000000
      3426      1142  TIP3      H2             -6.8866196295       -8.6340471127       -8.1309630134  W2        1142            0.0000000000
      3427      1143  TIP3      OH2           -17.2877996295       -8.2297071127       -6.9343430134  W2        1143            0.0000000000
      3428      1143  TIP3      H1            -17.6572796295       -9.0316571127       -7.3039130134  W2        1143            0.0000000000
      3429      1143  TIP3      H2            -16.3466896295       -8.3982171127       -6.8880030134  W2        1143            0.0000000000
      3430      1144  TIP3      OH2           -20.6777496295      -14.5694471127      -11.5414630134  W2        1144            0.0000000000
      3431      1144  TIP3      H1            -21.1254096295      -13.7235771127      -11.5598130134  W2        1144            0.0000000000
      3432      1144  TIP3      H2            -21.2386296295      -15.1490271127      -12.0569530134  W2        1144            0.0000000000
      3433      1145  TIP3      OH2           -19.9671396295      -12.4074871127       -9.4156630134  W2        1145            0.0000000000
      3434      1145  TIP3      H1            -19.7537896295      -13.1773271127       -8.8883630134  W2        1145            0.0000000000
      3435      1145  TIP3      H2            -19.2293796295      -12.3178171127      -10.0189030134  W2        1145            0.0000000000
      3436      1146  TIP3      OH2            -9.7620396295       -4.2505971127       -8.5486930134  W2        1146            0.0000000000
      3437      1146  TIP3      H1             -9.1423996295       -4.9271271127       -8.8217730134  W2        1146            0.0000000000
      3438      1146  TIP3      H2             -9.9702996295       -4.4685171127       -7.6402030134  W2        1146            0.0000000000
      3439      1147  TIP3      OH2           -12.1901696295       -9.8616671127       -6.6561430134  W2        1147            0.0000000000
      3440      1147  TIP3      H1            -11.8863796295      -10.5475271127       -7.2507330134  W2        1147            0.0000000000
      3441      1147  TIP3      H2            -11.4687696295       -9.7427971127       -6.0383430134  W2        1147            0.0000000000
      3442      1148  TIP3      OH2            -3.5271896295      -18.2601371127       -5.7955230134  W2        1148            0.0000000000
      3443      1148  TIP3      H1             -3.4779696295      -17.6500171127       -5.0596130134  W2        1148            0.0000000000
      3444      1148  TIP3      H2             -3.1016796295      -17.7990471127       -6.5184130134  W2        1148            0.0000000000
      3445      1149  TIP3      OH2            -9.0494696295      -15.4674271127       -6.3286630134  W2        1149            0.0000000000
      3446      1149  TIP3      H1             -8.9068796295      -16.4137271127       -6.3085030134  W2        1149            0.0000000000
      3447      1149  TIP3      H2             -9.1555696295      -15.2604471127       -7.2571730134  W2        1149            0.0000000000
      3448      1150  TIP3      OH2           -15.8946396295      -17.3657871127       -9.0561830134  W2        1150            0.0000000000
      3449      1150  TIP3      H1            -15.8515296295      -16.5059371127       -9.4745530134  W2        1150            0.0000000000
      3450      1150  TIP3      H2            -16.3522296295      -17.9183171127       -9.6898630134  W2        1150            0.0000000000
      3451      1151  TIP3      OH2            -8.1723696295      -17.2352271127      -10.6553530134  W2        1151            0.0000000000
      3452      1151  TIP3      H1             -7.5259396295      -17.5639071127      -10.0305930134  W2        1151            0.0000000000
      3453      1151  TIP3      H2             -7.6624296295      -16.7173271127      -11.2782130134  W2        1151            0.0000000000
      3454      1152  TIP3      OH2           -19.2744896295      -14.9692071127       -8.2940430134  W2        1152            0.0000000000
      3455      1152  TIP3      H1            -18.6208296295      -15.5190371127       -7.8620330134  W2        1152            0.0000000000
      3456      1152  TIP3      H2            -19.2505596295      -15.2433071127       -9.2108430134  W2        1152            0.0000000000
      3457      1153  TIP3      OH2           -14.1180396295      -13.4190771127       -9.0788930134  W2        1153            0.0000000000
      3458      1153  TIP3      H1            -13.5019396295      -13.9455371127       -8.5694930134  W2        1153            0.0000000000
      3459      1153  TIP3      H2            -14.7041596295      -14.0592071127       -9.4825330134  W2        1153            0.0000000000
      3460      1154  TIP3      OH2            -3.1357296295      -16.7822171127       -3.5595430134  W2        1154            0.0000000000
      3461      1154  TIP3      H1             -3.8242696295      -16.1241471127       -3.6548830134  W2        1154            0.0000000000
      3462      1154  TIP3      H2             -3.1202696295      -16.9794271127       -2.6230030134  W2        1154            0.0000000000
      3463      1155  TIP3      OH2           -17.0844496295      -18.4479471127       -4.9821030134  W2        1155            0.0000000000
      3464      1155  TIP3      H1            -17.3032796295      -17.9178871127       -5.7485030134  W2        1155            0.0000000000
      3465      1155  TIP3      H2            -17.7523596295      -18.2213971127       -4.3349630134  W2        1155            0.0000000000
      3466      1156  TIP3      OH2            -9.7154696295       -8.9478371127      -11.4381930134  W2        1156            0.0000000000
      3467      1156  TIP3      H1            -10.0109596295       -9.2706071127      -12.2895030134  W2        1156            0.0000000000
      3468      1156  TIP3      H2            -10.0396896295       -8.0481671127      -11.3969330134  W2        1156            0.0000000000
      3469      1157  TIP3      OH2           -14.5153096295      -10.7723771127       -4.6947330134  W2        1157            0.0000000000
      3470      1157  TIP3      H1            -15.2553996295      -10.1742271127       -4.5912130134  W2        1157            0.0000000000
      3471      1157  TIP3      H2            -13.8013596295      -10.2184171127       -5.0103730134  W2        1157            0.0000000000
      3472      1158  TIP3      OH2            -6.4085296295      -17.9442971127       -8.6747630134  W2        1158            0.0000000000
      3473      1158  TIP3      H1             -6.6237296295      -18.7099571127       -8.1421630134  W2        1158            0.0000000000
      3474      1158  TIP3      H2             -5.7527896295      -17.4718371127       -8.1619130134  W2        1158            0.0000000000
      3475      1159  TIP3      OH2           -17.4907196295      -16.5557671127       -7.0298830134  W2        1159            0.0000000000
      3476      1159  TIP3      H1            -16.8770896295      -15.9230071127       -6.6566430134  W2        1159            0.0000000000
      3477      1159  TIP3      H2            -16.9786496295      -17.0282671127       -7.6861930134  W2        1159            0.0000000000
      3478      1160  TIP3      OH2           -16.1078796295       -8.8080771127       -3.9075830134  W2        1160            0.0000000000
      3479      1160  TIP3      H1            -16.1131196295       -7.9287271127       -4.2856530134  W2        1160            0.0000000000
      3480      1160  TIP3      H2            -16.9614696295       -8.8916671127       -3.4825930134  W2        1160            0.0000000000
      3481      1161  TIP3      OH2           -19.9867896295       -9.1372871127      -13.1256530134  W2        1161            0.0000000000
      3482      1161  TIP3      H1            -20.2586996295       -8.9081871127      -14.0143630134  W2        1161            0.0000000000
      3483      1161  TIP3      H2            -19.9412196295       -8.2994071127      -12.6651230134  W2        1161            0.0000000000
      3484      1162  TIP3      OH2            -6.3618196295       -7.5156971127       -6.4128030134  W2        1162            0.0000000000
      3485      1162  TIP3      H1             -7.3034496295       -7.4573071127       -6.2511130134  W2        1162            0.0000000000
      3486      1162  TIP3      H2             -6.0852096295       -6.6096471127       -6.5498330134  W2        1162            0.0000000000
      3487      1163  TIP3      OH2            -6.0611196295      -19.2291671127       -4.9954130134  W2        1163            0.0000000000
      3488      1163  TIP3      H1             -6.7971996295      -18.6184571127       -5.0332830134  W2        1163            0.0000000000
      3489      1163  TIP3      H2             -5.3777196295      -18.8142671127       -5.5217730134  W2        1163            0.0000000000
      3490      1164  TIP3      OH2           -13.0579796295      -21.1424371127       -7.5296130134  W2        1164            0.0000000000
      3491      1164  TIP3      H1            -13.1755596295      -22.0908371127       -7.5837830134  W2        1164            0.0000000000
      3492      1164  TIP3      H2            -13.9129696295      -20.8098271127       -7.2565030134  W2        1164            0.0000000000
      3493      1165  TIP3      OH2            -8.1096996295       -5.7343471127       -9.7876430134  W2        1165            0.0000000000
      3494      1165  TIP3      H1             -7.6844696295       -6.4415571127      -10.2726830134  W2        1165            0.0000000000
      3495      1165  TIP3      H2             -7.7926996295       -4.9330771127      -10.2044230134  W2        1165            0.0000000000
      3496      1166  TIP3      OH2            -6.9500496295       -7.8334971127      -11.2789830134  W2        1166            0.0000000000
      3497      1166  TIP3      H1             -7.2075696295       -8.5234871127      -11.8903930134  W2        1166            0.0000000000
      3498      1166  TIP3      H2             -6.8789696295       -8.2763771127      -10.4333930134  W2        1166            0.0000000000
      3499      1167  TIP3      OH2            -5.2640296295       -9.2668271127       -2.8016330134  W2        1167            0.0000000000
      3500      1167  TIP3      H1             -5.1243996295       -9.8585771127       -3.5409330134  W2        1167            0.0000000000
      3501      1167  TIP3      H2             -5.0967496295       -8.3942371127       -3.1577530134  W2        1167            0.0000000000
      3502      1168  TIP3      OH2           -10.7914896295      -12.3048771127      -13.0290330134  W2        1168            0.0000000000
      3503      1168  TIP3      H1            -11.5029396295      -11.7699071127      -13.3809830134  W2        1168            0.0000000000
      3504      1168  TIP3      H2            -10.1005296295      -12.2496671127      -13.6891430134  W2        1168            0.0000000000
      3505      1169  TIP3      OH2           -10.7375696295      -13.8474471127      -15.9905330134  W2        1169            0.0000000000
      3506      1169  TIP3      H1            -10.0365796295      -13.8247571127      -15.3391330134  W2        1169            0.0000000000
      3507      1169  TIP3      H2            -10.4352796295      -14.4754771127      -16.6466030134  W2        1169            0.0000000000
      3508      1170  TIP3      OH2            -3.4220996295      -12.9270271127       -4.7355930134  W2        1170            0.0000000000
      3509      1170  TIP3      H1             -4.0746896295      -12.2324671127       -4.6465030134  W2        1170            0.0000000000
      3510      1170  TIP3      H2             -2.9570696295      -12.7169371127       -5.5454330134  W2        1170            0.0000000000
      3511      1171  TIP3      OH2            -7.3857196295      -12.0955471127      -12.0774430134  W2        1171            0.0000000000
      3512      1171  TIP3      H1             -8.1176196295      -11.8671771127      -11.5043830134  W2        1171            0.0000000000
      3513      1171  TIP3      H2             -6.9384996295      -12.8092771127      -11.6226930134  W2        1171            0.0000000000
      3514      1172  TIP3      OH2            -7.4883696295      -13.9212871127       -3.0097430134  W2        1172            0.0000000000
      3515      1172  TIP3      H1             -7.4084596295      -13.1578471127       -2.4378930134  W2        1172            0.0000000000
      3516      1172  TIP3      H2             -8.0895996295      -13.6420471127       -3.7002330134  W2        1172            0.0000000000
      3517      1173  TIP3      OH2           -15.7403496295      -11.4649271127      -10.1949430134  W2        1173            0.0000000000
      3518      1173  TIP3      H1            -16.0708296295      -11.8355871127      -11.0132430134  W2        1173            0.0000000000
      3519      1173  TIP3      H2            -15.1519396295      -12.1355271127       -9.8481130134  W2        1173            0.0000000000
      3520      1174  TIP3      OH2           -14.3735996295       -8.0368671127       -7.5137230134  W2        1174            0.0000000000
      3521      1174  TIP3      H1            -14.4684696295       -8.6155571127       -8.2702630134  W2        1174            0.0000000000
      3522      1174  TIP3      H2            -13.6442396295       -8.4082971127       -7.0174430134  W2        1174            0.0000000000
      3523      1175  TIP3      OH2           -15.3737996295      -12.6963671127       -6.5614430134  W2        1175            0.0000000000
      3524      1175  TIP3      H1            -14.8085496295      -12.5749471127       -7.3243230134  W2        1175            0.0000000000
      3525      1175  TIP3      H2            -15.0549096295      -12.0588671127       -5.9225930134  W2        1175            0.0000000000
      3526      1176  TIP3      OH2            -9.0645796295       -7.1931771127       -5.8273930134  W2        1176            0.0000000000
      3527      1176  TIP3      H1             -9.3049196295       -6.5308671127       -5.1794730134  W2        1176            0.0000000000
      3528      1176  TIP3      H2             -9.2627596295       -8.0276571127       -5.4024330134  W2        1176            0.0000000000
      3529      1177  TIP3      OH2           -14.4937296295       -8.2970971127       -1.8442530134  W2        1177            0.0000000000
      3530      1177  TIP3      H1            -14.8049796295       -7.5147771127       -1.3889330134  W2        1177            0.0000000000
      3531      1177  TIP3      H2            -15.1437096295       -8.4501871127       -2.5300530134  W2        1177            0.0000000000
      3532      1178  TIP3      OH2            -8.5147696295      -12.9332571127      -14.3923230134  W2        1178            0.0000000000
      3533      1178  TIP3      H1             -7.9352196295      -12.7832271127      -13.6454330134  W2        1178            0.0000000000
      3534      1178  TIP3      H2             -8.1007696295      -12.4625171127      -15.1156830134  W2        1178            0.0000000000
      3535      1179  TIP3      OH2           -17.5737396295      -12.0989871127       -2.6156830134  W2        1179            0.0000000000
      3536      1179  TIP3      H1            -17.5034196295      -11.4483071127       -1.9171830134  W2        1179            0.0000000000
      3537      1179  TIP3      H2            -18.4645196295      -11.9962371127       -2.9505930134  W2        1179            0.0000000000
      3538      1180  TIP3      OH2           -10.7882796295       -6.1964071127      -10.9570130134  W2        1180            0.0000000000
      3539      1180  TIP3      H1            -10.3145196295       -5.9007771127      -10.1795930134  W2        1180            0.0000000000
      3540      1180  TIP3      H2            -11.3513496295       -5.4582471127      -11.1900530134  W2        1180            0.0000000000
      3541      1181  TIP3      OH2           -16.2541396295       -6.2255971127       -1.0808730134  W2        1181            0.0000000000
      3542      1181  TIP3      H1            -16.2466096295       -6.3616271127       -2.0283230134  W2        1181            0.0000000000
      3543      1181  TIP3      H2            -17.1700996295       -6.3427871127       -0.8288730134  W2        1181            0.0000000000
      3544      1182  TIP3      OH2            -4.8159296295      -21.1832171127      -14.5793530134  W2        1182            0.0000000000
      3545      1182  TIP3      H1             -5.7158596295      -21.0443171127      -14.2842930134  W2        1182            0.0000000000
      3546      1182  TIP3      H2             -4.5640896295      -20.3517571127      -14.9811830134  W2        1182            0.0000000000
      3547      1183  TIP3      OH2           -16.7500796295      -12.3954971127      -12.6056630134  W2        1183            0.0000000000
      3548      1183  TIP3      H1            -17.0419496295      -11.6273271127      -13.0965330134  W2        1183            0.0000000000
      3549      1183  TIP3      H2            -17.4245596295      -13.0548771127      -12.7685230134  W2        1183            0.0000000000
      3550      1184  TIP3      OH2            -3.6267896295       -6.8169771127      -16.2029630134  W2        1184            0.0000000000
      3551      1184  TIP3      H1             -3.5534396295       -5.8779571127      -16.0324330134  W2        1184            0.0000000000
      3552      1184  TIP3      H2             -2.7212796295       -7.1221171127      -16.2592330134  W2        1184            0.0000000000
      3553      1185  TIP3      OH2           -20.6570696295      -10.0325771127       -3.7906830134  W2        1185            0.0000000000
      3554      1185  TIP3      H1            -21.1582296295      -10.0606371127       -4.6057130134  W2        1185            0.0000000000
      3555      1185  TIP3      H2            -20.6516996295      -10.9382571127       -3.4809530134  W2        1185            0.0000000000
      3556      1186  TIP3      OH2           -20.9067996295       -7.2521971127       -6.9066630134  W2        1186            0.0000000000
      3557      1186  TIP3      H1            -19.9607396295       -7.3964971127       -6.9257130134  W2        1186            0.0000000000
      3558      1186  TIP3      H2            -21.0191696295       -6.4679171127       -6.3695430134  W2        1186            0.0000000000
      3559      1187  TIP3      OH2            -2.7089496295       -6.5862271127       -1.2242930134  W2        1187            0.0000000000
      3560      1187  TIP3      H1             -2.7582696295       -7.5414171127       -1.2615330134  W2        1187            0.0000000000
      3561      1187  TIP3      H2             -3.5357196295       -6.3186971127       -0.8229130134  W2        1187            0.0000000000
      3562      1188  TIP3      OH2           -11.7305496295       -7.0123071127       -2.3481530134  W2        1188            0.0000000000
      3563      1188  TIP3      H1            -11.6430896295       -6.1858471127       -1.8732430134  W2        1188            0.0000000000
      3564      1188  TIP3      H2            -12.5940396295       -7.3419271127       -2.0992230134  W2        1188            0.0000000000
      3565      1189  TIP3      OH2           -11.3159696295       -3.2399371127      -12.5420930134  W2        1189            0.0000000000
      3566      1189  TIP3      H1            -11.3913696295       -3.3612171127      -13.4885730134  W2        1189            0.0000000000
      3567      1189  TIP3      H2            -11.2830996295       -2.2906671127      -12.4236330134  W2        1189            0.0000000000
      3568      1190  TIP3      OH2           -17.6625896295       -4.4512371127      -10.7611930134  W2        1190            0.0000000000
      3569      1190  TIP3      H1            -17.5105496295       -4.7991971127       -9.8825430134  W2        1190            0.0000000000
      3570      1190  TIP3      H2            -18.5135496295       -4.8075071127      -11.0164730134  W2        1190            0.0000000000
      3571      1191  TIP3      OH2            -8.2143696295       -4.0859171127      -15.5398530134  W2        1191            0.0000000000
      3572      1191  TIP3      H1             -7.8395296295       -4.8303071127      -16.0105930134  W2        1191            0.0000000000
      3573      1191  TIP3      H2             -8.2099996295       -4.3558571127      -14.6215230134  W2        1191            0.0000000000
      3574      1192  TIP3      OH2            -8.5455596295       -4.1602071127      -12.7906330134  W2        1192            0.0000000000
      3575      1192  TIP3      H1             -9.4805796295       -4.0600171127      -12.6119330134  W2        1192            0.0000000000
      3576      1192  TIP3      H2             -8.2653696295       -4.8696071127      -12.2123130134  W2        1192            0.0000000000
      3577      1193  TIP3      OH2            -5.5569696295      -15.0929771127       -0.7440730134  W2        1193            0.0000000000
      3578      1193  TIP3      H1             -5.9642896295      -14.6124171127       -1.4647430134  W2        1193            0.0000000000
      3579      1193  TIP3      H2             -5.5163996295      -15.9983771127       -1.0519930134  W2        1193            0.0000000000
      3580      1194  TIP3      OH2           -18.4080196295       -8.7090371127       -2.7474030134  W2        1194            0.0000000000
      3581      1194  TIP3      H1            -18.1918896295       -9.0704771127       -1.8878230134  W2        1194            0.0000000000
      3582      1194  TIP3      H2            -19.2635496295       -9.0836571127       -2.9570530134  W2        1194            0.0000000000
      3583      1195  TIP3      OH2           -15.7892196295      -20.2389871127       -6.7519830134  W2        1195            0.0000000000
      3584      1195  TIP3      H1            -16.6508496295      -20.3261671127       -7.1596930134  W2        1195            0.0000000000
      3585      1195  TIP3      H2            -15.8116496295      -19.3829771127       -6.3242230134  W2        1195            0.0000000000
      3586      1196  TIP3      OH2           -11.1264396295      -20.5169471127       -3.3772830134  W2        1196            0.0000000000
      3587      1196  TIP3      H1            -10.7061296295      -20.9322371127       -2.6242230134  W2        1196            0.0000000000
      3588      1196  TIP3      H2            -12.0594796295      -20.6956171127       -3.2600830134  W2        1196            0.0000000000
      3589      1197  TIP3      OH2            -7.7999496295      -16.7614271127       -2.5238330134  W2        1197            0.0000000000
      3590      1197  TIP3      H1             -8.3139996295      -16.8872071127       -1.7262330134  W2        1197            0.0000000000
      3591      1197  TIP3      H2             -7.9554796295      -15.8491171127       -2.7682130134  W2        1197            0.0000000000
      3592      1198  TIP3      OH2            -7.0374596295      -11.9004271127      -16.7625330134  W2        1198            0.0000000000
      3593      1198  TIP3      H1             -6.9953796295      -12.1230371127      -17.6925330134  W2        1198            0.0000000000
      3594      1198  TIP3      H2             -6.1882496295      -11.5017171127      -16.5725430134  W2        1198            0.0000000000
      3595      1199  TIP3      OH2           -11.4647096295      -18.0246071127      -16.0922030134  W2        1199            0.0000000000
      3596      1199  TIP3      H1            -11.7182296295      -18.0054471127      -15.1693930134  W2        1199            0.0000000000
      3597      1199  TIP3      H2            -11.7214996295      -18.8960671127      -16.3935830134  W2        1199            0.0000000000
      3598      1200  TIP3      OH2           -15.6982096295      -15.2735371127       -5.6569630134  W2        1200            0.0000000000
      3599      1200  TIP3      H1            -16.3399996295      -15.3138071127       -4.9479530134  W2        1200            0.0000000000
      3600      1200  TIP3      H2            -15.6610096295      -14.3470671127       -5.8946630134  W2        1200            0.0000000000
      3601      1201  TIP3      OH2           -15.7012996295      -15.0525271127      -10.7449630134  W2        1201            0.0000000000
      3602      1201  TIP3      H1            -16.5940096295      -15.3929171127      -10.8035830134  W2        1201            0.0000000000
      3603      1201  TIP3      H2            -15.2506396295      -15.4294371127      -11.5006430134  W2        1201            0.0000000000
      3604      1202  TIP3      OH2           -10.1657496295      -14.6364971127      -11.9278830134  W2        1202            0.0000000000
      3605      1202  TIP3      H1            -10.5747196295      -13.8216371127      -12.2194030134  W2        1202            0.0000000000
      3606      1202  TIP3      H2             -9.4451296295      -14.7764871127      -12.5421730134  W2        1202            0.0000000000
      3607      1203  TIP3      OH2           -11.0635896295      -14.4608571127       -0.4398130134  W2        1203            0.0000000000
      3608      1203  TIP3      H1            -11.6262096295      -15.1656971127       -0.1190330134  W2        1203            0.0000000000
      3609      1203  TIP3      H2            -10.2372496295      -14.5816671127        0.0279469866  W2        1203            0.0000000000
      3610      1204  TIP3      OH2            -9.1609796295      -15.1904571127       -9.1139130134  W2        1204            0.0000000000
      3611      1204  TIP3      H1             -9.3565296295      -14.5847771127       -9.8288530134  W2        1204            0.0000000000
      3612      1204  TIP3      H2             -8.9797196295      -16.0239371127       -9.5482830134  W2        1204            0.0000000000
      3613      1205  TIP3      OH2           -17.9481596295      -14.9531871127       -3.7897630134  W2        1205            0.0000000000
      3614      1205  TIP3      H1            -17.9862196295      -14.5530271127       -2.9210530134  W2        1205            0.0000000000
      3615      1205  TIP3      H2            -18.4390496295      -15.7699471127       -3.6994730134  W2        1205            0.0000000000
      3616      1206  TIP3      OH2           -14.5824196295      -17.5789571127      -16.9911630134  W2        1206            0.0000000000
      3617      1206  TIP3      H1            -15.0133496295      -18.0239471127      -16.2614230134  W2        1206            0.0000000000
      3618      1206  TIP3      H2            -15.3005496295      -17.2073271127      -17.5034130134  W2        1206            0.0000000000
      3619      1207  TIP3      OH2           -21.3400796295      -17.8370071127       -9.9392930134  W2        1207            0.0000000000
      3620      1207  TIP3      H1            -20.7093096295      -17.8657971127       -9.2199030134  W2        1207            0.0000000000
      3621      1207  TIP3      H2            -20.8906496295      -18.2621371127      -10.6697030134  W2        1207            0.0000000000
      3622      1208  TIP3      OH2           -20.0658696295      -17.0908071127      -14.5152530134  W2        1208            0.0000000000
      3623      1208  TIP3      H1            -19.5916996295      -16.4998171127      -15.1001630134  W2        1208            0.0000000000
      3624      1208  TIP3      H2            -20.7832296295      -16.5605171127      -14.1682430134  W2        1208            0.0000000000
      3625      1209  TIP3      OH2            -9.8970596295      -13.5523271127       -4.4426730134  W2        1209            0.0000000000
      3626      1209  TIP3      H1             -9.5735796295      -14.1833571127       -5.0856230134  W2        1209            0.0000000000
      3627      1209  TIP3      H2            -10.3371296295      -14.0871071127       -3.7819330134  W2        1209            0.0000000000
      3628      1210  TIP3      OH2           -13.1197696295      -17.6247771127       -9.6585530134  W2        1210            0.0000000000
      3629      1210  TIP3      H1            -14.0306596295      -17.5680971127       -9.3699530134  W2        1210            0.0000000000
      3630      1210  TIP3      H2            -12.6144796295      -17.6852271127       -8.8478330134  W2        1210            0.0000000000
      3631      1211  TIP3      OH2           -18.2914296295      -15.9961471127      -10.8317930134  W2        1211            0.0000000000
      3632      1211  TIP3      H1            -19.1806296295      -15.8965971127      -11.1718330134  W2        1211            0.0000000000
      3633      1211  TIP3      H2            -17.9949396295      -16.8378471127      -11.1780030134  W2        1211            0.0000000000
      3634      1212  TIP3      OH2           -14.6382496295      -15.9958871127      -13.1753330134  W2        1212            0.0000000000
      3635      1212  TIP3      H1            -13.7066996295      -15.8668871127      -12.9970230134  W2        1212            0.0000000000
      3636      1212  TIP3      H2            -14.8532196295      -15.3264571127      -13.8248630134  W2        1212            0.0000000000
      3637      1213  TIP3      OH2            -8.7145796295      -18.3901471127       -6.3943730134  W2        1213            0.0000000000
      3638      1213  TIP3      H1             -9.3914196295      -18.2588371127       -5.7304030134  W2        1213            0.0000000000
      3639      1213  TIP3      H2             -9.2000896295      -18.5451971127       -7.2046030134  W2        1213            0.0000000000
      3640      1214  TIP3      OH2           -15.9642296295      -14.8016671127      -15.6087230134  W2        1214            0.0000000000
      3641      1214  TIP3      H1            -16.5067196295      -15.1812871127      -16.2999630134  W2        1214            0.0000000000
      3642      1214  TIP3      H2            -15.1307396295      -14.6071971127      -16.0373130134  W2        1214            0.0000000000
      3643      1215  TIP3      OH2            -5.4270696295       -2.7186071127       -0.1176130134  W2        1215            0.0000000000
      3644      1215  TIP3      H1             -5.2271996295       -2.2944171127       -0.9520830134  W2        1215            0.0000000000
      3645      1215  TIP3      H2             -4.7716996295       -2.3747871127        0.4894269866  W2        1215            0.0000000000
      3646      1216  TIP3      OH2           -17.8290896295      -10.2444771127       -0.5095630134  W2        1216            0.0000000000
      3647      1216  TIP3      H1            -17.0968496295       -9.9898871127        0.0518869866  W2        1216            0.0000000000
      3648      1216  TIP3      H2            -18.6092196295      -10.0399371127        0.0059769866  W2        1216            0.0000000000
      3649      1217  TIP3      OH2           -11.7997996295      -14.8374771127       -7.7715930134  W2        1217            0.0000000000
      3650      1217  TIP3      H1            -11.2354596295      -15.3838171127       -8.3186330134  W2        1217            0.0000000000
      3651      1217  TIP3      H2            -11.9474596295      -15.3592871127       -6.9828330134  W2        1217            0.0000000000
      3652      1218  TIP3      OH2           -16.7978296295      -18.7008671127      -11.3531130134  W2        1218            0.0000000000
      3653      1218  TIP3      H1            -17.1148796295      -19.6033371127      -11.3885730134  W2        1218            0.0000000000
      3654      1218  TIP3      H2            -16.0164196295      -18.6991271127      -11.9059530134  W2        1218            0.0000000000
      3655      1219  TIP3      OH2           -13.1732096295      -16.4488671127       -5.3575530134  W2        1219            0.0000000000
      3656      1219  TIP3      H1            -14.0086796295      -15.9949171127       -5.2473130134  W2        1219            0.0000000000
      3657      1219  TIP3      H2            -12.6491496295      -16.1730171127       -4.6055630134  W2        1219            0.0000000000
      3658      1220  TIP3      OH2           -12.6289496295      -10.2360971127      -13.6729130134  W2        1220            0.0000000000
      3659      1220  TIP3      H1            -13.3738496295      -10.7435671127      -13.9951230134  W2        1220            0.0000000000
      3660      1220  TIP3      H2            -12.7632296295      -10.1872971127      -12.7264330134  W2        1220            0.0000000000
      3661      1221  TIP3      OH2            -5.4790596295      -11.1032771127       -4.8861530134  W2        1221            0.0000000000
      3662      1221  TIP3      H1             -4.8371796295      -10.6466471127       -5.4299330134  W2        1221            0.0000000000
      3663      1221  TIP3      H2             -6.3093696295      -10.9900371127       -5.3487430134  W2        1221            0.0000000000
      3664      1222  TIP3      OH2            -8.7312696295      -17.4221071127      -15.4736530134  W2        1222            0.0000000000
      3665      1222  TIP3      H1             -9.6698496295      -17.3105471127      -15.6247730134  W2        1222            0.0000000000
      3666      1222  TIP3      H2             -8.4340596295      -16.5654171127      -15.1670830134  W2        1222            0.0000000000
      3667      1223  TIP3      OH2           -11.1097396295      -10.0517671127       -2.4360030134  W2        1223            0.0000000000
      3668      1223  TIP3      H1            -11.4551296295      -10.4335271127       -1.6290430134  W2        1223            0.0000000000
      3669      1223  TIP3      H2            -11.3097296295       -9.1184071127       -2.3647130134  W2        1223            0.0000000000
      3670      1224  TIP3      OH2            -8.0129196295      -15.5548371127      -13.8129130134  W2        1224            0.0000000000
      3671      1224  TIP3      H1             -7.1210196295      -15.6923371127      -13.4937930134  W2        1224            0.0000000000
      3672      1224  TIP3      H2             -7.9565596295      -14.7642271127      -14.3495630134  W2        1224            0.0000000000
      3673      1225  TIP3      OH2           -17.5041196295      -10.9410971127       -7.9031230134  W2        1225            0.0000000000
      3674      1225  TIP3      H1            -16.7593996295      -10.9435271127       -8.5044730134  W2        1225            0.0000000000
      3675      1225  TIP3      H2            -17.4264596295      -11.7647171127       -7.4216130134  W2        1225            0.0000000000
      3676      1226  TIP3      OH2           -10.5035396295       -8.7776671127      -14.6474530134  W2        1226            0.0000000000
      3677      1226  TIP3      H1            -10.7986996295       -7.9508771127      -14.2659730134  W2        1226            0.0000000000
      3678      1226  TIP3      H2            -11.2065396295       -9.3969771127      -14.4513130134  W2        1226            0.0000000000
      3679      1227  TIP3      OH2           -20.4961496295      -12.4804071127       -2.5882730134  W2        1227            0.0000000000
      3680      1227  TIP3      H1            -20.2732896295      -12.8984471127       -1.7565230134  W2        1227            0.0000000000
      3681      1227  TIP3      H2            -21.0981396295      -13.0929071127       -3.0109930134  W2        1227            0.0000000000
      3682      1228  TIP3      OH2           -13.4796596295      -12.9634171127       -0.3753030134  W2        1228            0.0000000000
      3683      1228  TIP3      H1            -13.7755796295      -13.1291171127       -1.2703930134  W2        1228            0.0000000000
      3684      1228  TIP3      H2            -12.5481396295      -13.1833871127       -0.3859130134  W2        1228            0.0000000000
      3685      1229  TIP3      OH2            -8.8593796295       -7.5902171127       -2.4855030134  W2        1229            0.0000000000
      3686      1229  TIP3      H1             -9.7599496295       -7.4069571127       -2.7531130134  W2        1229            0.0000000000
      3687      1229  TIP3      H2             -8.8252696295       -7.3312871127       -1.5646230134  W2        1229            0.0000000000
      3688      1230  TIP3      OH2            -3.1280496295      -15.3454271127      -14.1182430134  W2        1230            0.0000000000
      3689      1230  TIP3      H1             -3.6824196295      -15.7416271127      -14.7904930134  W2        1230            0.0000000000
      3690      1230  TIP3      H2             -3.0276896295      -14.4349071127      -14.3959130134  W2        1230            0.0000000000
      3691      1231  TIP3      OH2            -3.1648496295       -9.5452571127       -1.2810930134  W2        1231            0.0000000000
      3692      1231  TIP3      H1             -4.0159996295       -9.3068771127       -1.6484530134  W2        1231            0.0000000000
      3693      1231  TIP3      H2             -2.5745096295       -9.5619371127       -2.0343830134  W2        1231            0.0000000000
      3694      1232  TIP3      OH2            -4.8328796295       -6.5593871127      -13.6530330134  W2        1232            0.0000000000
      3695      1232  TIP3      H1             -5.2057696295       -7.3850071127      -13.3439730134  W2        1232            0.0000000000
      3696      1232  TIP3      H2             -4.5555296295       -6.7424471127      -14.5506930134  W2        1232            0.0000000000
      3697      1233  TIP3      OH2            -7.6724896295      -11.7514371127       -6.6318430134  W2        1233            0.0000000000
      3698      1233  TIP3      H1             -8.6007996295      -11.9832471127       -6.6589130134  W2        1233            0.0000000000
      3699      1233  TIP3      H2             -7.2213796295      -12.5284571127       -6.9619630134  W2        1233            0.0000000000
      3700      1234  TIP3      OH2           -15.1291796295       -7.4232771127      -10.4989730134  W2        1234            0.0000000000
      3701      1234  TIP3      H1            -14.6019596295       -6.6498371127      -10.6990930134  W2        1234            0.0000000000
      3702      1234  TIP3      H2            -16.0093296295       -7.1983571127      -10.8005730134  W2        1234            0.0000000000
      3703      1235  TIP3      OH2           -19.3744096295      -12.5608671127      -15.9117330134  W2        1235            0.0000000000
      3704      1235  TIP3      H1            -18.7584196295      -11.9341471127      -15.5322530134  W2        1235            0.0000000000
      3705      1235  TIP3      H2            -20.2361496295      -12.2448871127      -15.6400830134  W2        1235            0.0000000000
      3706      1236  TIP3      OH2           -13.7019496295       -9.7602871127      -10.9225430134  W2        1236            0.0000000000
      3707      1236  TIP3      H1            -13.9429496295       -8.8348471127      -10.8810130134  W2        1236            0.0000000000
      3708      1236  TIP3      H2            -14.4425896295      -10.2191571127      -10.5261530134  W2        1236            0.0000000000
      3709      1237  TIP3      OH2           -13.1872896295       -5.6109271127       -4.6074330134  W2        1237            0.0000000000
      3710      1237  TIP3      H1            -12.8248196295       -4.7563671127       -4.8409930134  W2        1237            0.0000000000
      3711      1237  TIP3      H2            -12.6557696295       -5.9027671127       -3.8668030134  W2        1237            0.0000000000
      3712      1238  TIP3      OH2           -15.0188696295       -4.7385271127      -11.3773230134  W2        1238            0.0000000000
      3713      1238  TIP3      H1            -15.9688196295       -4.6327871127      -11.3259930134  W2        1238            0.0000000000
      3714      1238  TIP3      H2            -14.6670596295       -3.9177871127      -11.0325730134  W2        1238            0.0000000000
      3715      1239  TIP3      OH2            -9.6432096295       -9.5118571127       -4.9068730134  W2        1239            0.0000000000
      3716      1239  TIP3      H1            -10.0690796295       -9.7396871127       -4.0804730134  W2        1239            0.0000000000
      3717      1239  TIP3      H2             -9.0626296295      -10.2506771127       -5.0893430134  W2        1239            0.0000000000
      3718      1240  TIP3      OH2            -7.4403196295       -8.5828071127      -15.8329730134  W2        1240            0.0000000000
      3719      1240  TIP3      H1             -7.0870096295       -8.9628271127      -15.0286230134  W2        1240            0.0000000000
      3720      1240  TIP3      H2             -8.3889696295       -8.6763271127      -15.7460430134  W2        1240            0.0000000000
      3721      1241  TIP3      OH2            -6.9847896295       -4.9599071127       -2.4373930134  W2        1241            0.0000000000
      3722      1241  TIP3      H1             -7.5864696295       -5.5156171127       -2.9327630134  W2        1241            0.0000000000
      3723      1241  TIP3      H2             -6.7034196295       -4.2929271127       -3.0636530134  W2        1241            0.0000000000
      3724      1242  TIP3      OH2            -2.9368796295       -4.1035571127      -15.6319530134  W2        1242            0.0000000000
      3725      1242  TIP3      H1             -2.1930896295       -3.5175071127      -15.7717930134  W2        1242            0.0000000000
      3726      1242  TIP3      H2             -3.6310696295       -3.5349771127      -15.2987130134  W2        1242            0.0000000000
      3727      1243  TIP3      OH2           -18.8621996295      -17.7271371127       -3.0301330134  W2        1243            0.0000000000
      3728      1243  TIP3      H1            -19.7549696295      -17.3885971127       -3.0977330134  W2        1243            0.0000000000
      3729      1243  TIP3      H2            -18.9609196295      -18.5825271127       -2.6120530134  W2        1243            0.0000000000
      3730      1244  TIP3      OH2            -6.5743896295       -9.9106071127      -13.6061830134  W2        1244            0.0000000000
      3731      1244  TIP3      H1             -6.8516296295      -10.6386771127      -13.0500730134  W2        1244            0.0000000000
      3732      1244  TIP3      H2             -5.6470896295       -9.7914071127      -13.4009230134  W2        1244            0.0000000000
      3733      1245  TIP3      OH2           -19.2109996295       -5.9226971127       -4.5951930134  W2        1245            0.0000000000
      3734      1245  TIP3      H1            -18.9939696295       -6.8544571127       -4.6262230134  W2        1245            0.0000000000
      3735      1245  TIP3      H2            -18.9646496295       -5.6481971127       -3.7119130134  W2        1245            0.0000000000
      3736      1246  TIP3      OH2           -13.3495396295       -7.4711971127      -17.3859730134  W2        1246            0.0000000000
      3737      1246  TIP3      H1            -13.1105596295       -8.2193871127      -17.9330830134  W2        1246            0.0000000000
      3738      1246  TIP3      H2            -13.6184096295       -7.8590271127      -16.5531930134  W2        1246            0.0000000000
      3739      1247  TIP3      OH2           -14.4124796295       -7.9008171127      -14.9297130134  W2        1247            0.0000000000
      3740      1247  TIP3      H1            -14.2656796295       -8.4208371127      -14.1396230134  W2        1247            0.0000000000
      3741      1247  TIP3      H2            -14.4153096295       -6.9940571127      -14.6231230134  W2        1247            0.0000000000
      3742      1248  TIP3      OH2           -17.9593696295      -10.6484871127      -14.4191730134  W2        1248            0.0000000000
      3743      1248  TIP3      H1            -18.6454396295      -10.2962371127      -13.8522030134  W2        1248            0.0000000000
      3744      1248  TIP3      H2            -17.4365796295       -9.8855271127      -14.6657430134  W2        1248            0.0000000000
      3745      1249  TIP3      OH2           -10.1278596295      -17.9861071127       -4.1402730134  W2        1249            0.0000000000
      3746      1249  TIP3      H1             -9.4290696295      -17.9122371127       -3.4903030134  W2        1249            0.0000000000
      3747      1249  TIP3      H2            -10.5087196295      -18.8506071127       -3.9859830134  W2        1249            0.0000000000
      3748      1250  TIP3      OH2            -9.3433696295      -18.3339371127      -13.0430430134  W2        1250            0.0000000000
      3749      1250  TIP3      H1             -9.1235396295      -17.8623971127      -13.8465030134  W2        1250            0.0000000000
      3750      1250  TIP3      H2             -8.7849696295      -17.9396771127      -12.3729830134  W2        1250            0.0000000000
      3751      1251  TIP3      OH2           -11.6747596295       -6.2034571127      -14.1802930134  W2        1251            0.0000000000
      3752      1251  TIP3      H1            -12.4911496295       -5.7064871127      -14.1278630134  W2        1251            0.0000000000
      3753      1251  TIP3      H2            -11.1451296295       -5.7281071127      -14.8204130134  W2        1251            0.0000000000
      3754      1252  TIP3      OH2           -12.1433796295      -16.6060571127      -12.2082030134  W2        1252            0.0000000000
      3755      1252  TIP3      H1            -11.3311196295      -16.1017371127      -12.1620330134  W2        1252            0.0000000000
      3756      1252  TIP3      H2            -12.3880796295      -16.7510871127      -11.2942430134  W2        1252            0.0000000000
      3757      1253  TIP3      OH2           -11.6077396295      -15.6197871127       -3.0235430134  W2        1253            0.0000000000
      3758      1253  TIP3      H1            -11.4887096295      -15.0462471127       -2.2665030134  W2        1253            0.0000000000
      3759      1253  TIP3      H2            -10.9522796295      -16.3078471127       -2.9087630134  W2        1253            0.0000000000
      3760      1254  TIP3      OH2           -11.2597096295      -19.5247571127      -11.2700930134  W2        1254            0.0000000000
      3761      1254  TIP3      H1            -11.6063596295      -18.9076971127      -10.6256630134  W2        1254            0.0000000000
      3762      1254  TIP3      H2            -10.6010196295      -19.0241871127      -11.7515430134  W2        1254            0.0000000000
      3763      1255  TIP3      OH2           -14.3364496295       -5.1597371127      -14.1986030134  W2        1255            0.0000000000
      3764      1255  TIP3      H1            -14.1755796295       -4.3599871127      -14.6993430134  W2        1255            0.0000000000
      3765      1255  TIP3      H2            -14.5336696295       -4.8531371127      -13.3135430134  W2        1255            0.0000000000
      3766      1256  TIP3      OH2           -15.6020096295      -18.4618171127      -14.5828430134  W2        1256            0.0000000000
      3767      1256  TIP3      H1            -15.6855296295      -17.5735071127      -14.2362030134  W2        1256            0.0000000000
      3768      1256  TIP3      H2            -14.7119796295      -18.7271471127      -14.3511630134  W2        1256            0.0000000000
      3769      1257  TIP3      OH2            -5.4031596295      -17.7127571127       -2.1885730134  W2        1257            0.0000000000
      3770      1257  TIP3      H1             -6.3195796295      -17.4505871127       -2.2762030134  W2        1257            0.0000000000
      3771      1257  TIP3      H2             -5.0676596295      -17.7158571127       -3.0850430134  W2        1257            0.0000000000
      3772      1258  TIP3      OH2            -6.8010596295      -13.9626571127       -8.0928430134  W2        1258            0.0000000000
      3773      1258  TIP3      H1             -7.5986196295      -14.3776371127       -8.4213430134  W2        1258            0.0000000000
      3774      1258  TIP3      H2             -6.3559496295      -14.6532871127       -7.6017930134  W2        1258            0.0000000000
      3775      1259  TIP3      OH2           -17.3434796295       -8.0345971127      -15.5223930134  W2        1259            0.0000000000
      3776      1259  TIP3      H1            -16.7513296295       -7.3351171127      -15.2461530134  W2        1259            0.0000000000
      3777      1259  TIP3      H2            -16.8841796295       -8.4676471127      -16.2419330134  W2        1259            0.0000000000
      3778      1260  TIP3      OH2           -19.0275596295      -15.3702971127      -16.4064530134  W2        1260            0.0000000000
      3779      1260  TIP3      H1            -19.0722996295      -14.4309871127      -16.2277530134  W2        1260            0.0000000000
      3780      1260  TIP3      H2            -19.9152396295      -15.6058071127      -16.6762430134  W2        1260            0.0000000000
      3781      1261  TIP3      OH2            -5.7145996295       -4.7064071127       -6.4704930134  W2        1261            0.0000000000
      3782      1261  TIP3      H1             -5.8701696295       -4.0279671127       -7.1275630134  W2        1261            0.0000000000
      3783      1261  TIP3      H2             -4.7819596295       -4.6344771127       -6.2674330134  W2        1261            0.0000000000
      3784      1262  TIP3      OH2           -18.2193596295      -20.5886371127       -7.7333530134  W2        1262            0.0000000000
      3785      1262  TIP3      H1            -18.4483796295      -20.5293871127       -8.6608530134  W2        1262            0.0000000000
      3786      1262  TIP3      H2            -18.6620196295      -21.3800871127       -7.4269430134  W2        1262            0.0000000000
      3787      1263  TIP3      OH2           -19.2890296295       -6.6479271127      -11.5727730134  W2        1263            0.0000000000
      3788      1263  TIP3      H1            -20.1211696295       -6.1756571127      -11.5456330134  W2        1263            0.0000000000
      3789      1263  TIP3      H2            -18.7431996295       -6.1381671127      -12.1714630134  W2        1263            0.0000000000
      3790      1264  TIP3      OH2           -20.0006596295       -4.0355571127       -0.2429730134  W2        1264            0.0000000000
      3791      1264  TIP3      H1            -19.4604396295       -4.2521571127        0.5169469866  W2        1264            0.0000000000
      3792      1264  TIP3      H2            -20.4818596295       -4.8409571127       -0.4327230134  W2        1264            0.0000000000
      3793      1265  TIP3      OH2           -15.4033196295       -5.1161171127        1.3774469866  W2        1265            0.0000000000
      3794      1265  TIP3      H1            -14.6355996295       -5.5750371127        1.7183669866  W2        1265            0.0000000000
      3795      1265  TIP3      H2            -15.4246996295       -5.3421371127        0.4475669866  W2        1265            0.0000000000
      3796      1266  TIP3      OH2           -11.3113596295       -5.6080571127      -17.2473730134  W2        1266            0.0000000000
      3797      1266  TIP3      H1            -11.9552596295       -6.2391971127      -16.9260030134  W2        1266            0.0000000000
      3798      1266  TIP3      H2            -10.5495296295       -6.1392571127      -17.4790230134  W2        1266            0.0000000000
      3799      1267  TIP3      OH2            -8.8264496295       -6.7360071127        0.1065969866  W2        1267            0.0000000000
      3800      1267  TIP3      H1             -9.1774996295       -7.5927071127        0.3496369866  W2        1267            0.0000000000
      3801      1267  TIP3      H2             -8.1001296295       -6.5933371127        0.7134969866  W2        1267            0.0000000000
      3802      1268  TIP3      OH2            -6.7070696295       -5.7910671127      -17.0135730134  W2        1268            0.0000000000
      3803      1268  TIP3      H1             -6.4240296295       -6.5855471127      -16.5608830134  W2        1268            0.0000000000
      3804      1268  TIP3      H2             -5.9672796295       -5.5579671127      -17.5744630134  W2        1268            0.0000000000
      3805      1269  TIP3      OH2           -20.0937096295      -10.2251471127        0.7114569866  W2        1269            0.0000000000
      3806      1269  TIP3      H1            -19.9496596295      -11.1270771127        0.4251269866  W2        1269            0.0000000000
      3807      1269  TIP3      H2            -20.8659696295       -9.9389371127        0.2236869866  W2        1269            0.0000000000
      3808      1270  TIP3      OH2           -15.7523396295       -9.8815771127      -17.1560830134  W2        1270            0.0000000000
      3809      1270  TIP3      H1            -15.6879296295      -10.6756171127      -16.6254430134  W2        1270            0.0000000000
      3810      1270  TIP3      H2            -15.0994196295      -10.0002971127      -17.8458830134  W2        1270            0.0000000000
      3811      1271  TIP3      OH2           -13.4380996295      -10.2553371127        0.1440969866  W2        1271            0.0000000000
      3812      1271  TIP3      H1            -13.7667196295       -9.9845271127       -0.7131630134  W2        1271            0.0000000000
      3813      1271  TIP3      H2            -13.2862796295      -11.1963571127        0.0565969866  W2        1271            0.0000000000
      3814      1272  TIP3      OH2           -10.3999996295       -8.8344071127      -17.4202830134  W2        1272            0.0000000000
      3815      1272  TIP3      H1            -10.6685896295       -8.6541971127      -16.5193930134  W2        1272            0.0000000000
      3816      1272  TIP3      H2            -10.6064396295       -9.7597871127      -17.5517030134  W2        1272            0.0000000000
      3817      1273  TIP3      OH2            -7.7035796295      -10.3396071127       -2.4726730134  W2        1273            0.0000000000
      3818      1273  TIP3      H1             -6.9580996295       -9.7512371127       -2.5922730134  W2        1273            0.0000000000
      3819      1273  TIP3      H2             -8.4608996295       -9.7576371127       -2.4093630134  W2        1273            0.0000000000
      3820      1274  TIP3      OH2           -19.2610596295      -13.0248171127        0.1313869866  W2        1274            0.0000000000
      3821      1274  TIP3      H1            -18.8529396295      -13.8821571127        0.0104469866  W2        1274            0.0000000000
      3822      1274  TIP3      H2            -19.5212996295      -13.0106871127        1.0524169866  W2        1274            0.0000000000
      3823      1275  TIP3      OH2           -14.6029596295      -11.9089571127      -14.8502830134  W2        1275            0.0000000000
      3824      1275  TIP3      H1            -15.0627596295      -12.3931271127      -14.1644330134  W2        1275            0.0000000000
      3825      1275  TIP3      H2            -14.3480896295      -12.5774171127      -15.4862330134  W2        1275            0.0000000000
      3826      1276  TIP3      OH2           -15.3140296295      -14.0162471127       -2.4943230134  W2        1276            0.0000000000
      3827      1276  TIP3      H1            -15.9324196295      -13.3415871127       -2.2138530134  W2        1276            0.0000000000
      3828      1276  TIP3      H2            -14.9699096295      -13.6948571127       -3.3277030134  W2        1276            0.0000000000
      3829      1277  TIP3      OH2           -13.5319196295      -13.6657771127      -16.5879630134  W2        1277            0.0000000000
      3830      1277  TIP3      H1            -13.7124196295      -13.8206571127      -17.5151330134  W2        1277            0.0000000000
      3831      1277  TIP3      H2            -12.5818696295      -13.5579071127      -16.5431730134  W2        1277            0.0000000000
      3832      1278  TIP3      OH2           -10.2942096295      -11.5447171127        0.7831569866  W2        1278            0.0000000000
      3833      1278  TIP3      H1             -9.3410896295      -11.4608071127        0.7557569866  W2        1278            0.0000000000
      3834      1278  TIP3      H2            -10.4547496295      -12.2565371127        1.4026469866  W2        1278            0.0000000000
      3835      1279  TIP3      OH2            -4.1420896295      -11.3113571127      -17.1421530134  W2        1279            0.0000000000
      3836      1279  TIP3      H1             -4.4156096295      -11.7358071127      -17.9553230134  W2        1279            0.0000000000
      3837      1279  TIP3      H2             -4.1026796295      -10.3799071127      -17.3591130134  W2        1279            0.0000000000
      3838      1280  TIP3      OH2           -14.9746596295      -16.6611671127       -1.4120130134  W2        1280            0.0000000000
      3839      1280  TIP3      H1            -14.8245696295      -17.3900371127       -2.0140430134  W2        1280            0.0000000000
      3840      1280  TIP3      H2            -14.9724196295      -15.8839971127       -1.9707930134  W2        1280            0.0000000000
      3841      1281  TIP3      OH2           -14.5620896295      -18.2915871127       -3.9192730134  W2        1281            0.0000000000
      3842      1281  TIP3      H1            -14.0263396295      -17.8399171127       -4.5713430134  W2        1281            0.0000000000
      3843      1281  TIP3      H2            -15.4141296295      -18.3996071127       -4.3418630134  W2        1281            0.0000000000
      3844      1282  TIP3      OH2           -12.9802496295      -12.8519671127       -3.6797530134  W2        1282            0.0000000000
      3845      1282  TIP3      H1            -12.2297696295      -13.0082171127       -4.2529730134  W2        1282            0.0000000000
      3846      1282  TIP3      H2            -13.3194196295      -12.0003071127       -3.9552030134  W2        1282            0.0000000000
      3847      1283  TIP3      OH2            -8.5646296295      -15.0367871127        1.3487769866  W2        1283            0.0000000000
      3848      1283  TIP3      H1             -8.3724996295      -15.9678471127        1.2372269866  W2        1283            0.0000000000
      3849      1283  TIP3      H2             -7.7069996295      -14.6118371127        1.3383169866  W2        1283            0.0000000000
      3850      1284  TIP3      OH2            -7.2479096295      -12.2482671127       -0.5739530134  W2        1284            0.0000000000
      3851      1284  TIP3      H1             -7.5294096295      -11.5388071127       -1.1515730134  W2        1284            0.0000000000
      3852      1284  TIP3      H2             -6.3054796295      -12.3209671127       -0.7248330134  W2        1284            0.0000000000
      3853      1285  TIP3      OH2           -16.4960296295      -15.4628171127        0.4995469866  W2        1285            0.0000000000
      3854      1285  TIP3      H1            -17.2631296295      -15.9953371127        0.2893069866  W2        1285            0.0000000000
      3855      1285  TIP3      H2            -15.8171296295      -15.7727771127       -0.0998230134  W2        1285            0.0000000000
      3856      1286  TIP3      OH2           -13.7565396295      -20.8350171127       -3.4879130134  W2        1286            0.0000000000
      3857      1286  TIP3      H1            -13.8545796295      -19.8886971127       -3.5932930134  W2        1286            0.0000000000
      3858      1286  TIP3      H2            -14.4989196295      -21.2076371127       -3.9635630134  W2        1286            0.0000000000
      3859      1287  TIP3      OH2           -12.4924896295      -16.5134771127        0.0759269866  W2        1287            0.0000000000
      3860      1287  TIP3      H1            -12.7279496295      -16.7328071127        0.9774169866  W2        1287            0.0000000000
      3861      1287  TIP3      H2            -13.2757996295      -16.7203571127       -0.4338230134  W2        1287            0.0000000000
      3862      1288  TIP3      OH2            -9.7768296295      -17.3861271127       -0.8487230134  W2        1288            0.0000000000
      3863      1288  TIP3      H1            -10.7242896295      -17.3541571127       -0.7163930134  W2        1288            0.0000000000
      3864      1288  TIP3      H2             -9.4641596295      -18.0114171127       -0.1949030134  W2        1288            0.0000000000
      3865      1289  TIP3      OH2            -8.1426796295      -18.7520171127        1.1564669866  W2        1289            0.0000000000
      3866      1289  TIP3      H1             -8.2394996295      -19.7042871127        1.1506569866  W2        1289            0.0000000000
      3867      1289  TIP3      H2             -8.4643696295      -18.4833371127        2.0170169866  W2        1289            0.0000000000
      3868      1290  TIP3      OH2           -18.3157496295      -17.5424371127        0.2040169866  W2        1290            0.0000000000
      3869      1290  TIP3      H1            -18.1040096295      -18.2488271127       -0.4062330134  W2        1290            0.0000000000
      3870      1290  TIP3      H2            -18.4269996295      -17.9798371127        1.0481369866  W2        1290            0.0000000000
      3871      1291  TIP3      OH2           -13.5347296295      -21.5412771127       -0.8166330134  W2        1291            0.0000000000
      3872      1291  TIP3      H1            -12.8228896295      -22.1810571127       -0.8307230134  W2        1291            0.0000000000
      3873      1291  TIP3      H2            -13.6356896295      -21.2744471127       -1.7303230134  W2        1291            0.0000000000
      3874      1292  TIP3      OH2           -13.1809796295      -19.8584371127        1.2369969866  W2        1292            0.0000000000
      3875      1292  TIP3      H1            -13.3127596295      -20.3340571127        0.4168469866  W2        1292            0.0000000000
      3876      1292  TIP3      H2            -13.7802396295      -19.1140771127        1.1817069866  W2        1292            0.0000000000
      3877      1293  TIP3      OH2           -13.6347496295       -2.9754071127      -15.5866030134  W2        1293            0.0000000000
      3878      1293  TIP3      H1            -12.7016796295       -2.8175371127      -15.4427630134  W2        1293            0.0000000000
      3879      1293  TIP3      H2            -13.8988696295       -2.3001071127      -16.2114530134  W2        1293            0.0000000000
      3880      1294  TIP3      OH2           -20.0662596295       -8.3390271127      -16.1037930134  W2        1294            0.0000000000
      3881      1294  TIP3      H1            -19.1523396295       -8.2601371127      -15.8304030134  W2        1294            0.0000000000
      3882      1294  TIP3      H2            -20.0589496295       -9.0260671127      -16.7702330134  W2        1294            0.0000000000
      3883      1295  TIP3      OH2           -21.4171996295       -2.9461771127      -11.0264030134  W2        1295            0.0000000000
      3884      1295  TIP3      H1            -22.0644896295       -3.4080071127      -11.5592830134  W2        1295            0.0000000000
      3885      1295  TIP3      H2            -21.0627396295       -3.6178471127      -10.4437830134  W2        1295            0.0000000000
      3886      1296  TIP3      OH2           -20.5472796295       -4.8654771127       -9.2217830134  W2        1296            0.0000000000
      3887      1296  TIP3      H1            -20.8815996295       -5.7457471127       -9.0497630134  W2        1296            0.0000000000
      3888      1296  TIP3      H2            -20.3250396295       -4.5199771127       -8.3572230134  W2        1296            0.0000000000
      3889      1297  TIP3      OH2            -2.9987996295       -4.0558371127       -6.2413030134  W2        1297            0.0000000000
      3890      1297  TIP3      H1             -3.0201296295       -3.8709971127       -5.3023630134  W2        1297            0.0000000000
      3891      1297  TIP3      H2             -2.3081796295       -3.4874371127       -6.5821630134  W2        1297            0.0000000000
      3892      1298  TIP3      OH2            -3.4355096295       -4.4887271127       -3.3193930134  W2        1298            0.0000000000
      3893      1298  TIP3      H1             -3.9226396295       -5.2243171127       -3.6906530134  W2        1298            0.0000000000
      3894      1298  TIP3      H2             -2.8862396295       -4.8823371127       -2.6414530134  W2        1298            0.0000000000
      3895      1299  TIP3      OH2            -4.9847796295       -8.6989171127        1.3186369866  W2        1299            0.0000000000
      3896      1299  TIP3      H1             -5.8506696295       -8.8039471127        1.7128669866  W2        1299            0.0000000000
      3897      1299  TIP3      H2             -4.6081896295       -7.9405871127        1.7651069866  W2        1299            0.0000000000
      3898      1300  TIP3      OH2            -3.6838096295      -10.4425471127      -13.1671130134  W2        1300            0.0000000000
      3899      1300  TIP3      H1             -2.8336696295      -10.0214571127      -13.0399530134  W2        1300            0.0000000000
      3900      1300  TIP3      H2             -3.6782996295      -11.1825371127      -12.5599730134  W2        1300            0.0000000000
      3901      1301  TIP3      OH2            -3.2892496295      -12.3888071127      -11.3435430134  W2        1301            0.0000000000
      3902      1301  TIP3      H1             -4.0157896295      -12.8685471127      -10.9457830134  W2        1301            0.0000000000
      3903      1301  TIP3      H2             -2.7079196295      -12.1833371127      -10.6113830134  W2        1301            0.0000000000
      3904      1302  TIP3      OH2            -3.5301296295       -9.6040571127       -6.3957830134  W2        1302            0.0000000000
      3905      1302  TIP3      H1             -2.6967096295       -9.9820571127       -6.6764230134  W2        1302            0.0000000000
      3906      1302  TIP3      H2             -3.4180996295       -8.6609371127       -6.5148730134  W2        1302            0.0000000000
      3907      1303  TIP3      OH2            -5.0438996295       -6.7263071127       -4.0889430134  W2        1303            0.0000000000
      3908      1303  TIP3      H1             -5.6913696295       -6.4011571127       -3.4634230134  W2        1303            0.0000000000
      3909      1303  TIP3      H2             -5.5614996295       -7.1665371127       -4.7631130134  W2        1303            0.0000000000
      3910      1304  TIP3      OH2            -3.0209396295      -12.4879571127      -14.9524130134  W2        1304            0.0000000000
      3911      1304  TIP3      H1             -3.5428296295      -12.1315471127      -15.6713230134  W2        1304            0.0000000000
      3912      1304  TIP3      H2             -3.0540196295      -11.8131771127      -14.2743230134  W2        1304            0.0000000000
      3913      1305  TIP3      OH2            -4.6720396295      -15.2483971127      -16.4017030134  W2        1305            0.0000000000
      3914      1305  TIP3      H1             -4.5755996295      -14.5816971127      -17.0817330134  W2        1305            0.0000000000
      3915      1305  TIP3      H2             -4.8120796295      -16.0637671127      -16.8831530134  W2        1305            0.0000000000
      3916      1306  TIP3      OH2            -5.5025696295      -13.8681571127      -10.7806730134  W2        1306            0.0000000000
      3917      1306  TIP3      H1             -5.6526896295      -14.8132971127      -10.8008930134  W2        1306            0.0000000000
      3918      1306  TIP3      H2             -5.8561196295      -13.5870171127       -9.9367630134  W2        1306            0.0000000000
      3919      1307  TIP3      OH2           -20.4673296295      -11.7899371127       -6.7702930134  W2        1307            0.0000000000
      3920      1307  TIP3      H1            -20.2830396295      -11.8717671127       -7.7060030134  W2        1307            0.0000000000
      3921      1307  TIP3      H2            -19.6180396295      -11.9142371127       -6.3466530134  W2        1307            0.0000000000
      3922      1308  TIP3      OH2            -4.6462796295      -11.8978271127       -1.1418430134  W2        1308            0.0000000000
      3923      1308  TIP3      H1             -4.0635496295      -12.6325971127       -0.9501230134  W2        1308            0.0000000000
      3924      1308  TIP3      H2             -4.0823496295      -11.1257971127       -1.0952630134  W2        1308            0.0000000000
      3925      1309  TIP3      OH2            -3.1495696295      -13.9952471127       -0.4573030134  W2        1309            0.0000000000
      3926      1309  TIP3      H1             -4.0128996295      -14.3740371127       -0.6228330134  W2        1309            0.0000000000
      3927      1309  TIP3      H2             -2.5451996295      -14.7337671127       -0.5317230134  W2        1309            0.0000000000
      3928      1310  TIP3      OH2            -5.4246596295      -17.8404171127      -17.2841530134  W2        1310            0.0000000000
      3929      1310  TIP3      H1             -4.8140796295      -18.2117371127      -16.6473330134  W2        1310            0.0000000000
      3930      1310  TIP3      H2             -6.2615096295      -18.2617271127      -17.0881530134  W2        1310            0.0000000000
      3931      1311  TIP3      OH2            -5.7920896295      -16.2855771127      -12.3181630134  W2        1311            0.0000000000
      3932      1311  TIP3      H1             -5.5123796295      -17.1925371127      -12.1939930134  W2        1311            0.0000000000
      3933      1311  TIP3      H2             -5.0329196295      -15.8514271127      -12.7072430134  W2        1311            0.0000000000
      3934      1312  TIP3      OH2            -5.1802596295      -15.7038371127       -6.8822730134  W2        1312            0.0000000000
      3935      1312  TIP3      H1             -4.2474596295      -15.4918471127       -6.9166730134  W2        1312            0.0000000000
      3936      1312  TIP3      H2             -5.4155096295      -15.6026271127       -5.9599730134  W2        1312            0.0000000000
      3937      1313  TIP3      OH2            -5.1510696295      -14.9673071127       -4.1063330134  W2        1313            0.0000000000
      3938      1313  TIP3      H1             -5.9939396295      -14.6992671127       -3.7403530134  W2        1313            0.0000000000
      3939      1313  TIP3      H2             -4.7086396295      -14.1451171127       -4.3172230134  W2        1313            0.0000000000
      3940      1314  TIP3      OH2           -20.8698496295      -16.5194371127       -0.6294130134  W2        1314            0.0000000000
      3941      1314  TIP3      H1            -19.9503596295      -16.6416071127       -0.3931030134  W2        1314            0.0000000000
      3942      1314  TIP3      H2            -21.3193996295      -17.2694671127       -0.2400630134  W2        1314            0.0000000000
      3943      1315  TIP3      OH2            -2.8679096295      -20.9872871127        1.2471669866  W2        1315            0.0000000000
      3944      1315  TIP3      H1             -2.5182096295      -21.6409371127        0.6416369866  W2        1315            0.0000000000
      3945      1315  TIP3      H2             -2.7209596295      -20.1498771127        0.8074269866  W2        1315            0.0000000000
      3946      1316  TIP3      OH2            -5.1786096295      -19.0226471127      -12.2699630134  W2        1316            0.0000000000
      3947      1316  TIP3      H1             -4.9961096295      -19.4714971127      -11.4444630134  W2        1316            0.0000000000
      3948      1316  TIP3      H2             -5.7783196295      -19.6072071127      -12.7335030134  W2        1316            0.0000000000
      3949      1317  TIP3      OH2           -19.6485996295      -18.2072771127       -7.7381230134  W2        1317            0.0000000000
      3950      1317  TIP3      H1            -19.2034396295      -18.9990271127       -7.4361530134  W2        1317            0.0000000000
      3951      1317  TIP3      H2            -19.1822996295      -17.4907571127       -7.3075630134  W2        1317            0.0000000000
      3952      1318  TIP3      OH2           -21.3445696295      -15.2079771127       -6.6691030134  W2        1318            0.0000000000
      3953      1318  TIP3      H1            -20.8525896295      -15.4289271127       -7.4599030134  W2        1318            0.0000000000
      3954      1318  TIP3      H2            -20.9824796295      -14.3676371127       -6.3881530134  W2        1318            0.0000000000
      3955      1319  TIP3      OH2            -3.3481896295      -18.8778271127       -0.4037030134  W2        1319            0.0000000000
      3956      1319  TIP3      H1             -4.2656196295      -18.6071171127       -0.4393530134  W2        1319            0.0000000000
      3957      1319  TIP3      H2             -3.2252496295      -19.4129871127       -1.1877330134  W2        1319            0.0000000000
      3958      1320  TIP3      OH2            -3.3119896295      -18.9548371127      -15.7419330134  W2        1320            0.0000000000
      3959      1320  TIP3      H1             -2.8997296295      -19.6762671127      -16.2171330134  W2        1320            0.0000000000
      3960      1320  TIP3      H2             -2.6303396295      -18.2853771127      -15.6835030134  W2        1320            0.0000000000
      3961      1321  TIP3      OH2           -21.0309196295      -18.9500671127      -12.6148630134  W2        1321            0.0000000000
      3962      1321  TIP3      H1            -21.9560796295      -18.7414071127      -12.7443130134  W2        1321            0.0000000000
      3963      1321  TIP3      H2            -20.5769296295      -18.4659871127      -13.3046330134  W2        1321            0.0000000000
      3964      1322  TIP3      OH2            -6.2601996295       -3.9658971127      -10.6691230134  W2        1322            0.0000000000
      3965      1322  TIP3      H1             -5.6079096295       -4.3136871127      -11.2772130134  W2        1322            0.0000000000
      3966      1322  TIP3      H2             -5.7498196295       -3.4775771127      -10.0231530134  W2        1322            0.0000000000
      3967      1323  TIP3      OH2           -21.0673796295      -20.2121671127       -4.2706130134  W2        1323            0.0000000000
      3968      1323  TIP3      H1            -21.7323296295      -20.4581371127       -3.6275230134  W2        1323            0.0000000000
      3969      1323  TIP3      H2            -21.5102496295      -19.5901271127       -4.8478130134  W2        1323            0.0000000000
      3970      1324  TIP3      OH2           -18.8754496295       -7.0367571127       -0.1260330134  W2        1324            0.0000000000
      3971      1324  TIP3      H1            -19.6961996295       -6.8621071127       -0.5865630134  W2        1324            0.0000000000
      3972      1324  TIP3      H2            -19.1276696295       -7.1102871127        0.7944069866  W2        1324            0.0000000000
      3973      1325  TIP3      OH2           -15.9211596295       -6.0626371127       -3.8676330134  W2        1325            0.0000000000
      3974      1325  TIP3      H1            -16.3460496295       -5.2527871127       -4.1501730134  W2        1325            0.0000000000
      3975      1325  TIP3      H2            -15.0168796295       -5.9772271127       -4.1696530134  W2        1325            0.0000000000
      3976      1326  TIP3      OH2           -11.6100196295       -4.6636371127       -0.9082630134  W2        1326            0.0000000000
      3977      1326  TIP3      H1            -11.4252696295       -4.9970271127       -0.0302330134  W2        1326            0.0000000000
      3978      1326  TIP3      H2            -10.7635696295       -4.3537771127       -1.2303430134  W2        1326            0.0000000000
      3979      1327  TIP3      OH2            -9.2649796295       -3.3777471127       -1.6641230134  W2        1327            0.0000000000
      3980      1327  TIP3      H1             -8.5880896295       -4.0105171127       -1.9042030134  W2        1327            0.0000000000
      3981      1327  TIP3      H2             -8.9430996295       -2.9766971127       -0.8567930134  W2        1327            0.0000000000
      3982      1328  TIP3      OH2            -4.3475996295      -20.7881971127       -2.5846230134  W2        1328            0.0000000000
      3983      1328  TIP3      H1             -5.1602496295      -20.4631671127       -2.9721530134  W2        1328            0.0000000000
      3984      1328  TIP3      H2             -4.1147496295      -21.5483471127       -3.1177130134  W2        1328            0.0000000000
      3985      1329  TIP3      OH2           -18.5194896295       -2.8062471127       -3.8201030134  W2        1329            0.0000000000
      3986      1329  TIP3      H1            -19.2398496295       -2.3661471127       -4.2713330134  W2        1329            0.0000000000
      3987      1329  TIP3      H2            -18.8850896295       -3.0567771127       -2.9717030134  W2        1329            0.0000000000
      3988      1330  TIP3      OH2           -16.0522296295       -3.2058571127       -4.7903830134  W2        1330            0.0000000000
      3989      1330  TIP3      H1            -16.9170096295       -3.1340071127       -4.3863730134  W2        1330            0.0000000000
      3990      1330  TIP3      H2            -16.1073296295       -2.6591271127       -5.5741330134  W2        1330            0.0000000000
      3991      1331  TIP3      OH2           -11.3416696295       -3.3179671127       -5.6147830134  W2        1331            0.0000000000
      3992      1331  TIP3      H1            -11.7982696295       -2.7889971127       -6.2689430134  W2        1331            0.0000000000
      3993      1331  TIP3      H2            -11.1788696295       -2.7148271127       -4.8895530134  W2        1331            0.0000000000
      3994      1332  TIP3      OH2            -9.0140396295       -4.4400071127       -4.6697530134  W2        1332            0.0000000000
      3995      1332  TIP3      H1             -9.9186696295       -4.2749871127       -4.9355430134  W2        1332            0.0000000000
      3996      1332  TIP3      H2             -8.5851796295       -3.5867871127       -4.7354130134  W2        1332            0.0000000000
      3997      1333  TIP3      OH2            -6.4098496295       -2.8700971127       -4.3749730134  W2        1333            0.0000000000
      3998      1333  TIP3      H1             -6.5916496295       -1.9542071127       -4.5854830134  W2        1333            0.0000000000
      3999      1333  TIP3      H2             -6.2330696295       -3.2803871127       -5.2215130134  W2        1333            0.0000000000
      4000      1334  TIP3      OH2           -19.1046796295       -4.1829971127       -6.9099230134  W2        1334            0.0000000000
      4001      1334  TIP3      H1            -19.1230796295       -4.6084871127       -6.0526930134  W2        1334            0.0000000000
      4002      1334  TIP3      H2            -18.2998896295       -4.5014971127       -7.3187030134  W2        1334            0.0000000000
      4003      1335  TIP3      OH2           -16.9633696295       -5.4731271127       -8.2549330134  W2        1335            0.0000000000
      4004      1335  TIP3      H1            -17.1822996295       -6.3893871127       -8.0853330134  W2        1335            0.0000000000
      4005      1335  TIP3      H2            -16.1391496295       -5.3330871127       -7.7887930134  W2        1335            0.0000000000
      4006      1336  TIP3      OH2           -14.4261196295       -5.0031971127       -7.4061330134  W2        1336            0.0000000000
      4007      1336  TIP3      H1            -14.2135496295       -5.8912971127       -7.6930430134  W2        1336            0.0000000000
      4008      1336  TIP3      H2            -14.3616096295       -5.0374271127       -6.4517330134  W2        1336            0.0000000000
      4009      1337  TIP3      OH2           -10.9177496295      -19.3391371127       -8.2618030134  W2        1337            0.0000000000
      4010      1337  TIP3      H1            -11.5920696295      -19.9685771127       -8.0062230134  W2        1337            0.0000000000
      4011      1337  TIP3      H2            -10.3538296295      -19.8232471127       -8.8650130134  W2        1337            0.0000000000
      4012      1338  TIP3      OH2            -5.7750296295      -21.2317371127       -8.1490930134  W2        1338            0.0000000000
      4013      1338  TIP3      H1             -5.1712696295      -20.6841971127       -8.6509930134  W2        1338            0.0000000000
      4014      1338  TIP3      H2             -6.6448296295      -20.9126971127       -8.3896830134  W2        1338            0.0000000000
      4015      1339  TIP3      OH2            -4.0479896295      -20.0928671127       -9.8160030134  W2        1339            0.0000000000
      4016      1339  TIP3      H1             -3.4362396295      -20.6072971127      -10.3426430134  W2        1339            0.0000000000
      4017      1339  TIP3      H2             -3.6656496295      -19.2156571127       -9.7925630134  W2        1339            0.0000000000
      4018      1340  TIP3      OH2           -18.5909996295      -20.7051071127      -10.4398130134  W2        1340            0.0000000000
      4019      1340  TIP3      H1            -19.3680196295      -20.9396171127      -10.9472230134  W2        1340            0.0000000000
      4020      1340  TIP3      H2            -18.0606396295      -21.5018971127      -10.4310130134  W2        1340            0.0000000000
      4021      1341  TIP3      OH2           -19.7546596295      -20.9072971127      -14.6362030134  W2        1341            0.0000000000
      4022      1341  TIP3      H1            -19.3155896295      -20.2962471127      -15.2278530134  W2        1341            0.0000000000
      4023      1341  TIP3      H2            -20.3884196295      -20.3688871127      -14.1622030134  W2        1341            0.0000000000
      4024      1342  TIP3      OH2           -14.0117396295      -20.7783971127      -10.6265030134  W2        1342            0.0000000000
      4025      1342  TIP3      H1            -13.1373996295      -20.3899671127      -10.6560730134  W2        1342            0.0000000000
      4026      1342  TIP3      H2            -14.1476596295      -20.9936171127       -9.7037830134  W2        1342            0.0000000000
      4027      1343  TIP3      OH2            -8.4548996295      -20.7484171127       -8.9773330134  W2        1343            0.0000000000
      4028      1343  TIP3      H1             -8.3787396295      -20.6532571127       -9.9267330134  W2        1343            0.0000000000
      4029      1343  TIP3      H2             -8.7299796295      -21.6561271127       -8.8484230134  W2        1343            0.0000000000
      4030      1344  TIP3      OH2            -7.1016396295      -20.7226371127      -13.2848330134  W2        1344            0.0000000000
      4031      1344  TIP3      H1             -7.8045296295      -20.1077171127      -13.4946930134  W2        1344            0.0000000000
      4032      1344  TIP3      H2             -7.5464996295      -21.5599671127      -13.1537430134  W2        1344            0.0000000000
      4033      1345  TIP3      OH2           -19.8537096295       -4.9590771127      -13.7386930134  W2        1345            0.0000000000
      4034      1345  TIP3      H1            -20.5387196295       -4.9971871127      -14.4061830134  W2        1345            0.0000000000
      4035      1345  TIP3      H2            -19.8499896295       -4.0463171127      -13.4504830134  W2        1345            0.0000000000
      4036      1346  TIP3      OH2           -17.8937496295      -18.9911471127      -16.1937930134  W2        1346            0.0000000000
      4037      1346  TIP3      H1            -17.4024096295      -19.6209071127      -16.7212430134  W2        1346            0.0000000000
      4038      1346  TIP3      H2            -17.2701196295      -18.6952071127      -15.5306730134  W2        1346            0.0000000000
      4039      1347  TIP3      OH2           -12.8677396295      -18.6979971127      -13.7367430134  W2        1347            0.0000000000
      4040      1347  TIP3      H1            -12.6896096295      -19.3446771127      -13.0538830134  W2        1347            0.0000000000
      4041      1347  TIP3      H2            -12.9211196295      -17.8642271127      -13.2696330134  W2        1347            0.0000000000
      4042      1348  TIP3      OH2           -10.9893596295       -3.7495871127      -15.3410730134  W2        1348            0.0000000000
      4043      1348  TIP3      H1            -10.1233396295       -3.3828471127      -15.5192530134  W2        1348            0.0000000000
      4044      1348  TIP3      H2            -11.2360796295       -4.1887871127      -16.1549930134  W2        1348            0.0000000000
      4045      1349  TIP3      OH2            -4.2803996295       -4.1865571127      -12.6619630134  W2        1349            0.0000000000
      4046      1349  TIP3      H1             -4.4746896295       -4.9343471127      -13.2270030134  W2        1349            0.0000000000
      4047      1349  TIP3      H2             -4.3193896295       -3.4285471127      -13.2451730134  W2        1349            0.0000000000
      4048      1350  TIP3      OH2           -18.6331996295      -20.1909171127       -0.9221930134  W2        1350            0.0000000000
      4049      1350  TIP3      H1            -18.9993796295      -20.9566571127       -0.4797230134  W2        1350            0.0000000000
      4050      1350  TIP3      H2            -17.7203496295      -20.1618971127       -0.6356830134  W2        1350            0.0000000000
      4051      1351  TIP3      OH2           -16.6601196295      -20.8404771127        0.6135169866  W2        1351            0.0000000000
      4052      1351  TIP3      H1            -15.7617596295      -21.1144571127        0.4288569866  W2        1351            0.0000000000
      4053      1351  TIP3      H2            -17.0468096295      -21.5828771127        1.0777769866  W2        1351            0.0000000000
      4054      1352  TIP3      OH2           -18.0355896295       -4.0389971127      -16.7134830134  W2        1352            0.0000000000
      4055      1352  TIP3      H1            -18.3031296295       -3.7527071127      -15.8401730134  W2        1352            0.0000000000
      4056      1352  TIP3      H2            -17.2643296295       -4.5850771127      -16.5612330134  W2        1352            0.0000000000
      4057      1353  TIP3      OH2            -8.2388896295      -21.5079471127        0.7957969866  W2        1353            0.0000000000
      4058      1353  TIP3      H1             -8.1621696295      -21.9338771127        1.6495669866  W2        1353            0.0000000000
      4059      1353  TIP3      H2             -7.3452296295      -21.4944771127        0.4531469866  W2        1353            0.0000000000
      4060      1354  TIP3      OH2            -5.0627796295       -5.4353171127       -0.5117830134  W2        1354            0.0000000000
      4061      1354  TIP3      H1             -5.8445896295       -5.6215171127       -1.0317230134  W2        1354            0.0000000000
      4062      1354  TIP3      H2             -5.1347896295       -4.5058871127       -0.2945330134  W2        1354            0.0000000000
      4063      1355  TIP3      OH2             9.3432603705      -11.5488771127      -10.4810630134  W2        1355            0.0000000000
      4064      1355  TIP3      H1              9.4323703705      -10.6050571127      -10.6133530134  W2        1355            0.0000000000
      4065      1355  TIP3      H2              8.7050203705      -11.8242371127      -11.1391230134  W2        1355            0.0000000000
      4066      1356  TIP3      OH2             8.2763903705      -12.2938071127       -7.0622430134  W2        1356            0.0000000000
      4067      1356  TIP3      H1              8.2381403705      -12.9401771127       -6.3572830134  W2        1356            0.0000000000
      4068      1356  TIP3      H2              7.9540403705      -12.7603671127       -7.8333730134  W2        1356            0.0000000000
      4069      1357  TIP3      OH2             0.6448903705      -12.6795971127       -5.4692530134  W2        1357            0.0000000000
      4070      1357  TIP3      H1              0.6861003705      -13.3052671127       -4.7460130134  W2        1357            0.0000000000
      4071      1357  TIP3      H2              1.3476603705      -12.0557371127       -5.2872130134  W2        1357            0.0000000000
      4072      1358  TIP3      OH2            11.9824103705       -9.3547671127       -8.7607330134  W2        1358            0.0000000000
      4073      1358  TIP3      H1             11.5416803705      -10.0751671127       -8.3101730134  W2        1358            0.0000000000
      4074      1358  TIP3      H2             11.9693803705       -8.6340471127       -8.1309630134  W2        1358            0.0000000000
      4075      1359  TIP3      OH2             1.5682003705       -8.2297071127       -6.9343430134  W2        1359            0.0000000000
      4076      1359  TIP3      H1              1.1987203705       -9.0316571127       -7.3039130134  W2        1359            0.0000000000
      4077      1359  TIP3      H2              2.5093103705       -8.3982171127       -6.8880030134  W2        1359            0.0000000000
      4078      1360  TIP3      OH2            -1.8217496295      -14.5694471127      -11.5414630134  W2        1360            0.0000000000
      4079      1360  TIP3      H1             -2.2694096295      -13.7235771127      -11.5598130134  W2        1360            0.0000000000
      4080      1360  TIP3      H2             -2.3826296295      -15.1490271127      -12.0569530134  W2        1360            0.0000000000
      4081      1361  TIP3      OH2            -1.1111396295      -12.4074871127       -9.4156630134  W2        1361            0.0000000000
      4082      1361  TIP3      H1             -0.8977896295      -13.1773271127       -8.8883630134  W2        1361            0.0000000000
      4083      1361  TIP3      H2             -0.3733796295      -12.3178171127      -10.0189030134  W2        1361            0.0000000000
      4084      1362  TIP3      OH2             9.0939603705       -4.2505971127       -8.5486930134  W2        1362            0.0000000000
      4085      1362  TIP3      H1              9.7136003705       -4.9271271127       -8.8217730134  W2        1362            0.0000000000
      4086      1362  TIP3      H2              8.8857003705       -4.4685171127       -7.6402030134  W2        1362            0.0000000000
      4087      1363  TIP3      OH2             6.6658303705       -9.8616671127       -6.6561430134  W2        1363            0.0000000000
      4088      1363  TIP3      H1              6.9696203705      -10.5475271127       -7.2507330134  W2        1363            0.0000000000
      4089      1363  TIP3      H2              7.3872303705       -9.7427971127       -6.0383430134  W2        1363            0.0000000000
      4090      1364  TIP3      OH2            15.3288103705      -18.2601371127       -5.7955230134  W2        1364            0.0000000000
      4091      1364  TIP3      H1             15.3780303705      -17.6500171127       -5.0596130134  W2        1364            0.0000000000
      4092      1364  TIP3      H2             15.7543203705      -17.7990471127       -6.5184130134  W2        1364            0.0000000000
      4093      1365  TIP3      OH2             9.8065303705      -15.4674271127       -6.3286630134  W2        1365            0.0000000000
      4094      1365  TIP3      H1              9.9491203705      -16.4137271127       -6.3085030134  W2        1365            0.0000000000
      4095      1365  TIP3      H2              9.7004303705      -15.2604471127       -7.2571730134  W2        1365            0.0000000000
      4096      1366  TIP3      OH2             2.9613603705      -17.3657871127       -9.0561830134  W2        1366            0.0000000000
      4097      1366  TIP3      H1              3.0044703705      -16.5059371127       -9.4745530134  W2        1366            0.0000000000
      4098      1366  TIP3      H2              2.5037703705      -17.9183171127       -9.6898630134  W2        1366            0.0000000000
      4099      1367  TIP3      OH2            10.6836303705      -17.2352271127      -10.6553530134  W2        1367            0.0000000000
      4100      1367  TIP3      H1             11.3300603705      -17.5639071127      -10.0305930134  W2        1367            0.0000000000
      4101      1367  TIP3      H2             11.1935703705      -16.7173271127      -11.2782130134  W2        1367            0.0000000000
      4102      1368  TIP3      OH2            -0.4184896295      -14.9692071127       -8.2940430134  W2        1368            0.0000000000
      4103      1368  TIP3      H1              0.2351703705      -15.5190371127       -7.8620330134  W2        1368            0.0000000000
      4104      1368  TIP3      H2             -0.3945596295      -15.2433071127       -9.2108430134  W2        1368            0.0000000000
      4105      1369  TIP3      OH2             4.7379603705      -13.4190771127       -9.0788930134  W2        1369            0.0000000000
      4106      1369  TIP3      H1              5.3540603705      -13.9455371127       -8.5694930134  W2        1369            0.0000000000
      4107      1369  TIP3      H2              4.1518403705      -14.0592071127       -9.4825330134  W2        1369            0.0000000000
      4108      1370  TIP3      OH2            15.7202703705      -16.7822171127       -3.5595430134  W2        1370            0.0000000000
      4109      1370  TIP3      H1             15.0317303705      -16.1241471127       -3.6548830134  W2        1370            0.0000000000
      4110      1370  TIP3      H2             15.7357303705      -16.9794271127       -2.6230030134  W2        1370            0.0000000000
      4111      1371  TIP3      OH2             1.7715503705      -18.4479471127       -4.9821030134  W2        1371            0.0000000000
      4112      1371  TIP3      H1              1.5527203705      -17.9178871127       -5.7485030134  W2        1371            0.0000000000
      4113      1371  TIP3      H2              1.1036403705      -18.2213971127       -4.3349630134  W2        1371            0.0000000000
      4114      1372  TIP3      OH2             9.1405303705       -8.9478371127      -11.4381930134  W2        1372            0.0000000000
      4115      1372  TIP3      H1              8.8450403705       -9.2706071127      -12.2895030134  W2        1372            0.0000000000
      4116      1372  TIP3      H2              8.8163103705       -8.0481671127      -11.3969330134  W2        1372            0.0000000000
      4117      1373  TIP3      OH2             4.3406903705      -10.7723771127       -4.6947330134  W2        1373            0.0000000000
      4118      1373  TIP3      H1              3.6006003705      -10.1742271127       -4.5912130134  W2        1373            0.0000000000
      4119      1373  TIP3      H2              5.0546403705      -10.2184171127       -5.0103730134  W2        1373            0.0000000000
      4120      1374  TIP3      OH2            12.4474703705      -17.9442971127       -8.6747630134  W2        1374            0.0000000000
      4121      1374  TIP3      H1             12.2322703705      -18.7099571127       -8.1421630134  W2        1374            0.0000000000
      4122      1374  TIP3      H2             13.1032103705      -17.4718371127       -8.1619130134  W2        1374            0.0000000000
      4123      1375  TIP3      OH2             1.3652803705      -16.5557671127       -7.0298830134  W2        1375            0.0000000000
      4124      1375  TIP3      H1              1.9789103705      -15.9230071127       -6.6566430134  W2        1375            0.0000000000
      4125      1375  TIP3      H2              1.8773503705      -17.0282671127       -7.6861930134  W2        1375            0.0000000000
      4126      1376  TIP3      OH2             2.7481203705       -8.8080771127       -3.9075830134  W2        1376            0.0000000000
      4127      1376  TIP3      H1              2.7428803705       -7.9287271127       -4.2856530134  W2        1376            0.0000000000
      4128      1376  TIP3      H2              1.8945303705       -8.8916671127       -3.4825930134  W2        1376            0.0000000000
      4129      1377  TIP3      OH2            -1.1307896295       -9.1372871127      -13.1256530134  W2        1377            0.0000000000
      4130      1377  TIP3      H1             -1.4026996295       -8.9081871127      -14.0143630134  W2        1377            0.0000000000
      4131      1377  TIP3      H2             -1.0852196295       -8.2994071127      -12.6651230134  W2        1377            0.0000000000
      4132      1378  TIP3      OH2            12.4941803705       -7.5156971127       -6.4128030134  W2        1378            0.0000000000
      4133      1378  TIP3      H1             11.5525503705       -7.4573071127       -6.2511130134  W2        1378            0.0000000000
      4134      1378  TIP3      H2             12.7707903705       -6.6096471127       -6.5498330134  W2        1378            0.0000000000
      4135      1379  TIP3      OH2            12.7948803705      -19.2291671127       -4.9954130134  W2        1379            0.0000000000
      4136      1379  TIP3      H1             12.0588003705      -18.6184571127       -5.0332830134  W2        1379            0.0000000000
      4137      1379  TIP3      H2             13.4782803705      -18.8142671127       -5.5217730134  W2        1379            0.0000000000
      4138      1380  TIP3      OH2             5.7980203705      -21.1424371127       -7.5296130134  W2        1380            0.0000000000
      4139      1380  TIP3      H1              5.6804403705      -22.0908371127       -7.5837830134  W2        1380            0.0000000000
      4140      1380  TIP3      H2              4.9430303705      -20.8098271127       -7.2565030134  W2        1380            0.0000000000
      4141      1381  TIP3      OH2            10.7463003705       -5.7343471127       -9.7876430134  W2        1381            0.0000000000
      4142      1381  TIP3      H1             11.1715303705       -6.4415571127      -10.2726830134  W2        1381            0.0000000000
      4143      1381  TIP3      H2             11.0633003705       -4.9330771127      -10.2044230134  W2        1381            0.0000000000
      4144      1382  TIP3      OH2            11.9059503705       -7.8334971127      -11.2789830134  W2        1382            0.0000000000
      4145      1382  TIP3      H1             11.6484303705       -8.5234871127      -11.8903930134  W2        1382            0.0000000000
      4146      1382  TIP3      H2             11.9770303705       -8.2763771127      -10.4333930134  W2        1382            0.0000000000
      4147      1383  TIP3      OH2            13.5919703705       -9.2668271127       -2.8016330134  W2        1383            0.0000000000
      4148      1383  TIP3      H1             13.7316003705       -9.8585771127       -3.5409330134  W2        1383            0.0000000000
      4149      1383  TIP3      H2             13.7592503705       -8.3942371127       -3.1577530134  W2        1383            0.0000000000
      4150      1384  TIP3      OH2             8.0645103705      -12.3048771127      -13.0290330134  W2        1384            0.0000000000
      4151      1384  TIP3      H1              7.3530603705      -11.7699071127      -13.3809830134  W2        1384            0.0000000000
      4152      1384  TIP3      H2              8.7554703705      -12.2496671127      -13.6891430134  W2        1384            0.0000000000
      4153      1385  TIP3      OH2             8.1184303705      -13.8474471127      -15.9905330134  W2        1385            0.0000000000
      4154      1385  TIP3      H1              8.8194203705      -13.8247571127      -15.3391330134  W2        1385            0.0000000000
      4155      1385  TIP3      H2              8.4207203705      -14.4754771127      -16.6466030134  W2        1385            0.0000000000
      4156      1386  TIP3      OH2            15.4339003705      -12.9270271127       -4.7355930134  W2        1386            0.0000000000
      4157      1386  TIP3      H1             14.7813103705      -12.2324671127       -4.6465030134  W2        1386            0.0000000000
      4158      1386  TIP3      H2             15.8989303705      -12.7169371127       -5.5454330134  W2        1386            0.0000000000
      4159      1387  TIP3      OH2            11.4702803705      -12.0955471127      -12.0774430134  W2        1387            0.0000000000
      4160      1387  TIP3      H1             10.7383803705      -11.8671771127      -11.5043830134  W2        1387            0.0000000000
      4161      1387  TIP3      H2             11.9175003705      -12.8092771127      -11.6226930134  W2        1387            0.0000000000
      4162      1388  TIP3      OH2            11.3676303705      -13.9212871127       -3.0097430134  W2        1388            0.0000000000
      4163      1388  TIP3      H1             11.4475403705      -13.1578471127       -2.4378930134  W2        1388            0.0000000000
      4164      1388  TIP3      H2             10.7664003705      -13.6420471127       -3.7002330134  W2        1388            0.0000000000
      4165      1389  TIP3      OH2             3.1156503705      -11.4649271127      -10.1949430134  W2        1389            0.0000000000
      4166      1389  TIP3      H1              2.7851703705      -11.8355871127      -11.0132430134  W2        1389            0.0000000000
      4167      1389  TIP3      H2              3.7040603705      -12.1355271127       -9.8481130134  W2        1389            0.0000000000
      4168      1390  TIP3      OH2             4.4824003705       -8.0368671127       -7.5137230134  W2        1390            0.0000000000
      4169      1390  TIP3      H1              4.3875303705       -8.6155571127       -8.2702630134  W2        1390            0.0000000000
      4170      1390  TIP3      H2              5.2117603705       -8.4082971127       -7.0174430134  W2        1390            0.0000000000
      4171      1391  TIP3      OH2             3.4822003705      -12.6963671127       -6.5614430134  W2        1391            0.0000000000
      4172      1391  TIP3      H1              4.0474503705      -12.5749471127       -7.3243230134  W2        1391            0.0000000000
      4173      1391  TIP3      H2              3.8010903705      -12.0588671127       -5.9225930134  W2        1391            0.0000000000
      4174      1392  TIP3      OH2             9.7914203705       -7.1931771127       -5.8273930134  W2        1392            0.0000000000
      4175      1392  TIP3      H1              9.5510803705       -6.5308671127       -5.1794730134  W2        1392            0.0000000000
      4176      1392  TIP3      H2              9.5932403705       -8.0276571127       -5.4024330134  W2        1392            0.0000000000
      4177      1393  TIP3      OH2             4.3622703705       -8.2970971127       -1.8442530134  W2        1393            0.0000000000
      4178      1393  TIP3      H1              4.0510203705       -7.5147771127       -1.3889330134  W2        1393            0.0000000000
      4179      1393  TIP3      H2              3.7122903705       -8.4501871127       -2.5300530134  W2        1393            0.0000000000
      4180      1394  TIP3      OH2            10.3412303705      -12.9332571127      -14.3923230134  W2        1394            0.0000000000
      4181      1394  TIP3      H1             10.9207803705      -12.7832271127      -13.6454330134  W2        1394            0.0000000000
      4182      1394  TIP3      H2             10.7552303705      -12.4625171127      -15.1156830134  W2        1394            0.0000000000
      4183      1395  TIP3      OH2             1.2822603705      -12.0989871127       -2.6156830134  W2        1395            0.0000000000
      4184      1395  TIP3      H1              1.3525803705      -11.4483071127       -1.9171830134  W2        1395            0.0000000000
      4185      1395  TIP3      H2              0.3914803705      -11.9962371127       -2.9505930134  W2        1395            0.0000000000
      4186      1396  TIP3      OH2             8.0677203705       -6.1964071127      -10.9570130134  W2        1396            0.0000000000
      4187      1396  TIP3      H1              8.5414803705       -5.9007771127      -10.1795930134  W2        1396            0.0000000000
      4188      1396  TIP3      H2              7.5046503705       -5.4582471127      -11.1900530134  W2        1396            0.0000000000
      4189      1397  TIP3      OH2             2.6018603705       -6.2255971127       -1.0808730134  W2        1397            0.0000000000
      4190      1397  TIP3      H1              2.6093903705       -6.3616271127       -2.0283230134  W2        1397            0.0000000000
      4191      1397  TIP3      H2              1.6859003705       -6.3427871127       -0.8288730134  W2        1397            0.0000000000
      4192      1398  TIP3      OH2            14.0400703705      -21.1832171127      -14.5793530134  W2        1398            0.0000000000
      4193      1398  TIP3      H1             13.1401403705      -21.0443171127      -14.2842930134  W2        1398            0.0000000000
      4194      1398  TIP3      H2             14.2919103705      -20.3517571127      -14.9811830134  W2        1398            0.0000000000
      4195      1399  TIP3      OH2             2.1059203705      -12.3954971127      -12.6056630134  W2        1399            0.0000000000
      4196      1399  TIP3      H1              1.8140503705      -11.6273271127      -13.0965330134  W2        1399            0.0000000000
      4197      1399  TIP3      H2              1.4314403705      -13.0548771127      -12.7685230134  W2        1399            0.0000000000
      4198      1400  TIP3      OH2            15.2292103705       -6.8169771127      -16.2029630134  W2        1400            0.0000000000
      4199      1400  TIP3      H1             15.3025603705       -5.8779571127      -16.0324330134  W2        1400            0.0000000000
      4200      1400  TIP3      H2             16.1347203705       -7.1221171127      -16.2592330134  W2        1400            0.0000000000
      4201      1401  TIP3      OH2            -1.8010696295      -10.0325771127       -3.7906830134  W2        1401            0.0000000000
      4202      1401  TIP3      H1             -2.3022296295      -10.0606371127       -4.6057130134  W2        1401            0.0000000000
      4203      1401  TIP3      H2             -1.7956996295      -10.9382571127       -3.4809530134  W2        1401            0.0000000000
      4204      1402  TIP3      OH2            -2.0507996295       -7.2521971127       -6.9066630134  W2        1402            0.0000000000
      4205      1402  TIP3      H1             -1.1047396295       -7.3964971127       -6.9257130134  W2        1402            0.0000000000
      4206      1402  TIP3      H2             -2.1631696295       -6.4679171127       -6.3695430134  W2        1402            0.0000000000
      4207      1403  TIP3      OH2            16.1470503705       -6.5862271127       -1.2242930134  W2        1403            0.0000000000
      4208      1403  TIP3      H1             16.0977303705       -7.5414171127       -1.2615330134  W2        1403            0.0000000000
      4209      1403  TIP3      H2             15.3202803705       -6.3186971127       -0.8229130134  W2        1403            0.0000000000
      4210      1404  TIP3      OH2             7.1254503705       -7.0123071127       -2.3481530134  W2        1404            0.0000000000
      4211      1404  TIP3      H1              7.2129103705       -6.1858471127       -1.8732430134  W2        1404            0.0000000000
      4212      1404  TIP3      H2              6.2619603705       -7.3419271127       -2.0992230134  W2        1404            0.0000000000
      4213      1405  TIP3      OH2             7.5400303705       -3.2399371127      -12.5420930134  W2        1405            0.0000000000
      4214      1405  TIP3      H1              7.4646303705       -3.3612171127      -13.4885730134  W2        1405            0.0000000000
      4215      1405  TIP3      H2              7.5729003705       -2.2906671127      -12.4236330134  W2        1405            0.0000000000
      4216      1406  TIP3      OH2             1.1934103705       -4.4512371127      -10.7611930134  W2        1406            0.0000000000
      4217      1406  TIP3      H1              1.3454503705       -4.7991971127       -9.8825430134  W2        1406            0.0000000000
      4218      1406  TIP3      H2              0.3424503705       -4.8075071127      -11.0164730134  W2        1406            0.0000000000
      4219      1407  TIP3      OH2            10.6416303705       -4.0859171127      -15.5398530134  W2        1407            0.0000000000
      4220      1407  TIP3      H1             11.0164703705       -4.8303071127      -16.0105930134  W2        1407            0.0000000000
      4221      1407  TIP3      H2             10.6460003705       -4.3558571127      -14.6215230134  W2        1407            0.0000000000
      4222      1408  TIP3      OH2            10.3104403705       -4.1602071127      -12.7906330134  W2        1408            0.0000000000
      4223      1408  TIP3      H1              9.3754203705       -4.0600171127      -12.6119330134  W2        1408            0.0000000000
      4224      1408  TIP3      H2             10.5906303705       -4.8696071127      -12.2123130134  W2        1408            0.0000000000
      4225      1409  TIP3      OH2            13.2990303705      -15.0929771127       -0.7440730134  W2        1409            0.0000000000
      4226      1409  TIP3      H1             12.8917103705      -14.6124171127       -1.4647430134  W2        1409            0.0000000000
      4227      1409  TIP3      H2             13.3396003705      -15.9983771127       -1.0519930134  W2        1409            0.0000000000
      4228      1410  TIP3      OH2             0.4479803705       -8.7090371127       -2.7474030134  W2        1410            0.0000000000
      4229      1410  TIP3      H1              0.6641103705       -9.0704771127       -1.8878230134  W2        1410            0.0000000000
      4230      1410  TIP3      H2             -0.4075496295       -9.0836571127       -2.9570530134  W2        1410            0.0000000000
      4231      1411  TIP3      OH2             3.0667803705      -20.2389871127       -6.7519830134  W2        1411            0.0000000000
      4232      1411  TIP3      H1              2.2051503705      -20.3261671127       -7.1596930134  W2        1411            0.0000000000
      4233      1411  TIP3      H2              3.0443503705      -19.3829771127       -6.3242230134  W2        1411            0.0000000000
      4234      1412  TIP3      OH2             7.7295603705      -20.5169471127       -3.3772830134  W2        1412            0.0000000000
      4235      1412  TIP3      H1              8.1498703705      -20.9322371127       -2.6242230134  W2        1412            0.0000000000
      4236      1412  TIP3      H2              6.7965203705      -20.6956171127       -3.2600830134  W2        1412            0.0000000000
      4237      1413  TIP3      OH2            11.0560503705      -16.7614271127       -2.5238330134  W2        1413            0.0000000000
      4238      1413  TIP3      H1             10.5420003705      -16.8872071127       -1.7262330134  W2        1413            0.0000000000
      4239      1413  TIP3      H2             10.9005203705      -15.8491171127       -2.7682130134  W2        1413            0.0000000000
      4240      1414  TIP3      OH2            11.8185403705      -11.9004271127      -16.7625330134  W2        1414            0.0000000000
      4241      1414  TIP3      H1             11.8606203705      -12.1230371127      -17.6925330134  W2        1414            0.0000000000
      4242      1414  TIP3      H2             12.6677503705      -11.5017171127      -16.5725430134  W2        1414            0.0000000000
      4243      1415  TIP3      OH2             7.3912903705      -18.0246071127      -16.0922030134  W2        1415            0.0000000000
      4244      1415  TIP3      H1              7.1377703705      -18.0054471127      -15.1693930134  W2        1415            0.0000000000
      4245      1415  TIP3      H2              7.1345003705      -18.8960671127      -16.3935830134  W2        1415            0.0000000000
      4246      1416  TIP3      OH2             3.1577903705      -15.2735371127       -5.6569630134  W2        1416            0.0000000000
      4247      1416  TIP3      H1              2.5160003705      -15.3138071127       -4.9479530134  W2        1416            0.0000000000
      4248      1416  TIP3      H2              3.1949903705      -14.3470671127       -5.8946630134  W2        1416            0.0000000000
      4249      1417  TIP3      OH2             3.1547003705      -15.0525271127      -10.7449630134  W2        1417            0.0000000000
      4250      1417  TIP3      H1              2.2619903705      -15.3929171127      -10.8035830134  W2        1417            0.0000000000
      4251      1417  TIP3      H2              3.6053603705      -15.4294371127      -11.5006430134  W2        1417            0.0000000000
      4252      1418  TIP3      OH2             8.6902503705      -14.6364971127      -11.9278830134  W2        1418            0.0000000000
      4253      1418  TIP3      H1              8.2812803705      -13.8216371127      -12.2194030134  W2        1418            0.0000000000
      4254      1418  TIP3      H2              9.4108703705      -14.7764871127      -12.5421730134  W2        1418            0.0000000000
      4255      1419  TIP3      OH2             7.7924103705      -14.4608571127       -0.4398130134  W2        1419            0.0000000000
      4256      1419  TIP3      H1              7.2297903705      -15.1656971127       -0.1190330134  W2        1419            0.0000000000
      4257      1419  TIP3      H2              8.6187503705      -14.5816671127        0.0279469866  W2        1419            0.0000000000
      4258      1420  TIP3      OH2             9.6950203705      -15.1904571127       -9.1139130134  W2        1420            0.0000000000
      4259      1420  TIP3      H1              9.4994703705      -14.5847771127       -9.8288530134  W2        1420            0.0000000000
      4260      1420  TIP3      H2              9.8762803705      -16.0239371127       -9.5482830134  W2        1420            0.0000000000
      4261      1421  TIP3      OH2             0.9078403705      -14.9531871127       -3.7897630134  W2        1421            0.0000000000
      4262      1421  TIP3      H1              0.8697803705      -14.5530271127       -2.9210530134  W2        1421            0.0000000000
      4263      1421  TIP3      H2              0.4169503705      -15.7699471127       -3.6994730134  W2        1421            0.0000000000
      4264      1422  TIP3      OH2             4.2735803705      -17.5789571127      -16.9911630134  W2        1422            0.0000000000
      4265      1422  TIP3      H1              3.8426503705      -18.0239471127      -16.2614230134  W2        1422            0.0000000000
      4266      1422  TIP3      H2              3.5554503705      -17.2073271127      -17.5034130134  W2        1422            0.0000000000
      4267      1423  TIP3      OH2            -2.4840796295      -17.8370071127       -9.9392930134  W2        1423            0.0000000000
      4268      1423  TIP3      H1             -1.8533096295      -17.8657971127       -9.2199030134  W2        1423            0.0000000000
      4269      1423  TIP3      H2             -2.0346496295      -18.2621371127      -10.6697030134  W2        1423            0.0000000000
      4270      1424  TIP3      OH2            -1.2098696295      -17.0908071127      -14.5152530134  W2        1424            0.0000000000
      4271      1424  TIP3      H1             -0.7356996295      -16.4998171127      -15.1001630134  W2        1424            0.0000000000
      4272      1424  TIP3      H2             -1.9272296295      -16.5605171127      -14.1682430134  W2        1424            0.0000000000
      4273      1425  TIP3      OH2             8.9589403705      -13.5523271127       -4.4426730134  W2        1425            0.0000000000
      4274      1425  TIP3      H1              9.2824203705      -14.1833571127       -5.0856230134  W2        1425            0.0000000000
      4275      1425  TIP3      H2              8.5188703705      -14.0871071127       -3.7819330134  W2        1425            0.0000000000
      4276      1426  TIP3      OH2             5.7362303705      -17.6247771127       -9.6585530134  W2        1426            0.0000000000
      4277      1426  TIP3      H1              4.8253403705      -17.5680971127       -9.3699530134  W2        1426            0.0000000000
      4278      1426  TIP3      H2              6.2415203705      -17.6852271127       -8.8478330134  W2        1426            0.0000000000
      4279      1427  TIP3      OH2             0.5645703705      -15.9961471127      -10.8317930134  W2        1427            0.0000000000
      4280      1427  TIP3      H1             -0.3246296295      -15.8965971127      -11.1718330134  W2        1427            0.0000000000
      4281      1427  TIP3      H2              0.8610603705      -16.8378471127      -11.1780030134  W2        1427            0.0000000000
      4282      1428  TIP3      OH2             4.2177503705      -15.9958871127      -13.1753330134  W2        1428            0.0000000000
      4283      1428  TIP3      H1              5.1493003705      -15.8668871127      -12.9970230134  W2        1428            0.0000000000
      4284      1428  TIP3      H2              4.0027803705      -15.3264571127      -13.8248630134  W2        1428            0.0000000000
      4285      1429  TIP3      OH2            10.1414203705      -18.3901471127       -6.3943730134  W2        1429            0.0000000000
      4286      1429  TIP3      H1              9.4645803705      -18.2588371127       -5.7304030134  W2        1429            0.0000000000
      4287      1429  TIP3      H2              9.6559103705      -18.5451971127       -7.2046030134  W2        1429            0.0000000000
      4288      1430  TIP3      OH2             2.8917703705      -14.8016671127      -15.6087230134  W2        1430            0.0000000000
      4289      1430  TIP3      H1              2.3492803705      -15.1812871127      -16.2999630134  W2        1430            0.0000000000
      4290      1430  TIP3      H2              3.7252603705      -14.6071971127      -16.0373130134  W2        1430            0.0000000000
      4291      1431  TIP3      OH2            13.4289303705       -2.7186071127       -0.1176130134  W2        1431            0.0000000000
      4292      1431  TIP3      H1             13.6288003705       -2.2944171127       -0.9520830134  W2        1431            0.0000000000
      4293      1431  TIP3      H2             14.0843003705       -2.3747871127        0.4894269866  W2        1431            0.0000000000
      4294      1432  TIP3      OH2             1.0269103705      -10.2444771127       -0.5095630134  W2        1432            0.0000000000
      4295      1432  TIP3      H1              1.7591503705       -9.9898871127        0.0518869866  W2        1432            0.0000000000
      4296      1432  TIP3      H2              0.2467803705      -10.0399371127        0.0059769866  W2        1432            0.0000000000
      4297      1433  TIP3      OH2             7.0562003705      -14.8374771127       -7.7715930134  W2        1433            0.0000000000
      4298      1433  TIP3      H1              7.6205403705      -15.3838171127       -8.3186330134  W2        1433            0.0000000000
      4299      1433  TIP3      H2              6.9085403705      -15.3592871127       -6.9828330134  W2        1433            0.0000000000
      4300      1434  TIP3      OH2             2.0581703705      -18.7008671127      -11.3531130134  W2        1434            0.0000000000
      4301      1434  TIP3      H1              1.7411203705      -19.6033371127      -11.3885730134  W2        1434            0.0000000000
      4302      1434  TIP3      H2              2.8395803705      -18.6991271127      -11.9059530134  W2        1434            0.0000000000
      4303      1435  TIP3      OH2             5.6827903705      -16.4488671127       -5.3575530134  W2        1435            0.0000000000
      4304      1435  TIP3      H1              4.8473203705      -15.9949171127       -5.2473130134  W2        1435            0.0000000000
      4305      1435  TIP3      H2              6.2068503705      -16.1730171127       -4.6055630134  W2        1435            0.0000000000
      4306      1436  TIP3      OH2             6.2270503705      -10.2360971127      -13.6729130134  W2        1436            0.0000000000
      4307      1436  TIP3      H1              5.4821503705      -10.7435671127      -13.9951230134  W2        1436            0.0000000000
      4308      1436  TIP3      H2              6.0927703705      -10.1872971127      -12.7264330134  W2        1436            0.0000000000
      4309      1437  TIP3      OH2            13.3769403705      -11.1032771127       -4.8861530134  W2        1437            0.0000000000
      4310      1437  TIP3      H1             14.0188203705      -10.6466471127       -5.4299330134  W2        1437            0.0000000000
      4311      1437  TIP3      H2             12.5466303705      -10.9900371127       -5.3487430134  W2        1437            0.0000000000
      4312      1438  TIP3      OH2            10.1247303705      -17.4221071127      -15.4736530134  W2        1438            0.0000000000
      4313      1438  TIP3      H1              9.1861503705      -17.3105471127      -15.6247730134  W2        1438            0.0000000000
      4314      1438  TIP3      H2             10.4219403705      -16.5654171127      -15.1670830134  W2        1438            0.0000000000
      4315      1439  TIP3      OH2             7.7462603705      -10.0517671127       -2.4360030134  W2        1439            0.0000000000
      4316      1439  TIP3      H1              7.4008703705      -10.4335271127       -1.6290430134  W2        1439            0.0000000000
      4317      1439  TIP3      H2              7.5462703705       -9.1184071127       -2.3647130134  W2        1439            0.0000000000
      4318      1440  TIP3      OH2            10.8430803705      -15.5548371127      -13.8129130134  W2        1440            0.0000000000
      4319      1440  TIP3      H1             11.7349803705      -15.6923371127      -13.4937930134  W2        1440            0.0000000000
      4320      1440  TIP3      H2             10.8994403705      -14.7642271127      -14.3495630134  W2        1440            0.0000000000
      4321      1441  TIP3      OH2             1.3518803705      -10.9410971127       -7.9031230134  W2        1441            0.0000000000
      4322      1441  TIP3      H1              2.0966003705      -10.9435271127       -8.5044730134  W2        1441            0.0000000000
      4323      1441  TIP3      H2              1.4295403705      -11.7647171127       -7.4216130134  W2        1441            0.0000000000
      4324      1442  TIP3      OH2             8.3524603705       -8.7776671127      -14.6474530134  W2        1442            0.0000000000
      4325      1442  TIP3      H1              8.0573003705       -7.9508771127      -14.2659730134  W2        1442            0.0000000000
      4326      1442  TIP3      H2              7.6494603705       -9.3969771127      -14.4513130134  W2        1442            0.0000000000
      4327      1443  TIP3      OH2            -1.6401496295      -12.4804071127       -2.5882730134  W2        1443            0.0000000000
      4328      1443  TIP3      H1             -1.4172896295      -12.8984471127       -1.7565230134  W2        1443            0.0000000000
      4329      1443  TIP3      H2             -2.2421396295      -13.0929071127       -3.0109930134  W2        1443            0.0000000000
      4330      1444  TIP3      OH2             5.3763403705      -12.9634171127       -0.3753030134  W2        1444            0.0000000000
      4331      1444  TIP3      H1              5.0804203705      -13.1291171127       -1.2703930134  W2        1444            0.0000000000
      4332      1444  TIP3      H2              6.3078603705      -13.1833871127       -0.3859130134  W2        1444            0.0000000000
      4333      1445  TIP3      OH2             9.9966203705       -7.5902171127       -2.4855030134  W2        1445            0.0000000000
      4334      1445  TIP3      H1              9.0960503705       -7.4069571127       -2.7531130134  W2        1445            0.0000000000
      4335      1445  TIP3      H2             10.0307303705       -7.3312871127       -1.5646230134  W2        1445            0.0000000000
      4336      1446  TIP3      OH2            15.7279503705      -15.3454271127      -14.1182430134  W2        1446            0.0000000000
      4337      1446  TIP3      H1             15.1735803705      -15.7416271127      -14.7904930134  W2        1446            0.0000000000
      4338      1446  TIP3      H2             15.8283103705      -14.4349071127      -14.3959130134  W2        1446            0.0000000000
      4339      1447  TIP3      OH2            15.6911503705       -9.5452571127       -1.2810930134  W2        1447            0.0000000000
      4340      1447  TIP3      H1             14.8400003705       -9.3068771127       -1.6484530134  W2        1447            0.0000000000
      4341      1447  TIP3      H2             16.2814903705       -9.5619371127       -2.0343830134  W2        1447            0.0000000000
      4342      1448  TIP3      OH2            14.0231203705       -6.5593871127      -13.6530330134  W2        1448            0.0000000000
      4343      1448  TIP3      H1             13.6502303705       -7.3850071127      -13.3439730134  W2        1448            0.0000000000
      4344      1448  TIP3      H2             14.3004703705       -6.7424471127      -14.5506930134  W2        1448            0.0000000000
      4345      1449  TIP3      OH2            11.1835103705      -11.7514371127       -6.6318430134  W2        1449            0.0000000000
      4346      1449  TIP3      H1             10.2552003705      -11.9832471127       -6.6589130134  W2        1449            0.0000000000
      4347      1449  TIP3      H2             11.6346203705      -12.5284571127       -6.9619630134  W2        1449            0.0000000000
      4348      1450  TIP3      OH2             3.7268203705       -7.4232771127      -10.4989730134  W2        1450            0.0000000000
      4349      1450  TIP3      H1              4.2540403705       -6.6498371127      -10.6990930134  W2        1450            0.0000000000
      4350      1450  TIP3      H2              2.8466703705       -7.1983571127      -10.8005730134  W2        1450            0.0000000000
      4351      1451  TIP3      OH2            -0.5184096295      -12.5608671127      -15.9117330134  W2        1451            0.0000000000
      4352      1451  TIP3      H1              0.0975803705      -11.9341471127      -15.5322530134  W2        1451            0.0000000000
      4353      1451  TIP3      H2             -1.3801496295      -12.2448871127      -15.6400830134  W2        1451            0.0000000000
      4354      1452  TIP3      OH2             5.1540503705       -9.7602871127      -10.9225430134  W2        1452            0.0000000000
      4355      1452  TIP3      H1              4.9130503705       -8.8348471127      -10.8810130134  W2        1452            0.0000000000
      4356      1452  TIP3      H2              4.4134103705      -10.2191571127      -10.5261530134  W2        1452            0.0000000000
      4357      1453  TIP3      OH2             5.6687103705       -5.6109271127       -4.6074330134  W2        1453            0.0000000000
      4358      1453  TIP3      H1              6.0311803705       -4.7563671127       -4.8409930134  W2        1453            0.0000000000
      4359      1453  TIP3      H2              6.2002303705       -5.9027671127       -3.8668030134  W2        1453            0.0000000000
      4360      1454  TIP3      OH2             3.8371303705       -4.7385271127      -11.3773230134  W2        1454            0.0000000000
      4361      1454  TIP3      H1              2.8871803705       -4.6327871127      -11.3259930134  W2        1454            0.0000000000
      4362      1454  TIP3      H2              4.1889403705       -3.9177871127      -11.0325730134  W2        1454            0.0000000000
      4363      1455  TIP3      OH2             9.2127903705       -9.5118571127       -4.9068730134  W2        1455            0.0000000000
      4364      1455  TIP3      H1              8.7869203705       -9.7396871127       -4.0804730134  W2        1455            0.0000000000
      4365      1455  TIP3      H2              9.7933703705      -10.2506771127       -5.0893430134  W2        1455            0.0000000000
      4366      1456  TIP3      OH2            11.4156803705       -8.5828071127      -15.8329730134  W2        1456            0.0000000000
      4367      1456  TIP3      H1             11.7689903705       -8.9628271127      -15.0286230134  W2        1456            0.0000000000
      4368      1456  TIP3      H2             10.4670303705       -8.6763271127      -15.7460430134  W2        1456            0.0000000000
      4369      1457  TIP3      OH2            11.8712103705       -4.9599071127       -2.4373930134  W2        1457            0.0000000000
      4370      1457  TIP3      H1             11.2695303705       -5.5156171127       -2.9327630134  W2        1457            0.0000000000
      4371      1457  TIP3      H2             12.1525803705       -4.2929271127       -3.0636530134  W2        1457            0.0000000000
      4372      1458  TIP3      OH2            15.9191203705       -4.1035571127      -15.6319530134  W2        1458            0.0000000000
      4373      1458  TIP3      H1             16.6629103705       -3.5175071127      -15.7717930134  W2        1458            0.0000000000
      4374      1458  TIP3      H2             15.2249303705       -3.5349771127      -15.2987130134  W2        1458            0.0000000000
      4375      1459  TIP3      OH2            -0.0061996295      -17.7271371127       -3.0301330134  W2        1459            0.0000000000
      4376      1459  TIP3      H1             -0.8989696295      -17.3885971127       -3.0977330134  W2        1459            0.0000000000
      4377      1459  TIP3      H2             -0.1049196295      -18.5825271127       -2.6120530134  W2        1459            0.0000000000
      4378      1460  TIP3      OH2            12.2816103705       -9.9106071127      -13.6061830134  W2        1460            0.0000000000
      4379      1460  TIP3      H1             12.0043703705      -10.6386771127      -13.0500730134  W2        1460            0.0000000000
      4380      1460  TIP3      H2             13.2089103705       -9.7914071127      -13.4009230134  W2        1460            0.0000000000
      4381      1461  TIP3      OH2            -0.3549996295       -5.9226971127       -4.5951930134  W2        1461            0.0000000000
      4382      1461  TIP3      H1             -0.1379696295       -6.8544571127       -4.6262230134  W2        1461            0.0000000000
      4383      1461  TIP3      H2             -0.1086496295       -5.6481971127       -3.7119130134  W2        1461            0.0000000000
      4384      1462  TIP3      OH2             5.5064603705       -7.4711971127      -17.3859730134  W2        1462            0.0000000000
      4385      1462  TIP3      H1              5.7454403705       -8.2193871127      -17.9330830134  W2        1462            0.0000000000
      4386      1462  TIP3      H2              5.2375903705       -7.8590271127      -16.5531930134  W2        1462            0.0000000000
      4387      1463  TIP3      OH2             4.4435203705       -7.9008171127      -14.9297130134  W2        1463            0.0000000000
      4388      1463  TIP3      H1              4.5903203705       -8.4208371127      -14.1396230134  W2        1463            0.0000000000
      4389      1463  TIP3      H2              4.4406903705       -6.9940571127      -14.6231230134  W2        1463            0.0000000000
      4390      1464  TIP3      OH2             0.8966303705      -10.6484871127      -14.4191730134  W2        1464            0.0000000000
      4391      1464  TIP3      H1              0.2105603705      -10.2962371127      -13.8522030134  W2        1464            0.0000000000
      4392      1464  TIP3      H2              1.4194203705       -9.8855271127      -14.6657430134  W2        1464            0.0000000000
      4393      1465  TIP3      OH2             8.7281403705      -17.9861071127       -4.1402730134  W2        1465            0.0000000000
      4394      1465  TIP3      H1              9.4269303705      -17.9122371127       -3.4903030134  W2        1465            0.0000000000
      4395      1465  TIP3      H2              8.3472803705      -18.8506071127       -3.9859830134  W2        1465            0.0000000000
      4396      1466  TIP3      OH2             9.5126303705      -18.3339371127      -13.0430430134  W2        1466            0.0000000000
      4397      1466  TIP3      H1              9.7324603705      -17.8623971127      -13.8465030134  W2        1466            0.0000000000
      4398      1466  TIP3      H2             10.0710303705      -17.9396771127      -12.3729830134  W2        1466            0.0000000000
      4399      1467  TIP3      OH2             7.1812403705       -6.2034571127      -14.1802930134  W2        1467            0.0000000000
      4400      1467  TIP3      H1              6.3648503705       -5.7064871127      -14.1278630134  W2        1467            0.0000000000
      4401      1467  TIP3      H2              7.7108703705       -5.7281071127      -14.8204130134  W2        1467            0.0000000000
      4402      1468  TIP3      OH2             6.7126203705      -16.6060571127      -12.2082030134  W2        1468            0.0000000000
      4403      1468  TIP3      H1              7.5248803705      -16.1017371127      -12.1620330134  W2        1468            0.0000000000
      4404      1468  TIP3      H2              6.4679203705      -16.7510871127      -11.2942430134  W2        1468            0.0000000000
      4405      1469  TIP3      OH2             7.2482603705      -15.6197871127       -3.0235430134  W2        1469            0.0000000000
      4406      1469  TIP3      H1              7.3672903705      -15.0462471127       -2.2665030134  W2        1469            0.0000000000
      4407      1469  TIP3      H2              7.9037203705      -16.3078471127       -2.9087630134  W2        1469            0.0000000000
      4408      1470  TIP3      OH2             7.5962903705      -19.5247571127      -11.2700930134  W2        1470            0.0000000000
      4409      1470  TIP3      H1              7.2496403705      -18.9076971127      -10.6256630134  W2        1470            0.0000000000
      4410      1470  TIP3      H2              8.2549803705      -19.0241871127      -11.7515430134  W2        1470            0.0000000000
      4411      1471  TIP3      OH2             4.5195503705       -5.1597371127      -14.1986030134  W2        1471            0.0000000000
      4412      1471  TIP3      H1              4.6804203705       -4.3599871127      -14.6993430134  W2        1471            0.0000000000
      4413      1471  TIP3      H2              4.3223303705       -4.8531371127      -13.3135430134  W2        1471            0.0000000000
      4414      1472  TIP3      OH2             3.2539903705      -18.4618171127      -14.5828430134  W2        1472            0.0000000000
      4415      1472  TIP3      H1              3.1704703705      -17.5735071127      -14.2362030134  W2        1472            0.0000000000
      4416      1472  TIP3      H2              4.1440203705      -18.7271471127      -14.3511630134  W2        1472            0.0000000000
      4417      1473  TIP3      OH2            13.4528403705      -17.7127571127       -2.1885730134  W2        1473            0.0000000000
      4418      1473  TIP3      H1             12.5364203705      -17.4505871127       -2.2762030134  W2        1473            0.0000000000
      4419      1473  TIP3      H2             13.7883403705      -17.7158571127       -3.0850430134  W2        1473            0.0000000000
      4420      1474  TIP3      OH2            12.0549403705      -13.9626571127       -8.0928430134  W2        1474            0.0000000000
      4421      1474  TIP3      H1             11.2573803705      -14.3776371127       -8.4213430134  W2        1474            0.0000000000
      4422      1474  TIP3      H2             12.5000503705      -14.6532871127       -7.6017930134  W2        1474            0.0000000000
      4423      1475  TIP3      OH2             1.5125203705       -8.0345971127      -15.5223930134  W2        1475            0.0000000000
      4424      1475  TIP3      H1              2.1046703705       -7.3351171127      -15.2461530134  W2        1475            0.0000000000
      4425      1475  TIP3      H2              1.9718203705       -8.4676471127      -16.2419330134  W2        1475            0.0000000000
      4426      1476  TIP3      OH2            -0.1715596295      -15.3702971127      -16.4064530134  W2        1476            0.0000000000
      4427      1476  TIP3      H1             -0.2162996295      -14.4309871127      -16.2277530134  W2        1476            0.0000000000
      4428      1476  TIP3      H2             -1.0592396295      -15.6058071127      -16.6762430134  W2        1476            0.0000000000
      4429      1477  TIP3      OH2            13.1414003705       -4.7064071127       -6.4704930134  W2        1477            0.0000000000
      4430      1477  TIP3      H1             12.9858303705       -4.0279671127       -7.1275630134  W2        1477            0.0000000000
      4431      1477  TIP3      H2             14.0740403705       -4.6344771127       -6.2674330134  W2        1477            0.0000000000
      4432      1478  TIP3      OH2             0.6366403705      -20.5886371127       -7.7333530134  W2        1478            0.0000000000
      4433      1478  TIP3      H1              0.4076203705      -20.5293871127       -8.6608530134  W2        1478            0.0000000000
      4434      1478  TIP3      H2              0.1939803705      -21.3800871127       -7.4269430134  W2        1478            0.0000000000
      4435      1479  TIP3      OH2            -0.4330296295       -6.6479271127      -11.5727730134  W2        1479            0.0000000000
      4436      1479  TIP3      H1             -1.2651696295       -6.1756571127      -11.5456330134  W2        1479            0.0000000000
      4437      1479  TIP3      H2              0.1128003705       -6.1381671127      -12.1714630134  W2        1479            0.0000000000
      4438      1480  TIP3      OH2            -1.1446596295       -4.0355571127       -0.2429730134  W2        1480            0.0000000000
      4439      1480  TIP3      H1             -0.6044396295       -4.2521571127        0.5169469866  W2        1480            0.0000000000
      4440      1480  TIP3      H2             -1.6258596295       -4.8409571127       -0.4327230134  W2        1480            0.0000000000
      4441      1481  TIP3      OH2             3.4526803705       -5.1161171127        1.3774469866  W2        1481            0.0000000000
      4442      1481  TIP3      H1              4.2204003705       -5.5750371127        1.7183669866  W2        1481            0.0000000000
      4443      1481  TIP3      H2              3.4313003705       -5.3421371127        0.4475669866  W2        1481            0.0000000000
      4444      1482  TIP3      OH2             7.5446403705       -5.6080571127      -17.2473730134  W2        1482            0.0000000000
      4445      1482  TIP3      H1              6.9007403705       -6.2391971127      -16.9260030134  W2        1482            0.0000000000
      4446      1482  TIP3      H2              8.3064703705       -6.1392571127      -17.4790230134  W2        1482            0.0000000000
      4447      1483  TIP3      OH2            10.0295503705       -6.7360071127        0.1065969866  W2        1483            0.0000000000
      4448      1483  TIP3      H1              9.6785003705       -7.5927071127        0.3496369866  W2        1483            0.0000000000
      4449      1483  TIP3      H2             10.7558703705       -6.5933371127        0.7134969866  W2        1483            0.0000000000
      4450      1484  TIP3      OH2            12.1489303705       -5.7910671127      -17.0135730134  W2        1484            0.0000000000
      4451      1484  TIP3      H1             12.4319703705       -6.5855471127      -16.5608830134  W2        1484            0.0000000000
      4452      1484  TIP3      H2             12.8887203705       -5.5579671127      -17.5744630134  W2        1484            0.0000000000
      4453      1485  TIP3      OH2            -1.2377096295      -10.2251471127        0.7114569866  W2        1485            0.0000000000
      4454      1485  TIP3      H1             -1.0936596295      -11.1270771127        0.4251269866  W2        1485            0.0000000000
      4455      1485  TIP3      H2             -2.0099696295       -9.9389371127        0.2236869866  W2        1485            0.0000000000
      4456      1486  TIP3      OH2             3.1036603705       -9.8815771127      -17.1560830134  W2        1486            0.0000000000
      4457      1486  TIP3      H1              3.1680703705      -10.6756171127      -16.6254430134  W2        1486            0.0000000000
      4458      1486  TIP3      H2              3.7565803705      -10.0002971127      -17.8458830134  W2        1486            0.0000000000
      4459      1487  TIP3      OH2             5.4179003705      -10.2553371127        0.1440969866  W2        1487            0.0000000000
      4460      1487  TIP3      H1              5.0892803705       -9.9845271127       -0.7131630134  W2        1487            0.0000000000
      4461      1487  TIP3      H2              5.5697203705      -11.1963571127        0.0565969866  W2        1487            0.0000000000
      4462      1488  TIP3      OH2             8.4560003705       -8.8344071127      -17.4202830134  W2        1488            0.0000000000
      4463      1488  TIP3      H1              8.1874103705       -8.6541971127      -16.5193930134  W2        1488            0.0000000000
      4464      1488  TIP3      H2              8.2495603705       -9.7597871127      -17.5517030134  W2        1488            0.0000000000
      4465      1489  TIP3      OH2            11.1524203705      -10.3396071127       -2.4726730134  W2        1489            0.0000000000
      4466      1489  TIP3      H1             11.8979003705       -9.7512371127       -2.5922730134  W2        1489            0.0000000000
      4467      1489  TIP3      H2             10.3951003705       -9.7576371127       -2.4093630134  W2        1489            0.0000000000
      4468      1490  TIP3      OH2            -0.4050596295      -13.0248171127        0.1313869866  W2        1490            0.0000000000
      4469      1490  TIP3      H1              0.0030603705      -13.8821571127        0.0104469866  W2        1490            0.0000000000
      4470      1490  TIP3      H2             -0.6652996295      -13.0106871127        1.0524169866  W2        1490            0.0000000000
      4471      1491  TIP3      OH2             4.2530403705      -11.9089571127      -14.8502830134  W2        1491            0.0000000000
      4472      1491  TIP3      H1              3.7932403705      -12.3931271127      -14.1644330134  W2        1491            0.0000000000
      4473      1491  TIP3      H2              4.5079103705      -12.5774171127      -15.4862330134  W2        1491            0.0000000000
      4474      1492  TIP3      OH2             3.5419703705      -14.0162471127       -2.4943230134  W2        1492            0.0000000000
      4475      1492  TIP3      H1              2.9235803705      -13.3415871127       -2.2138530134  W2        1492            0.0000000000
      4476      1492  TIP3      H2              3.8860903705      -13.6948571127       -3.3277030134  W2        1492            0.0000000000
      4477      1493  TIP3      OH2             5.3240803705      -13.6657771127      -16.5879630134  W2        1493            0.0000000000
      4478      1493  TIP3      H1              5.1435803705      -13.8206571127      -17.5151330134  W2        1493            0.0000000000
      4479      1493  TIP3      H2              6.2741303705      -13.5579071127      -16.5431730134  W2        1493            0.0000000000
      4480      1494  TIP3      OH2             8.5617903705      -11.5447171127        0.7831569866  W2        1494            0.0000000000
      4481      1494  TIP3      H1              9.5149103705      -11.4608071127        0.7557569866  W2        1494            0.0000000000
      4482      1494  TIP3      H2              8.4012503705      -12.2565371127        1.4026469866  W2        1494            0.0000000000
      4483      1495  TIP3      OH2            14.7139103705      -11.3113571127      -17.1421530134  W2        1495            0.0000000000
      4484      1495  TIP3      H1             14.4403903705      -11.7358071127      -17.9553230134  W2        1495            0.0000000000
      4485      1495  TIP3      H2             14.7533203705      -10.3799071127      -17.3591130134  W2        1495            0.0000000000
      4486      1496  TIP3      OH2             3.8813403705      -16.6611671127       -1.4120130134  W2        1496            0.0000000000
      4487      1496  TIP3      H1              4.0314303705      -17.3900371127       -2.0140430134  W2        1496            0.0000000000
      4488      1496  TIP3      H2              3.8835803705      -15.8839971127       -1.9707930134  W2        1496            0.0000000000
      4489      1497  TIP3      OH2             4.2939103705      -18.2915871127       -3.9192730134  W2        1497            0.0000000000
      4490      1497  TIP3      H1              4.8296603705      -17.8399171127       -4.5713430134  W2        1497            0.0000000000
      4491      1497  TIP3      H2              3.4418703705      -18.3996071127       -4.3418630134  W2        1497            0.0000000000
      4492      1498  TIP3      OH2             5.8757503705      -12.8519671127       -3.6797530134  W2        1498            0.0000000000
      4493      1498  TIP3      H1              6.6262303705      -13.0082171127       -4.2529730134  W2        1498            0.0000000000
      4494      1498  TIP3      H2              5.5365803705      -12.0003071127       -3.9552030134  W2        1498            0.0000000000
      4495      1499  TIP3      OH2            10.2913703705      -15.0367871127        1.3487769866  W2        1499            0.0000000000
      4496      1499  TIP3      H1             10.4835003705      -15.9678471127        1.2372269866  W2        1499            0.0000000000
      4497      1499  TIP3      H2             11.1490003705      -14.6118371127        1.3383169866  W2        1499            0.0000000000
      4498      1500  TIP3      OH2            11.6080903705      -12.2482671127       -0.5739530134  W2        1500            0.0000000000
      4499      1500  TIP3      H1             11.3265903705      -11.5388071127       -1.1515730134  W2        1500            0.0000000000
      4500      1500  TIP3      H2             12.5505203705      -12.3209671127       -0.7248330134  W2        1500            0.0000000000
      4501      1501  TIP3      OH2             2.3599703705      -15.4628171127        0.4995469866  W2        1501            0.0000000000
      4502      1501  TIP3      H1              1.5928703705      -15.9953371127        0.2893069866  W2        1501            0.0000000000
      4503      1501  TIP3      H2              3.0388703705      -15.7727771127       -0.0998230134  W2        1501            0.0000000000
      4504      1502  TIP3      OH2             5.0994603705      -20.8350171127       -3.4879130134  W2        1502            0.0000000000
      4505      1502  TIP3      H1              5.0014203705      -19.8886971127       -3.5932930134  W2        1502            0.0000000000
      4506      1502  TIP3      H2              4.3570803705      -21.2076371127       -3.9635630134  W2        1502            0.0000000000
      4507      1503  TIP3      OH2             6.3635103705      -16.5134771127        0.0759269866  W2        1503            0.0000000000
      4508      1503  TIP3      H1              6.1280503705      -16.7328071127        0.9774169866  W2        1503            0.0000000000
      4509      1503  TIP3      H2              5.5802003705      -16.7203571127       -0.4338230134  W2        1503            0.0000000000
      4510      1504  TIP3      OH2             9.0791703705      -17.3861271127       -0.8487230134  W2        1504            0.0000000000
      4511      1504  TIP3      H1              8.1317103705      -17.3541571127       -0.7163930134  W2        1504            0.0000000000
      4512      1504  TIP3      H2              9.3918403705      -18.0114171127       -0.1949030134  W2        1504            0.0000000000
      4513      1505  TIP3      OH2            10.7133203705      -18.7520171127        1.1564669866  W2        1505            0.0000000000
      4514      1505  TIP3      H1             10.6165003705      -19.7042871127        1.1506569866  W2        1505            0.0000000000
      4515      1505  TIP3      H2             10.3916303705      -18.4833371127        2.0170169866  W2        1505            0.0000000000
      4516      1506  TIP3      OH2             0.5402503705      -17.5424371127        0.2040169866  W2        1506            0.0000000000
      4517      1506  TIP3      H1              0.7519903705      -18.2488271127       -0.4062330134  W2        1506            0.0000000000
      4518      1506  TIP3      H2              0.4290003705      -17.9798371127        1.0481369866  W2        1506            0.0000000000
      4519      1507  TIP3      OH2             5.3212703705      -21.5412771127       -0.8166330134  W2        1507            0.0000000000
      4520      1507  TIP3      H1              6.0331103705      -22.1810571127       -0.8307230134  W2        1507            0.0000000000
      4521      1507  TIP3      H2              5.2203103705      -21.2744471127       -1.7303230134  W2        1507            0.0000000000
      4522      1508  TIP3      OH2             5.6750203705      -19.8584371127        1.2369969866  W2        1508            0.0000000000
      4523      1508  TIP3      H1              5.5432403705      -20.3340571127        0.4168469866  W2        1508            0.0000000000
      4524      1508  TIP3      H2              5.0757603705      -19.1140771127        1.1817069866  W2        1508            0.0000000000
      4525      1509  TIP3      OH2             5.2212503705       -2.9754071127      -15.5866030134  W2        1509            0.0000000000
      4526      1509  TIP3      H1              6.1543203705       -2.8175371127      -15.4427630134  W2        1509            0.0000000000
      4527      1509  TIP3      H2              4.9571303705       -2.3001071127      -16.2114530134  W2        1509            0.0000000000
      4528      1510  TIP3      OH2            -1.2102596295       -8.3390271127      -16.1037930134  W2        1510            0.0000000000
      4529      1510  TIP3      H1             -0.2963396295       -8.2601371127      -15.8304030134  W2        1510            0.0000000000
      4530      1510  TIP3      H2             -1.2029496295       -9.0260671127      -16.7702330134  W2        1510            0.0000000000
      4531      1511  TIP3      OH2            -2.5611996295       -2.9461771127      -11.0264030134  W2        1511            0.0000000000
      4532      1511  TIP3      H1             -3.2084896295       -3.4080071127      -11.5592830134  W2        1511            0.0000000000
      4533      1511  TIP3      H2             -2.2067396295       -3.6178471127      -10.4437830134  W2        1511            0.0000000000
      4534      1512  TIP3      OH2            -1.6912796295       -4.8654771127       -9.2217830134  W2        1512            0.0000000000
      4535      1512  TIP3      H1             -2.0255996295       -5.7457471127       -9.0497630134  W2        1512            0.0000000000
      4536      1512  TIP3      H2             -1.4690396295       -4.5199771127       -8.3572230134  W2        1512            0.0000000000
      4537      1513  TIP3      OH2            15.8572003705       -4.0558371127       -6.2413030134  W2        1513            0.0000000000
      4538      1513  TIP3      H1             15.8358703705       -3.8709971127       -5.3023630134  W2        1513            0.0000000000
      4539      1513  TIP3      H2             16.5478203705       -3.4874371127       -6.5821630134  W2        1513            0.0000000000
      4540      1514  TIP3      OH2            15.4204903705       -4.4887271127       -3.3193930134  W2        1514            0.0000000000
      4541      1514  TIP3      H1             14.9333603705       -5.2243171127       -3.6906530134  W2        1514            0.0000000000
      4542      1514  TIP3      H2             15.9697603705       -4.8823371127       -2.6414530134  W2        1514            0.0000000000
      4543      1515  TIP3      OH2            13.8712203705       -8.6989171127        1.3186369866  W2        1515            0.0000000000
      4544      1515  TIP3      H1             13.0053303705       -8.8039471127        1.7128669866  W2        1515            0.0000000000
      4545      1515  TIP3      H2             14.2478103705       -7.9405871127        1.7651069866  W2        1515            0.0000000000
      4546      1516  TIP3      OH2            15.1721903705      -10.4425471127      -13.1671130134  W2        1516            0.0000000000
      4547      1516  TIP3      H1             16.0223303705      -10.0214571127      -13.0399530134  W2        1516            0.0000000000
      4548      1516  TIP3      H2             15.1777003705      -11.1825371127      -12.5599730134  W2        1516            0.0000000000
      4549      1517  TIP3      OH2            15.5667503705      -12.3888071127      -11.3435430134  W2        1517            0.0000000000
      4550      1517  TIP3      H1             14.8402103705      -12.8685471127      -10.9457830134  W2        1517            0.0000000000
      4551      1517  TIP3      H2             16.1480803705      -12.1833371127      -10.6113830134  W2        1517            0.0000000000
      4552      1518  TIP3      OH2            15.3258703705       -9.6040571127       -6.3957830134  W2        1518            0.0000000000
      4553      1518  TIP3      H1             16.1592903705       -9.9820571127       -6.6764230134  W2        1518            0.0000000000
      4554      1518  TIP3      H2             15.4379003705       -8.6609371127       -6.5148730134  W2        1518            0.0000000000
      4555      1519  TIP3      OH2            13.8121003705       -6.7263071127       -4.0889430134  W2        1519            0.0000000000
      4556      1519  TIP3      H1             13.1646303705       -6.4011571127       -3.4634230134  W2        1519            0.0000000000
      4557      1519  TIP3      H2             13.2945003705       -7.1665371127       -4.7631130134  W2        1519            0.0000000000
      4558      1520  TIP3      OH2            15.8350603705      -12.4879571127      -14.9524130134  W2        1520            0.0000000000
      4559      1520  TIP3      H1             15.3131703705      -12.1315471127      -15.6713230134  W2        1520            0.0000000000
      4560      1520  TIP3      H2             15.8019803705      -11.8131771127      -14.2743230134  W2        1520            0.0000000000
      4561      1521  TIP3      OH2            14.1839603705      -15.2483971127      -16.4017030134  W2        1521            0.0000000000
      4562      1521  TIP3      H1             14.2804003705      -14.5816971127      -17.0817330134  W2        1521            0.0000000000
      4563      1521  TIP3      H2             14.0439203705      -16.0637671127      -16.8831530134  W2        1521            0.0000000000
      4564      1522  TIP3      OH2            13.3534303705      -13.8681571127      -10.7806730134  W2        1522            0.0000000000
      4565      1522  TIP3      H1             13.2033103705      -14.8132971127      -10.8008930134  W2        1522            0.0000000000
      4566      1522  TIP3      H2             12.9998803705      -13.5870171127       -9.9367630134  W2        1522            0.0000000000
      4567      1523  TIP3      OH2            -1.6113296295      -11.7899371127       -6.7702930134  W2        1523            0.0000000000
      4568      1523  TIP3      H1             -1.4270396295      -11.8717671127       -7.7060030134  W2        1523            0.0000000000
      4569      1523  TIP3      H2             -0.7620396295      -11.9142371127       -6.3466530134  W2        1523            0.0000000000
      4570      1524  TIP3      OH2            14.2097203705      -11.8978271127       -1.1418430134  W2        1524            0.0000000000
      4571      1524  TIP3      H1             14.7924503705      -12.6325971127       -0.9501230134  W2        1524            0.0000000000
      4572      1524  TIP3      H2             14.7736503705      -11.1257971127       -1.0952630134  W2        1524            0.0000000000
      4573      1525  TIP3      OH2            15.7064303705      -13.9952471127       -0.4573030134  W2        1525            0.0000000000
      4574      1525  TIP3      H1             14.8431003705      -14.3740371127       -0.6228330134  W2        1525            0.0000000000
      4575      1525  TIP3      H2             16.3108003705      -14.7337671127       -0.5317230134  W2        1525            0.0000000000
      4576      1526  TIP3      OH2            13.4313403705      -17.8404171127      -17.2841530134  W2        1526            0.0000000000
      4577      1526  TIP3      H1             14.0419203705      -18.2117371127      -16.6473330134  W2        1526            0.0000000000
      4578      1526  TIP3      H2             12.5944903705      -18.2617271127      -17.0881530134  W2        1526            0.0000000000
      4579      1527  TIP3      OH2            13.0639103705      -16.2855771127      -12.3181630134  W2        1527            0.0000000000
      4580      1527  TIP3      H1             13.3436203705      -17.1925371127      -12.1939930134  W2        1527            0.0000000000
      4581      1527  TIP3      H2             13.8230803705      -15.8514271127      -12.7072430134  W2        1527            0.0000000000
      4582      1528  TIP3      OH2            13.6757403705      -15.7038371127       -6.8822730134  W2        1528            0.0000000000
      4583      1528  TIP3      H1             14.6085403705      -15.4918471127       -6.9166730134  W2        1528            0.0000000000
      4584      1528  TIP3      H2             13.4404903705      -15.6026271127       -5.9599730134  W2        1528            0.0000000000
      4585      1529  TIP3      OH2            13.7049303705      -14.9673071127       -4.1063330134  W2        1529            0.0000000000
      4586      1529  TIP3      H1             12.8620603705      -14.6992671127       -3.7403530134  W2        1529            0.0000000000
      4587      1529  TIP3      H2             14.1473603705      -14.1451171127       -4.3172230134  W2        1529            0.0000000000
      4588      1530  TIP3      OH2            -2.0138496295      -16.5194371127       -0.6294130134  W2        1530            0.0000000000
      4589      1530  TIP3      H1             -1.0943596295      -16.6416071127       -0.3931030134  W2        1530            0.0000000000
      4590      1530  TIP3      H2             -2.4633996295      -17.2694671127       -0.2400630134  W2        1530            0.0000000000
      4591      1531  TIP3      OH2            15.9880903705      -20.9872871127        1.2471669866  W2        1531            0.0000000000
      4592      1531  TIP3      H1             16.3377903705      -21.6409371127        0.6416369866  W2        1531            0.0000000000
      4593      1531  TIP3      H2             16.1350403705      -20.1498771127        0.8074269866  W2        1531            0.0000000000
      4594      1532  TIP3      OH2            13.6773903705      -19.0226471127      -12.2699630134  W2        1532            0.0000000000
      4595      1532  TIP3      H1             13.8598903705      -19.4714971127      -11.4444630134  W2        1532            0.0000000000
      4596      1532  TIP3      H2             13.0776803705      -19.6072071127      -12.7335030134  W2        1532            0.0000000000
      4597      1533  TIP3      OH2            -0.7925996295      -18.2072771127       -7.7381230134  W2        1533            0.0000000000
      4598      1533  TIP3      H1             -0.3474396295      -18.9990271127       -7.4361530134  W2        1533            0.0000000000
      4599      1533  TIP3      H2             -0.3262996295      -17.4907571127       -7.3075630134  W2        1533            0.0000000000
      4600      1534  TIP3      OH2            -2.4885696295      -15.2079771127       -6.6691030134  W2        1534            0.0000000000
      4601      1534  TIP3      H1             -1.9965896295      -15.4289271127       -7.4599030134  W2        1534            0.0000000000
      4602      1534  TIP3      H2             -2.1264796295      -14.3676371127       -6.3881530134  W2        1534            0.0000000000
      4603      1535  TIP3      OH2            15.5078103705      -18.8778271127       -0.4037030134  W2        1535            0.0000000000
      4604      1535  TIP3      H1             14.5903803705      -18.6071171127       -0.4393530134  W2        1535            0.0000000000
      4605      1535  TIP3      H2             15.6307503705      -19.4129871127       -1.1877330134  W2        1535            0.0000000000
      4606      1536  TIP3      OH2            15.5440103705      -18.9548371127      -15.7419330134  W2        1536            0.0000000000
      4607      1536  TIP3      H1             15.9562703705      -19.6762671127      -16.2171330134  W2        1536            0.0000000000
      4608      1536  TIP3      H2             16.2256603705      -18.2853771127      -15.6835030134  W2        1536            0.0000000000
      4609      1537  TIP3      OH2            -2.1749196295      -18.9500671127      -12.6148630134  W2        1537            0.0000000000
      4610      1537  TIP3      H1             -3.1000796295      -18.7414071127      -12.7443130134  W2        1537            0.0000000000
      4611      1537  TIP3      H2             -1.7209296295      -18.4659871127      -13.3046330134  W2        1537            0.0000000000
      4612      1538  TIP3      OH2            12.5958003705       -3.9658971127      -10.6691230134  W2        1538            0.0000000000
      4613      1538  TIP3      H1             13.2480903705       -4.3136871127      -11.2772130134  W2        1538            0.0000000000
      4614      1538  TIP3      H2             13.1061803705       -3.4775771127      -10.0231530134  W2        1538            0.0000000000
      4615      1539  TIP3      OH2            -2.2113796295      -20.2121671127       -4.2706130134  W2        1539            0.0000000000
      4616      1539  TIP3      H1             -2.8763296295      -20.4581371127       -3.6275230134  W2        1539            0.0000000000
      4617      1539  TIP3      H2             -2.6542496295      -19.5901271127       -4.8478130134  W2        1539            0.0000000000
      4618      1540  TIP3      OH2            -0.0194496295       -7.0367571127       -0.1260330134  W2        1540            0.0000000000
      4619      1540  TIP3      H1             -0.8401996295       -6.8621071127       -0.5865630134  W2        1540            0.0000000000
      4620      1540  TIP3      H2             -0.2716696295       -7.1102871127        0.7944069866  W2        1540            0.0000000000
      4621      1541  TIP3      OH2             2.9348403705       -6.0626371127       -3.8676330134  W2        1541            0.0000000000
      4622      1541  TIP3      H1              2.5099503705       -5.2527871127       -4.1501730134  W2        1541            0.0000000000
      4623      1541  TIP3      H2              3.8391203705       -5.9772271127       -4.1696530134  W2        1541            0.0000000000
      4624      1542  TIP3      OH2             7.2459803705       -4.6636371127       -0.9082630134  W2        1542            0.0000000000
      4625      1542  TIP3      H1              7.4307303705       -4.9970271127       -0.0302330134  W2        1542            0.0000000000
      4626      1542  TIP3      H2              8.0924303705       -4.3537771127       -1.2303430134  W2        1542            0.0000000000
      4627      1543  TIP3      OH2             9.5910203705       -3.3777471127       -1.6641230134  W2        1543            0.0000000000
      4628      1543  TIP3      H1             10.2679103705       -4.0105171127       -1.9042030134  W2        1543            0.0000000000
      4629      1543  TIP3      H2              9.9129003705       -2.9766971127       -0.8567930134  W2        1543            0.0000000000
      4630      1544  TIP3      OH2            14.5084003705      -20.7881971127       -2.5846230134  W2        1544            0.0000000000
      4631      1544  TIP3      H1             13.6957503705      -20.4631671127       -2.9721530134  W2        1544            0.0000000000
      4632      1544  TIP3      H2             14.7412503705      -21.5483471127       -3.1177130134  W2        1544            0.0000000000
      4633      1545  TIP3      OH2             0.3365103705       -2.8062471127       -3.8201030134  W2        1545            0.0000000000
      4634      1545  TIP3      H1             -0.3838496295       -2.3661471127       -4.2713330134  W2        1545            0.0000000000
      4635      1545  TIP3      H2             -0.0290896295       -3.0567771127       -2.9717030134  W2        1545            0.0000000000
      4636      1546  TIP3      OH2             2.8037703705       -3.2058571127       -4.7903830134  W2        1546            0.0000000000
      4637      1546  TIP3      H1              1.9389903705       -3.1340071127       -4.3863730134  W2        1546            0.0000000000
      4638      1546  TIP3      H2              2.7486703705       -2.6591271127       -5.5741330134  W2        1546            0.0000000000
      4639      1547  TIP3      OH2             7.5143303705       -3.3179671127       -5.6147830134  W2        1547            0.0000000000
      4640      1547  TIP3      H1              7.0577303705       -2.7889971127       -6.2689430134  W2        1547            0.0000000000
      4641      1547  TIP3      H2              7.6771303705       -2.7148271127       -4.8895530134  W2        1547            0.0000000000
      4642      1548  TIP3      OH2             9.8419603705       -4.4400071127       -4.6697530134  W2        1548            0.0000000000
      4643      1548  TIP3      H1              8.9373303705       -4.2749871127       -4.9355430134  W2        1548            0.0000000000
      4644      1548  TIP3      H2             10.2708203705       -3.5867871127       -4.7354130134  W2        1548            0.0000000000
      4645      1549  TIP3      OH2            12.4461503705       -2.8700971127       -4.3749730134  W2        1549            0.0000000000
      4646      1549  TIP3      H1             12.2643503705       -1.9542071127       -4.5854830134  W2        1549            0.0000000000
      4647      1549  TIP3      H2             12.6229303705       -3.2803871127       -5.2215130134  W2        1549            0.0000000000
      4648      1550  TIP3      OH2            -0.2486796295       -4.1829971127       -6.9099230134  W2        1550            0.0000000000
      4649      1550  TIP3      H1             -0.2670796295       -4.6084871127       -6.0526930134  W2        1550            0.0000000000
      4650      1550  TIP3      H2              0.5561103705       -4.5014971127       -7.3187030134  W2        1550            0.0000000000
      4651      1551  TIP3      OH2             1.8926303705       -5.4731271127       -8.2549330134  W2        1551            0.0000000000
      4652      1551  TIP3      H1              1.6737003705       -6.3893871127       -8.0853330134  W2        1551            0.0000000000
      4653      1551  TIP3      H2              2.7168503705       -5.3330871127       -7.7887930134  W2        1551            0.0000000000
      4654      1552  TIP3      OH2             4.4298803705       -5.0031971127       -7.4061330134  W2        1552            0.0000000000
      4655      1552  TIP3      H1              4.6424503705       -5.8912971127       -7.6930430134  W2        1552            0.0000000000
      4656      1552  TIP3      H2              4.4943903705       -5.0374271127       -6.4517330134  W2        1552            0.0000000000
      4657      1553  TIP3      OH2             7.9382503705      -19.3391371127       -8.2618030134  W2        1553            0.0000000000
      4658      1553  TIP3      H1              7.2639303705      -19.9685771127       -8.0062230134  W2        1553            0.0000000000
      4659      1553  TIP3      H2              8.5021703705      -19.8232471127       -8.8650130134  W2        1553            0.0000000000
      4660      1554  TIP3      OH2            13.0809703705      -21.2317371127       -8.1490930134  W2        1554            0.0000000000
      4661      1554  TIP3      H1             13.6847303705      -20.6841971127       -8.6509930134  W2        1554            0.0000000000
      4662      1554  TIP3      H2             12.2111703705      -20.9126971127       -8.3896830134  W2        1554            0.0000000000
      4663      1555  TIP3      OH2            14.8080103705      -20.0928671127       -9.8160030134  W2        1555            0.0000000000
      4664      1555  TIP3      H1             15.4197603705      -20.6072971127      -10.3426430134  W2        1555            0.0000000000
      4665      1555  TIP3      H2             15.1903503705      -19.2156571127       -9.7925630134  W2        1555            0.0000000000
      4666      1556  TIP3      OH2             0.2650003705      -20.7051071127      -10.4398130134  W2        1556            0.0000000000
      4667      1556  TIP3      H1             -0.5120196295      -20.9396171127      -10.9472230134  W2        1556            0.0000000000
      4668      1556  TIP3      H2              0.7953603705      -21.5018971127      -10.4310130134  W2        1556            0.0000000000
      4669      1557  TIP3      OH2            -0.8986596295      -20.9072971127      -14.6362030134  W2        1557            0.0000000000
      4670      1557  TIP3      H1             -0.4595896295      -20.2962471127      -15.2278530134  W2        1557            0.0000000000
      4671      1557  TIP3      H2             -1.5324196295      -20.3688871127      -14.1622030134  W2        1557            0.0000000000
      4672      1558  TIP3      OH2             4.8442603705      -20.7783971127      -10.6265030134  W2        1558            0.0000000000
      4673      1558  TIP3      H1              5.7186003705      -20.3899671127      -10.6560730134  W2        1558            0.0000000000
      4674      1558  TIP3      H2              4.7083403705      -20.9936171127       -9.7037830134  W2        1558            0.0000000000
      4675      1559  TIP3      OH2            10.4011003705      -20.7484171127       -8.9773330134  W2        1559            0.0000000000
      4676      1559  TIP3      H1             10.4772603705      -20.6532571127       -9.9267330134  W2        1559            0.0000000000
      4677      1559  TIP3      H2             10.1260203705      -21.6561271127       -8.8484230134  W2        1559            0.0000000000
      4678      1560  TIP3      OH2            11.7543603705      -20.7226371127      -13.2848330134  W2        1560            0.0000000000
      4679      1560  TIP3      H1             11.0514703705      -20.1077171127      -13.4946930134  W2        1560            0.0000000000
      4680      1560  TIP3      H2             11.3095003705      -21.5599671127      -13.1537430134  W2        1560            0.0000000000
      4681      1561  TIP3      OH2            -0.9977096295       -4.9590771127      -13.7386930134  W2        1561            0.0000000000
      4682      1561  TIP3      H1             -1.6827196295       -4.9971871127      -14.4061830134  W2        1561            0.0000000000
      4683      1561  TIP3      H2             -0.9939896295       -4.0463171127      -13.4504830134  W2        1561            0.0000000000
      4684      1562  TIP3      OH2             0.9622503705      -18.9911471127      -16.1937930134  W2        1562            0.0000000000
      4685      1562  TIP3      H1              1.4535903705      -19.6209071127      -16.7212430134  W2        1562            0.0000000000
      4686      1562  TIP3      H2              1.5858803705      -18.6952071127      -15.5306730134  W2        1562            0.0000000000
      4687      1563  TIP3      OH2             5.9882603705      -18.6979971127      -13.7367430134  W2        1563            0.0000000000
      4688      1563  TIP3      H1              6.1663903705      -19.3446771127      -13.0538830134  W2        1563            0.0000000000
      4689      1563  TIP3      H2              5.9348803705      -17.8642271127      -13.2696330134  W2        1563            0.0000000000
      4690      1564  TIP3      OH2             7.8666403705       -3.7495871127      -15.3410730134  W2        1564            0.0000000000
      4691      1564  TIP3      H1              8.7326603705       -3.3828471127      -15.5192530134  W2        1564            0.0000000000
      4692      1564  TIP3      H2              7.6199203705       -4.1887871127      -16.1549930134  W2        1564            0.0000000000
      4693      1565  TIP3      OH2            14.5756003705       -4.1865571127      -12.6619630134  W2        1565            0.0000000000
      4694      1565  TIP3      H1             14.3813103705       -4.9343471127      -13.2270030134  W2        1565            0.0000000000
      4695      1565  TIP3      H2             14.5366103705       -3.4285471127      -13.2451730134  W2        1565            0.0000000000
      4696      1566  TIP3      OH2             0.2228003705      -20.1909171127       -0.9221930134  W2        1566            0.0000000000
      4697      1566  TIP3      H1             -0.1433796295      -20.9566571127       -0.4797230134  W2        1566            0.0000000000
      4698      1566  TIP3      H2              1.1356503705      -20.1618971127       -0.6356830134  W2        1566            0.0000000000
      4699      1567  TIP3      OH2             2.1958803705      -20.8404771127        0.6135169866  W2        1567            0.0000000000
      4700      1567  TIP3      H1              3.0942403705      -21.1144571127        0.4288569866  W2        1567            0.0000000000
      4701      1567  TIP3      H2              1.8091903705      -21.5828771127        1.0777769866  W2        1567            0.0000000000
      4702      1568  TIP3      OH2             0.8204103705       -4.0389971127      -16.7134830134  W2        1568            0.0000000000
      4703      1568  TIP3      H1              0.5528703705       -3.7527071127      -15.8401730134  W2        1568            0.0000000000
      4704      1568  TIP3      H2              1.5916703705       -4.5850771127      -16.5612330134  W2        1568            0.0000000000
      4705      1569  TIP3      OH2            10.6171103705      -21.5079471127        0.7957969866  W2        1569            0.0000000000
      4706      1569  TIP3      H1             10.6938303705      -21.9338771127        1.6495669866  W2        1569            0.0000000000
      4707      1569  TIP3      H2             11.5107703705      -21.4944771127        0.4531469866  W2        1569            0.0000000000
      4708      1570  TIP3      OH2            13.7932203705       -5.4353171127       -0.5117830134  W2        1570            0.0000000000
      4709      1570  TIP3      H1             13.0114103705       -5.6215171127       -1.0317230134  W2        1570            0.0000000000
      4710      1570  TIP3      H2             13.7212103705       -4.5058871127       -0.2945330134  W2        1570            0.0000000000
      4711      1571  TIP3      OH2            28.1992603705      -11.5488771127      -10.4810630134  W2        1571            0.0000000000
      4712      1571  TIP3      H1             28.2883703705      -10.6050571127      -10.6133530134  W2        1571            0.0000000000
      4713      1571  TIP3      H2             27.5610203705      -11.8242371127      -11.1391230134  W2        1571            0.0000000000
      4714      1572  TIP3      OH2            27.1323903705      -12.2938071127       -7.0622430134  W2        1572            0.0000000000
      4715      1572  TIP3      H1             27.0941403705      -12.9401771127       -6.3572830134  W2        1572            0.0000000000
      4716      1572  TIP3      H2             26.8100403705      -12.7603671127       -7.8333730134  W2        1572            0.0000000000
      4717      1573  TIP3      OH2            19.5008903705      -12.6795971127       -5.4692530134  W2        1573            0.0000000000
      4718      1573  TIP3      H1             19.5421003705      -13.3052671127       -4.7460130134  W2        1573            0.0000000000
      4719      1573  TIP3      H2             20.2036603705      -12.0557371127       -5.2872130134  W2        1573            0.0000000000
      4720      1574  TIP3      OH2            30.8384103705       -9.3547671127       -8.7607330134  W2        1574            0.0000000000
      4721      1574  TIP3      H1             30.3976803705      -10.0751671127       -8.3101730134  W2        1574            0.0000000000
      4722      1574  TIP3      H2             30.8253803705       -8.6340471127       -8.1309630134  W2        1574            0.0000000000
      4723      1575  TIP3      OH2            20.4242003705       -8.2297071127       -6.9343430134  W2        1575            0.0000000000
      4724      1575  TIP3      H1             20.0547203705       -9.0316571127       -7.3039130134  W2        1575            0.0000000000
      4725      1575  TIP3      H2             21.3653103705       -8.3982171127       -6.8880030134  W2        1575            0.0000000000
      4726      1576  TIP3      OH2            17.0342503705      -14.5694471127      -11.5414630134  W2        1576            0.0000000000
      4727      1576  TIP3      H1             16.5865903705      -13.7235771127      -11.5598130134  W2        1576            0.0000000000
      4728      1576  TIP3      H2             16.4733703705      -15.1490271127      -12.0569530134  W2        1576            0.0000000000
      4729      1577  TIP3      OH2            17.7448603705      -12.4074871127       -9.4156630134  W2        1577            0.0000000000
      4730      1577  TIP3      H1             17.9582103705      -13.1773271127       -8.8883630134  W2        1577            0.0000000000
      4731      1577  TIP3      H2             18.4826203705      -12.3178171127      -10.0189030134  W2        1577            0.0000000000
      4732      1578  TIP3      OH2            27.9499603705       -4.2505971127       -8.5486930134  W2        1578            0.0000000000
      4733      1578  TIP3      H1             28.5696003705       -4.9271271127       -8.8217730134  W2        1578            0.0000000000
      4734      1578  TIP3      H2             27.7417003705       -4.4685171127       -7.6402030134  W2        1578            0.0000000000
      4735      1579  TIP3      OH2            25.5218303705       -9.8616671127       -6.6561430134  W2        1579            0.0000000000
      4736      1579  TIP3      H1             25.8256203705      -10.5475271127       -7.2507330134  W2        1579            0.0000000000
      4737      1579  TIP3      H2             26.2432303705       -9.7427971127       -6.0383430134  W2        1579            0.0000000000
      4738      1580  TIP3      OH2            34.1848103705      -18.2601371127       -5.7955230134  W2        1580            0.0000000000
      4739      1580  TIP3      H1             34.2340303705      -17.6500171127       -5.0596130134  W2        1580            0.0000000000
      4740      1580  TIP3      H2             34.6103203705      -17.7990471127       -6.5184130134  W2        1580            0.0000000000
      4741      1581  TIP3      OH2            28.6625303705      -15.4674271127       -6.3286630134  W2        1581            0.0000000000
      4742      1581  TIP3      H1             28.8051203705      -16.4137271127       -6.3085030134  W2        1581            0.0000000000
      4743      1581  TIP3      H2             28.5564303705      -15.2604471127       -7.2571730134  W2        1581            0.0000000000
      4744      1582  TIP3      OH2            21.8173603705      -17.3657871127       -9.0561830134  W2        1582            0.0000000000
      4745      1582  TIP3      H1             21.8604703705      -16.5059371127       -9.4745530134  W2        1582            0.0000000000
      4746      1582  TIP3      H2             21.3597703705      -17.9183171127       -9.6898630134  W2        1582            0.0000000000
      4747      1583  TIP3      OH2            29.5396303705      -17.2352271127      -10.6553530134  W2        1583            0.0000000000
      4748      1583  TIP3      H1             30.1860603705      -17.5639071127      -10.0305930134  W2        1583            0.0000000000
      4749      1583  TIP3      H2             30.0495703705      -16.7173271127      -11.2782130134  W2        1583            0.0000000000
      4750      1584  TIP3      OH2            18.4375103705      -14.9692071127       -8.2940430134  W2        1584            0.0000000000
      4751      1584  TIP3      H1             19.0911703705      -15.5190371127       -7.8620330134  W2        1584            0.0000000000
      4752      1584  TIP3      H2             18.4614403705      -15.2433071127       -9.2108430134  W2        1584            0.0000000000
      4753      1585  TIP3      OH2            23.5939603705      -13.4190771127       -9.0788930134  W2        1585            0.0000000000
      4754      1585  TIP3      H1             24.2100603705      -13.9455371127       -8.5694930134  W2        1585            0.0000000000
      4755      1585  TIP3      H2             23.0078403705      -14.0592071127       -9.4825330134  W2        1585            0.0000000000
      4756      1586  TIP3      OH2            34.5762703705      -16.7822171127       -3.5595430134  W2        1586            0.0000000000
      4757      1586  TIP3      H1             33.8877303705      -16.1241471127       -3.6548830134  W2        1586            0.0000000000
      4758      1586  TIP3      H2             34.5917303705      -16.9794271127       -2.6230030134  W2        1586            0.0000000000
      4759      1587  TIP3      OH2            20.6275503705      -18.4479471127       -4.9821030134  W2        1587            0.0000000000
      4760      1587  TIP3      H1             20.4087203705      -17.9178871127       -5.7485030134  W2        1587            0.0000000000
      4761      1587  TIP3      H2             19.9596403705      -18.2213971127       -4.3349630134  W2        1587            0.0000000000
      4762      1588  TIP3      OH2            27.9965303705       -8.9478371127      -11.4381930134  W2        1588            0.0000000000
      4763      1588  TIP3      H1             27.7010403705       -9.2706071127      -12.2895030134  W2        1588            0.0000000000
      4764      1588  TIP3      H2             27.6723103705       -8.0481671127      -11.3969330134  W2        1588            0.0000000000
      4765      1589  TIP3      OH2            23.1966903705      -10.7723771127       -4.6947330134  W2        1589            0.0000000000
      4766      1589  TIP3      H1             22.4566003705      -10.1742271127       -4.5912130134  W2        1589            0.0000000000
      4767      1589  TIP3      H2             23.9106403705      -10.2184171127       -5.0103730134  W2        1589            0.0000000000
      4768      1590  TIP3      OH2            31.3034703705      -17.9442971127       -8.6747630134  W2        1590            0.0000000000
      4769      1590  TIP3      H1             31.0882703705      -18.7099571127       -8.1421630134  W2        1590            0.0000000000
      4770      1590  TIP3      H2             31.9592103705      -17.4718371127       -8.1619130134  W2        1590            0.0000000000
      4771      1591  TIP3      OH2            20.2212803705      -16.5557671127       -7.0298830134  W2        1591            0.0000000000
      4772      1591  TIP3      H1             20.8349103705      -15.9230071127       -6.6566430134  W2        1591            0.0000000000
      4773      1591  TIP3      H2             20.7333503705      -17.0282671127       -7.6861930134  W2        1591            0.0000000000
      4774      1592  TIP3      OH2            21.6041203705       -8.8080771127       -3.9075830134  W2        1592            0.0000000000
      4775      1592  TIP3      H1             21.5988803705       -7.9287271127       -4.2856530134  W2        1592            0.0000000000
      4776      1592  TIP3      H2             20.7505303705       -8.8916671127       -3.4825930134  W2        1592            0.0000000000
      4777      1593  TIP3      OH2            17.7252103705       -9.1372871127      -13.1256530134  W2        1593            0.0000000000
      4778      1593  TIP3      H1             17.4533003705       -8.9081871127      -14.0143630134  W2        1593            0.0000000000
      4779      1593  TIP3      H2             17.7707803705       -8.2994071127      -12.6651230134  W2        1593            0.0000000000
      4780      1594  TIP3      OH2            31.3501803705       -7.5156971127       -6.4128030134  W2        1594            0.0000000000
      4781      1594  TIP3      H1             30.4085503705       -7.4573071127       -6.2511130134  W2        1594            0.0000000000
      4782      1594  TIP3      H2             31.6267903705       -6.6096471127       -6.5498330134  W2        1594            0.0000000000
      4783      1595  TIP3      OH2            31.6508803705      -19.2291671127       -4.9954130134  W2        1595            0.0000000000
      4784      1595  TIP3      H1             30.9148003705      -18.6184571127       -5.0332830134  W2        1595            0.0000000000
      4785      1595  TIP3      H2             32.3342803705      -18.8142671127       -5.5217730134  W2        1595            0.0000000000
      4786      1596  TIP3      OH2            24.6540203705      -21.1424371127       -7.5296130134  W2        1596            0.0000000000
      4787      1596  TIP3      H1             24.5364403705      -22.0908371127       -7.5837830134  W2        1596            0.0000000000
      4788      1596  TIP3      H2             23.7990303705      -20.8098271127       -7.2565030134  W2        1596            0.0000000000
      4789      1597  TIP3      OH2            29.6023003705       -5.7343471127       -9.7876430134  W2        1597            0.0000000000
      4790      1597  TIP3      H1             30.0275303705       -6.4415571127      -10.2726830134  W2        1597            0.0000000000
      4791      1597  TIP3      H2             29.9193003705       -4.9330771127      -10.2044230134  W2        1597            0.0000000000
      4792      1598  TIP3      OH2            30.7619503705       -7.8334971127      -11.2789830134  W2        1598            0.0000000000
      4793      1598  TIP3      H1             30.5044303705       -8.5234871127      -11.8903930134  W2        1598            0.0000000000
      4794      1598  TIP3      H2             30.8330303705       -8.2763771127      -10.4333930134  W2        1598            0.0000000000
      4795      1599  TIP3      OH2            32.4479703705       -9.2668271127       -2.8016330134  W2        1599            0.0000000000
      4796      1599  TIP3      H1             32.5876003705       -9.8585771127       -3.5409330134  W2        1599            0.0000000000
      4797      1599  TIP3      H2             32.6152503705       -8.3942371127       -3.1577530134  W2        1599            0.0000000000
      4798      1600  TIP3      OH2            26.9205103705      -12.3048771127      -13.0290330134  W2        1600            0.0000000000
      4799      1600  TIP3      H1             26.2090603705      -11.7699071127      -13.3809830134  W2        1600            0.0000000000
      4800      1600  TIP3      H2             27.6114703705      -12.2496671127      -13.6891430134  W2        1600            0.0000000000
      4801      1601  TIP3      OH2            26.9744303705      -13.8474471127      -15.9905330134  W2        1601            0.0000000000
      4802      1601  TIP3      H1             27.6754203705      -13.8247571127      -15.3391330134  W2        1601            0.0000000000
      4803      1601  TIP3      H2             27.2767203705      -14.4754771127      -16.6466030134  W2        1601            0.0000000000
      4804      1602  TIP3      OH2            34.2899003705      -12.9270271127       -4.7355930134  W2        1602            0.0000000000
      4805      1602  TIP3      H1             33.6373103705      -12.2324671127       -4.6465030134  W2        1602            0.0000000000
      4806      1602  TIP3      H2             34.7549303705      -12.7169371127       -5.5454330134  W2        1602            0.0000000000
      4807      1603  TIP3      OH2            30.3262803705      -12.0955471127      -12.0774430134  W2        1603            0.0000000000
      4808      1603  TIP3      H1             29.5943803705      -11.8671771127      -11.5043830134  W2        1603            0.0000000000
      4809      1603  TIP3      H2             30.7735003705      -12.8092771127      -11.6226930134  W2        1603            0.0000000000
      4810      1604  TIP3      OH2            30.2236303705      -13.9212871127       -3.0097430134  W2        1604            0.0000000000
      4811      1604  TIP3      H1             30.3035403705      -13.1578471127       -2.4378930134  W2        1604            0.0000000000
      4812      1604  TIP3      H2             29.6224003705      -13.6420471127       -3.7002330134  W2        1604            0.0000000000
      4813      1605  TIP3      OH2            21.9716503705      -11.4649271127      -10.1949430134  W2        1605            0.0000000000
      4814      1605  TIP3      H1             21.6411703705      -11.8355871127      -11.0132430134  W2        1605            0.0000000000
      4815      1605  TIP3      H2             22.5600603705      -12.1355271127       -9.8481130134  W2        1605            0.0000000000
      4816      1606  TIP3      OH2            23.3384003705       -8.0368671127       -7.5137230134  W2        1606            0.0000000000
      4817      1606  TIP3      H1             23.2435303705       -8.6155571127       -8.2702630134  W2        1606            0.0000000000
      4818      1606  TIP3      H2             24.0677603705       -8.4082971127       -7.0174430134  W2        1606            0.0000000000
      4819      1607  TIP3      OH2            22.3382003705      -12.6963671127       -6.5614430134  W2        1607            0.0000000000
      4820      1607  TIP3      H1             22.9034503705      -12.5749471127       -7.3243230134  W2        1607            0.0000000000
      4821      1607  TIP3      H2             22.6570903705      -12.0588671127       -5.9225930134  W2        1607            0.0000000000
      4822      1608  TIP3      OH2            28.6474203705       -7.1931771127       -5.8273930134  W2        1608            0.0000000000
      4823      1608  TIP3      H1             28.4070803705       -6.5308671127       -5.1794730134  W2        1608            0.0000000000
      4824      1608  TIP3      H2             28.4492403705       -8.0276571127       -5.4024330134  W2        1608            0.0000000000
      4825      1609  TIP3      OH2            23.2182703705       -8.2970971127       -1.8442530134  W2        1609            0.0000000000
      4826      1609  TIP3      H1             22.9070203705       -7.5147771127       -1.3889330134  W2        1609            0.0000000000
      4827      1609  TIP3      H2             22.5682903705       -8.4501871127       -2.5300530134  W2        1609            0.0000000000
      4828      1610  TIP3      OH2            29.1972303705      -12.9332571127      -14.3923230134  W2        1610            0.0000000000
      4829      1610  TIP3      H1             29.7767803705      -12.7832271127      -13.6454330134  W2        1610            0.0000000000
      4830      1610  TIP3      H2             29.6112303705      -12.4625171127      -15.1156830134  W2        1610            0.0000000000
      4831      1611  TIP3      OH2            20.1382603705      -12.0989871127       -2.6156830134  W2        1611            0.0000000000
      4832      1611  TIP3      H1             20.2085803705      -11.4483071127       -1.9171830134  W2        1611            0.0000000000
      4833      1611  TIP3      H2             19.2474803705      -11.9962371127       -2.9505930134  W2        1611            0.0000000000
      4834      1612  TIP3      OH2            26.9237203705       -6.1964071127      -10.9570130134  W2        1612            0.0000000000
      4835      1612  TIP3      H1             27.3974803705       -5.9007771127      -10.1795930134  W2        1612            0.0000000000
      4836      1612  TIP3      H2             26.3606503705       -5.4582471127      -11.1900530134  W2        1612            0.0000000000
      4837      1613  TIP3      OH2            21.4578603705       -6.2255971127       -1.0808730134  W2        1613            0.0000000000
      4838      1613  TIP3      H1             21.4653903705       -6.3616271127       -2.0283230134  W2        1613            0.0000000000
      4839      1613  TIP3      H2             20.5419003705       -6.3427871127       -0.8288730134  W2        1613            0.0000000000
      4840      1614  TIP3      OH2            32.8960703705      -21.1832171127      -14.5793530134  W2        1614            0.0000000000
      4841      1614  TIP3      H1             31.9961403705      -21.0443171127      -14.2842930134  W2        1614            0.0000000000
      4842      1614  TIP3      H2             33.1479103705      -20.3517571127      -14.9811830134  W2        1614            0.0000000000
      4843      1615  TIP3      OH2            20.9619203705      -12.3954971127      -12.6056630134  W2        1615            0.0000000000
      4844      1615  TIP3      H1             20.6700503705      -11.6273271127      -13.0965330134  W2        1615            0.0000000000
      4845      1615  TIP3      H2             20.2874403705      -13.0548771127      -12.7685230134  W2        1615            0.0000000000
      4846      1616  TIP3      OH2            34.0852103705       -6.8169771127      -16.2029630134  W2        1616            0.0000000000
      4847      1616  TIP3      H1             34.1585603705       -5.8779571127      -16.0324330134  W2        1616            0.0000000000
      4848      1616  TIP3      H2             34.9907203705       -7.1221171127      -16.2592330134  W2        1616            0.0000000000
      4849      1617  TIP3      OH2            17.0549303705      -10.0325771127       -3.7906830134  W2        1617            0.0000000000
      4850      1617  TIP3      H1             16.5537703705      -10.0606371127       -4.6057130134  W2        1617            0.0000000000
      4851      1617  TIP3      H2             17.0603003705      -10.9382571127       -3.4809530134  W2        1617            0.0000000000
      4852      1618  TIP3      OH2            16.8052003705       -7.2521971127       -6.9066630134  W2        1618            0.0000000000
      4853      1618  TIP3      H1             17.7512603705       -7.3964971127       -6.9257130134  W2        1618            0.0000000000
      4854      1618  TIP3      H2             16.6928303705       -6.4679171127       -6.3695430134  W2        1618            0.0000000000
      4855      1619  TIP3      OH2            35.0030503705       -6.5862271127       -1.2242930134  W2        1619            0.0000000000
      4856      1619  TIP3      H1             34.9537303705       -7.5414171127       -1.2615330134  W2        1619            0.0000000000
      4857      1619  TIP3      H2             34.1762803705       -6.3186971127       -0.8229130134  W2        1619            0.0000000000
      4858      1620  TIP3      OH2            25.9814503705       -7.0123071127       -2.3481530134  W2        1620            0.0000000000
      4859      1620  TIP3      H1             26.0689103705       -6.1858471127       -1.8732430134  W2        1620            0.0000000000
      4860      1620  TIP3      H2             25.1179603705       -7.3419271127       -2.0992230134  W2        1620            0.0000000000
      4861      1621  TIP3      OH2            26.3960303705       -3.2399371127      -12.5420930134  W2        1621            0.0000000000
      4862      1621  TIP3      H1             26.3206303705       -3.3612171127      -13.4885730134  W2        1621            0.0000000000
      4863      1621  TIP3      H2             26.4289003705       -2.2906671127      -12.4236330134  W2        1621            0.0000000000
      4864      1622  TIP3      OH2            20.0494103705       -4.4512371127      -10.7611930134  W2        1622            0.0000000000
      4865      1622  TIP3      H1             20.2014503705       -4.7991971127       -9.8825430134  W2        1622            0.0000000000
      4866      1622  TIP3      H2             19.1984503705       -4.8075071127      -11.0164730134  W2        1622            0.0000000000
      4867      1623  TIP3      OH2            29.4976303705       -4.0859171127      -15.5398530134  W2        1623            0.0000000000
      4868      1623  TIP3      H1             29.8724703705       -4.8303071127      -16.0105930134  W2        1623            0.0000000000
      4869      1623  TIP3      H2             29.5020003705       -4.3558571127      -14.6215230134  W2        1623            0.0000000000
      4870      1624  TIP3      OH2            29.1664403705       -4.1602071127      -12.7906330134  W2        1624            0.0000000000
      4871      1624  TIP3      H1             28.2314203705       -4.0600171127      -12.6119330134  W2        1624            0.0000000000
      4872      1624  TIP3      H2             29.4466303705       -4.8696071127      -12.2123130134  W2        1624            0.0000000000
      4873      1625  TIP3      OH2            32.1550303705      -15.0929771127       -0.7440730134  W2        1625            0.0000000000
      4874      1625  TIP3      H1             31.7477103705      -14.6124171127       -1.4647430134  W2        1625            0.0000000000
      4875      1625  TIP3      H2             32.1956003705      -15.9983771127       -1.0519930134  W2        1625            0.0000000000
      4876      1626  TIP3      OH2            19.3039803705       -8.7090371127       -2.7474030134  W2        1626            0.0000000000
      4877      1626  TIP3      H1             19.5201103705       -9.0704771127       -1.8878230134  W2        1626            0.0000000000
      4878      1626  TIP3      H2             18.4484503705       -9.0836571127       -2.9570530134  W2        1626            0.0000000000
      4879      1627  TIP3      OH2            21.9227803705      -20.2389871127       -6.7519830134  W2        1627            0.0000000000
      4880      1627  TIP3      H1             21.0611503705      -20.3261671127       -7.1596930134  W2        1627            0.0000000000
      4881      1627  TIP3      H2             21.9003503705      -19.3829771127       -6.3242230134  W2        1627            0.0000000000
      4882      1628  TIP3      OH2            26.5855603705      -20.5169471127       -3.3772830134  W2        1628            0.0000000000
      4883      1628  TIP3      H1             27.0058703705      -20.9322371127       -2.6242230134  W2        1628            0.0000000000
      4884      1628  TIP3      H2             25.6525203705      -20.6956171127       -3.2600830134  W2        1628            0.0000000000
      4885      1629  TIP3      OH2            29.9120503705      -16.7614271127       -2.5238330134  W2        1629            0.0000000000
      4886      1629  TIP3      H1             29.3980003705      -16.8872071127       -1.7262330134  W2        1629            0.0000000000
      4887      1629  TIP3      H2             29.7565203705      -15.8491171127       -2.7682130134  W2        1629            0.0000000000
      4888      1630  TIP3      OH2            30.6745403705      -11.9004271127      -16.7625330134  W2        1630            0.0000000000
      4889      1630  TIP3      H1             30.7166203705      -12.1230371127      -17.6925330134  W2        1630            0.0000000000
      4890      1630  TIP3      H2             31.5237503705      -11.5017171127      -16.5725430134  W2        1630            0.0000000000
      4891      1631  TIP3      OH2            26.2472903705      -18.0246071127      -16.0922030134  W2        1631            0.0000000000
      4892      1631  TIP3      H1             25.9937703705      -18.0054471127      -15.1693930134  W2        1631            0.0000000000
      4893      1631  TIP3      H2             25.9905003705      -18.8960671127      -16.3935830134  W2        1631            0.0000000000
      4894      1632  TIP3      OH2            22.0137903705      -15.2735371127       -5.6569630134  W2        1632            0.0000000000
      4895      1632  TIP3      H1             21.3720003705      -15.3138071127       -4.9479530134  W2        1632            0.0000000000
      4896      1632  TIP3      H2             22.0509903705      -14.3470671127       -5.8946630134  W2        1632            0.0000000000
      4897      1633  TIP3      OH2            22.0107003705      -15.0525271127      -10.7449630134  W2        1633            0.0000000000
      4898      1633  TIP3      H1             21.1179903705      -15.3929171127      -10.8035830134  W2        1633            0.0000000000
      4899      1633  TIP3      H2             22.4613603705      -15.4294371127      -11.5006430134  W2        1633            0.0000000000
      4900      1634  TIP3      OH2            27.5462503705      -14.6364971127      -11.9278830134  W2        1634            0.0000000000
      4901      1634  TIP3      H1             27.1372803705      -13.8216371127      -12.2194030134  W2        1634            0.0000000000
      4902      1634  TIP3      H2             28.2668703705      -14.7764871127      -12.5421730134  W2        1634            0.0000000000
      4903      1635  TIP3      OH2            26.6484103705      -14.4608571127       -0.4398130134  W2        1635            0.0000000000
      4904      1635  TIP3      H1             26.0857903705      -15.1656971127       -0.1190330134  W2        1635            0.0000000000
      4905      1635  TIP3      H2             27.4747503705      -14.5816671127        0.0279469866  W2        1635            0.0000000000
      4906      1636  TIP3      OH2            28.5510203705      -15.1904571127       -9.1139130134  W2        1636            0.0000000000
      4907      1636  TIP3      H1             28.3554703705      -14.5847771127       -9.8288530134  W2        1636            0.0000000000
      4908      1636  TIP3      H2             28.7322803705      -16.0239371127       -9.5482830134  W2        1636            0.0000000000
      4909      1637  TIP3      OH2            19.7638403705      -14.9531871127       -3.7897630134  W2        1637            0.0000000000
      4910      1637  TIP3      H1             19.7257803705      -14.5530271127       -2.9210530134  W2        1637            0.0000000000
      4911      1637  TIP3      H2             19.2729503705      -15.7699471127       -3.6994730134  W2        1637            0.0000000000
      4912      1638  TIP3      OH2            23.1295803705      -17.5789571127      -16.9911630134  W2        1638            0.0000000000
      4913      1638  TIP3      H1             22.6986503705      -18.0239471127      -16.2614230134  W2        1638            0.0000000000
      4914      1638  TIP3      H2             22.4114503705      -17.2073271127      -17.5034130134  W2        1638            0.0000000000
      4915      1639  TIP3      OH2            16.3719203705      -17.8370071127       -9.9392930134  W2        1639            0.0000000000
      4916      1639  TIP3      H1             17.0026903705      -17.8657971127       -9.2199030134  W2        1639            0.0000000000
      4917      1639  TIP3      H2             16.8213503705      -18.2621371127      -10.6697030134  W2        1639            0.0000000000
      4918      1640  TIP3      OH2            17.6461303705      -17.0908071127      -14.5152530134  W2        1640            0.0000000000
      4919      1640  TIP3      H1             18.1203003705      -16.4998171127      -15.1001630134  W2        1640            0.0000000000
      4920      1640  TIP3      H2             16.9287703705      -16.5605171127      -14.1682430134  W2        1640            0.0000000000
      4921      1641  TIP3      OH2            27.8149403705      -13.5523271127       -4.4426730134  W2        1641            0.0000000000
      4922      1641  TIP3      H1             28.1384203705      -14.1833571127       -5.0856230134  W2        1641            0.0000000000
      4923      1641  TIP3      H2             27.3748703705      -14.0871071127       -3.7819330134  W2        1641            0.0000000000
      4924      1642  TIP3      OH2            24.5922303705      -17.6247771127       -9.6585530134  W2        1642            0.0000000000
      4925      1642  TIP3      H1             23.6813403705      -17.5680971127       -9.3699530134  W2        1642            0.0000000000
      4926      1642  TIP3      H2             25.0975203705      -17.6852271127       -8.8478330134  W2        1642            0.0000000000
      4927      1643  TIP3      OH2            19.4205703705      -15.9961471127      -10.8317930134  W2        1643            0.0000000000
      4928      1643  TIP3      H1             18.5313703705      -15.8965971127      -11.1718330134  W2        1643            0.0000000000
      4929      1643  TIP3      H2             19.7170603705      -16.8378471127      -11.1780030134  W2        1643            0.0000000000
      4930      1644  TIP3      OH2            23.0737503705      -15.9958871127      -13.1753330134  W2        1644            0.0000000000
      4931      1644  TIP3      H1             24.0053003705      -15.8668871127      -12.9970230134  W2        1644            0.0000000000
      4932      1644  TIP3      H2             22.8587803705      -15.3264571127      -13.8248630134  W2        1644            0.0000000000
      4933      1645  TIP3      OH2            28.9974203705      -18.3901471127       -6.3943730134  W2        1645            0.0000000000
      4934      1645  TIP3      H1             28.3205803705      -18.2588371127       -5.7304030134  W2        1645            0.0000000000
      4935      1645  TIP3      H2             28.5119103705      -18.5451971127       -7.2046030134  W2        1645            0.0000000000
      4936      1646  TIP3      OH2            21.7477703705      -14.8016671127      -15.6087230134  W2        1646            0.0000000000
      4937      1646  TIP3      H1             21.2052803705      -15.1812871127      -16.2999630134  W2        1646            0.0000000000
      4938      1646  TIP3      H2             22.5812603705      -14.6071971127      -16.0373130134  W2        1646            0.0000000000
      4939      1647  TIP3      OH2            32.2849303705       -2.7186071127       -0.1176130134  W2        1647            0.0000000000
      4940      1647  TIP3      H1             32.4848003705       -2.2944171127       -0.9520830134  W2        1647            0.0000000000
      4941      1647  TIP3      H2             32.9403003705       -2.3747871127        0.4894269866  W2        1647            0.0000000000
      4942      1648  TIP3      OH2            19.8829103705      -10.2444771127       -0.5095630134  W2        1648            0.0000000000
      4943      1648  TIP3      H1             20.6151503705       -9.9898871127        0.0518869866  W2        1648            0.0000000000
      4944      1648  TIP3      H2             19.1027803705      -10.0399371127        0.0059769866  W2        1648            0.0000000000
      4945      1649  TIP3      OH2            25.9122003705      -14.8374771127       -7.7715930134  W2        1649            0.0000000000
      4946      1649  TIP3      H1             26.4765403705      -15.3838171127       -8.3186330134  W2        1649            0.0000000000
      4947      1649  TIP3      H2             25.7645403705      -15.3592871127       -6.9828330134  W2        1649            0.0000000000
      4948      1650  TIP3      OH2            20.9141703705      -18.7008671127      -11.3531130134  W2        1650            0.0000000000
      4949      1650  TIP3      H1             20.5971203705      -19.6033371127      -11.3885730134  W2        1650            0.0000000000
      4950      1650  TIP3      H2             21.6955803705      -18.6991271127      -11.9059530134  W2        1650            0.0000000000
      4951      1651  TIP3      OH2            24.5387903705      -16.4488671127       -5.3575530134  W2        1651            0.0000000000
      4952      1651  TIP3      H1             23.7033203705      -15.9949171127       -5.2473130134  W2        1651            0.0000000000
      4953      1651  TIP3      H2             25.0628503705      -16.1730171127       -4.6055630134  W2        1651            0.0000000000
      4954      1652  TIP3      OH2            25.0830503705      -10.2360971127      -13.6729130134  W2        1652            0.0000000000
      4955      1652  TIP3      H1             24.3381503705      -10.7435671127      -13.9951230134  W2        1652            0.0000000000
      4956      1652  TIP3      H2             24.9487703705      -10.1872971127      -12.7264330134  W2        1652            0.0000000000
      4957      1653  TIP3      OH2            32.2329403705      -11.1032771127       -4.8861530134  W2        1653            0.0000000000
      4958      1653  TIP3      H1             32.8748203705      -10.6466471127       -5.4299330134  W2        1653            0.0000000000
      4959      1653  TIP3      H2             31.4026303705      -10.9900371127       -5.3487430134  W2        1653            0.0000000000
      4960      1654  TIP3      OH2            28.9807303705      -17.4221071127      -15.4736530134  W2        1654            0.0000000000
      4961      1654  TIP3      H1             28.0421503705      -17.3105471127      -15.6247730134  W2        1654            0.0000000000
      4962      1654  TIP3      H2             29.2779403705      -16.5654171127      -15.1670830134  W2        1654            0.0000000000
      4963      1655  TIP3      OH2            26.6022603705      -10.0517671127       -2.4360030134  W2        1655            0.0000000000
      4964      1655  TIP3      H1             26.2568703705      -10.4335271127       -1.6290430134  W2        1655            0.0000000000
      4965      1655  TIP3      H2             26.4022703705       -9.1184071127       -2.3647130134  W2        1655            0.0000000000
      4966      1656  TIP3      OH2            29.6990803705      -15.5548371127      -13.8129130134  W2        1656            0.0000000000
      4967      1656  TIP3      H1             30.5909803705      -15.6923371127      -13.4937930134  W2        1656            0.0000000000
      4968      1656  TIP3      H2             29.7554403705      -14.7642271127      -14.3495630134  W2        1656            0.0000000000
      4969      1657  TIP3      OH2            20.2078803705      -10.9410971127       -7.9031230134  W2        1657            0.0000000000
      4970      1657  TIP3      H1             20.9526003705      -10.9435271127       -8.5044730134  W2        1657            0.0000000000
      4971      1657  TIP3      H2             20.2855403705      -11.7647171127       -7.4216130134  W2        1657            0.0000000000
      4972      1658  TIP3      OH2            27.2084603705       -8.7776671127      -14.6474530134  W2        1658            0.0000000000
      4973      1658  TIP3      H1             26.9133003705       -7.9508771127      -14.2659730134  W2        1658            0.0000000000
      4974      1658  TIP3      H2             26.5054603705       -9.3969771127      -14.4513130134  W2        1658            0.0000000000
      4975      1659  TIP3      OH2            17.2158503705      -12.4804071127       -2.5882730134  W2        1659            0.0000000000
      4976      1659  TIP3      H1             17.4387103705      -12.8984471127       -1.7565230134  W2        1659            0.0000000000
      4977      1659  TIP3      H2             16.6138603705      -13.0929071127       -3.0109930134  W2        1659            0.0000000000
      4978      1660  TIP3      OH2            24.2323403705      -12.9634171127       -0.3753030134  W2        1660            0.0000000000
      4979      1660  TIP3      H1             23.9364203705      -13.1291171127       -1.2703930134  W2        1660            0.0000000000
      4980      1660  TIP3      H2             25.1638603705      -13.1833871127       -0.3859130134  W2        1660            0.0000000000
      4981      1661  TIP3      OH2            28.8526203705       -7.5902171127       -2.4855030134  W2        1661            0.0000000000
      4982      1661  TIP3      H1             27.9520503705       -7.4069571127       -2.7531130134  W2        1661            0.0000000000
      4983      1661  TIP3      H2             28.8867303705       -7.3312871127       -1.5646230134  W2        1661            0.0000000000
      4984      1662  TIP3      OH2            34.5839503705      -15.3454271127      -14.1182430134  W2        1662            0.0000000000
      4985      1662  TIP3      H1             34.0295803705      -15.7416271127      -14.7904930134  W2        1662            0.0000000000
      4986      1662  TIP3      H2             34.6843103705      -14.4349071127      -14.3959130134  W2        1662            0.0000000000
      4987      1663  TIP3      OH2            34.5471503705       -9.5452571127       -1.2810930134  W2        1663            0.0000000000
      4988      1663  TIP3      H1             33.6960003705       -9.3068771127       -1.6484530134  W2        1663            0.0000000000
      4989      1663  TIP3      H2             35.1374903705       -9.5619371127       -2.0343830134  W2        1663            0.0000000000
      4990      1664  TIP3      OH2            32.8791203705       -6.5593871127      -13.6530330134  W2        1664            0.0000000000
      4991      1664  TIP3      H1             32.5062303705       -7.3850071127      -13.3439730134  W2        1664            0.0000000000
      4992      1664  TIP3      H2             33.1564703705       -6.7424471127      -14.5506930134  W2        1664            0.0000000000
      4993      1665  TIP3      OH2            30.0395103705      -11.7514371127       -6.6318430134  W2        1665            0.0000000000
      4994      1665  TIP3      H1             29.1112003705      -11.9832471127       -6.6589130134  W2        1665            0.0000000000
      4995      1665  TIP3      H2             30.4906203705      -12.5284571127       -6.9619630134  W2        1665            0.0000000000
      4996      1666  TIP3      OH2            22.5828203705       -7.4232771127      -10.4989730134  W2        1666            0.0000000000
      4997      1666  TIP3      H1             23.1100403705       -6.6498371127      -10.6990930134  W2        1666            0.0000000000
      4998      1666  TIP3      H2             21.7026703705       -7.1983571127      -10.8005730134  W2        1666            0.0000000000
      4999      1667  TIP3      OH2            18.3375903705      -12.5608671127      -15.9117330134  W2        1667            0.0000000000
      5000      1667  TIP3      H1             18.9535803705      -11.9341471127      -15.5322530134  W2        1667            0.0000000000
      5001      1667  TIP3      H2             17.4758503705      -12.2448871127      -15.6400830134  W2        1667            0.0000000000
      5002      1668  TIP3      OH2            24.0100503705       -9.7602871127      -10.9225430134  W2        1668            0.0000000000
      5003      1668  TIP3      H1             23.7690503705       -8.8348471127      -10.8810130134  W2        1668            0.0000000000
      5004      1668  TIP3      H2             23.2694103705      -10.2191571127      -10.5261530134  W2        1668            0.0000000000
      5005      1669  TIP3      OH2            24.5247103705       -5.6109271127       -4.6074330134  W2        1669            0.0000000000
      5006      1669  TIP3      H1             24.8871803705       -4.7563671127       -4.8409930134  W2        1669            0.0000000000
      5007      1669  TIP3      H2             25.0562303705       -5.9027671127       -3.8668030134  W2        1669            0.0000000000
      5008      1670  TIP3      OH2            22.6931303705       -4.7385271127      -11.3773230134  W2        1670            0.0000000000
      5009      1670  TIP3      H1             21.7431803705       -4.6327871127      -11.3259930134  W2        1670            0.0000000000
      5010      1670  TIP3      H2             23.0449403705       -3.9177871127      -11.0325730134  W2        1670            0.0000000000
      5011      1671  TIP3      OH2            28.0687903705       -9.5118571127       -4.9068730134  W2        1671            0.0000000000
      5012      1671  TIP3      H1             27.6429203705       -9.7396871127       -4.0804730134  W2        1671            0.0000000000
      5013      1671  TIP3      H2             28.6493703705      -10.2506771127       -5.0893430134  W2        1671            0.0000000000
      5014      1672  TIP3      OH2            30.2716803705       -8.5828071127      -15.8329730134  W2        1672            0.0000000000
      5015      1672  TIP3      H1             30.6249903705       -8.9628271127      -15.0286230134  W2        1672            0.0000000000
      5016      1672  TIP3      H2             29.3230303705       -8.6763271127      -15.7460430134  W2        1672            0.0000000000
      5017      1673  TIP3      OH2            30.7272103705       -4.9599071127       -2.4373930134  W2        1673            0.0000000000
      5018      1673  TIP3      H1             30.1255303705       -5.5156171127       -2.9327630134  W2        1673            0.0000000000
      5019      1673  TIP3      H2             31.0085803705       -4.2929271127       -3.0636530134  W2        1673            0.0000000000
      5020      1674  TIP3      OH2            34.7751203705       -4.1035571127      -15.6319530134  W2        1674            0.0000000000
      5021      1674  TIP3      H1             35.5189103705       -3.5175071127      -15.7717930134  W2        1674            0.0000000000
      5022      1674  TIP3      H2             34.0809303705       -3.5349771127      -15.2987130134  W2        1674            0.0000000000
      5023      1675  TIP3      OH2            18.8498003705      -17.7271371127       -3.0301330134  W2        1675            0.0000000000
      5024      1675  TIP3      H1             17.9570303705      -17.3885971127       -3.0977330134  W2        1675            0.0000000000
      5025      1675  TIP3      H2             18.7510803705      -18.5825271127       -2.6120530134  W2        1675            0.0000000000
      5026      1676  TIP3      OH2            31.1376103705       -9.9106071127      -13.6061830134  W2        1676            0.0000000000
      5027      1676  TIP3      H1             30.8603703705      -10.6386771127      -13.0500730134  W2        1676            0.0000000000
      5028      1676  TIP3      H2             32.0649103705       -9.7914071127      -13.4009230134  W2        1676            0.0000000000
      5029      1677  TIP3      OH2            18.5010003705       -5.9226971127       -4.5951930134  W2        1677            0.0000000000
      5030      1677  TIP3      H1             18.7180303705       -6.8544571127       -4.6262230134  W2        1677            0.0000000000
      5031      1677  TIP3      H2             18.7473503705       -5.6481971127       -3.7119130134  W2        1677            0.0000000000
      5032      1678  TIP3      OH2            24.3624603705       -7.4711971127      -17.3859730134  W2        1678            0.0000000000
      5033      1678  TIP3      H1             24.6014403705       -8.2193871127      -17.9330830134  W2        1678            0.0000000000
      5034      1678  TIP3      H2             24.0935903705       -7.8590271127      -16.5531930134  W2        1678            0.0000000000
      5035      1679  TIP3      OH2            23.2995203705       -7.9008171127      -14.9297130134  W2        1679            0.0000000000
      5036      1679  TIP3      H1             23.4463203705       -8.4208371127      -14.1396230134  W2        1679            0.0000000000
      5037      1679  TIP3      H2             23.2966903705       -6.9940571127      -14.6231230134  W2        1679            0.0000000000
      5038      1680  TIP3      OH2            19.7526303705      -10.6484871127      -14.4191730134  W2        1680            0.0000000000
      5039      1680  TIP3      H1             19.0665603705      -10.2962371127      -13.8522030134  W2        1680            0.0000000000
      5040      1680  TIP3      H2             20.2754203705       -9.8855271127      -14.6657430134  W2        1680            0.0000000000
      5041      1681  TIP3      OH2            27.5841403705      -17.9861071127       -4.1402730134  W2        1681            0.0000000000
      5042      1681  TIP3      H1             28.2829303705      -17.9122371127       -3.4903030134  W2        1681            0.0000000000
      5043      1681  TIP3      H2             27.2032803705      -18.8506071127       -3.9859830134  W2        1681            0.0000000000
      5044      1682  TIP3      OH2            28.3686303705      -18.3339371127      -13.0430430134  W2        1682            0.0000000000
      5045      1682  TIP3      H1             28.5884603705      -17.8623971127      -13.8465030134  W2        1682            0.0000000000
      5046      1682  TIP3      H2             28.9270303705      -17.9396771127      -12.3729830134  W2        1682            0.0000000000
      5047      1683  TIP3      OH2            26.0372403705       -6.2034571127      -14.1802930134  W2        1683            0.0000000000
      5048      1683  TIP3      H1             25.2208503705       -5.7064871127      -14.1278630134  W2        1683            0.0000000000
      5049      1683  TIP3      H2             26.5668703705       -5.7281071127      -14.8204130134  W2        1683            0.0000000000
      5050      1684  TIP3      OH2            25.5686203705      -16.6060571127      -12.2082030134  W2        1684            0.0000000000
      5051      1684  TIP3      H1             26.3808803705      -16.1017371127      -12.1620330134  W2        1684            0.0000000000
      5052      1684  TIP3      H2             25.3239203705      -16.7510871127      -11.2942430134  W2        1684            0.0000000000
      5053      1685  TIP3      OH2            26.1042603705      -15.6197871127       -3.0235430134  W2        1685            0.0000000000
      5054      1685  TIP3      H1             26.2232903705      -15.0462471127       -2.2665030134  W2        1685            0.0000000000
      5055      1685  TIP3      H2             26.7597203705      -16.3078471127       -2.9087630134  W2        1685            0.0000000000
      5056      1686  TIP3      OH2            26.4522903705      -19.5247571127      -11.2700930134  W2        1686            0.0000000000
      5057      1686  TIP3      H1             26.1056403705      -18.9076971127      -10.6256630134  W2        1686            0.0000000000
      5058      1686  TIP3      H2             27.1109803705      -19.0241871127      -11.7515430134  W2        1686            0.0000000000
      5059      1687  TIP3      OH2            23.3755503705       -5.1597371127      -14.1986030134  W2        1687            0.0000000000
      5060      1687  TIP3      H1             23.5364203705       -4.3599871127      -14.6993430134  W2        1687            0.0000000000
      5061      1687  TIP3      H2             23.1783303705       -4.8531371127      -13.3135430134  W2        1687            0.0000000000
      5062      1688  TIP3      OH2            22.1099903705      -18.4618171127      -14.5828430134  W2        1688            0.0000000000
      5063      1688  TIP3      H1             22.0264703705      -17.5735071127      -14.2362030134  W2        1688            0.0000000000
      5064      1688  TIP3      H2             23.0000203705      -18.7271471127      -14.3511630134  W2        1688            0.0000000000
      5065      1689  TIP3      OH2            32.3088403705      -17.7127571127       -2.1885730134  W2        1689            0.0000000000
      5066      1689  TIP3      H1             31.3924203705      -17.4505871127       -2.2762030134  W2        1689            0.0000000000
      5067      1689  TIP3      H2             32.6443403705      -17.7158571127       -3.0850430134  W2        1689            0.0000000000
      5068      1690  TIP3      OH2            30.9109403705      -13.9626571127       -8.0928430134  W2        1690            0.0000000000
      5069      1690  TIP3      H1             30.1133803705      -14.3776371127       -8.4213430134  W2        1690            0.0000000000
      5070      1690  TIP3      H2             31.3560503705      -14.6532871127       -7.6017930134  W2        1690            0.0000000000
      5071      1691  TIP3      OH2            20.3685203705       -8.0345971127      -15.5223930134  W2        1691            0.0000000000
      5072      1691  TIP3      H1             20.9606703705       -7.3351171127      -15.2461530134  W2        1691            0.0000000000
      5073      1691  TIP3      H2             20.8278203705       -8.4676471127      -16.2419330134  W2        1691            0.0000000000
      5074      1692  TIP3      OH2            18.6844403705      -15.3702971127      -16.4064530134  W2        1692            0.0000000000
      5075      1692  TIP3      H1             18.6397003705      -14.4309871127      -16.2277530134  W2        1692            0.0000000000
      5076      1692  TIP3      H2             17.7967603705      -15.6058071127      -16.6762430134  W2        1692            0.0000000000
      5077      1693  TIP3      OH2            31.9974003705       -4.7064071127       -6.4704930134  W2        1693            0.0000000000
      5078      1693  TIP3      H1             31.8418303705       -4.0279671127       -7.1275630134  W2        1693            0.0000000000
      5079      1693  TIP3      H2             32.9300403705       -4.6344771127       -6.2674330134  W2        1693            0.0000000000
      5080      1694  TIP3      OH2            19.4926403705      -20.5886371127       -7.7333530134  W2        1694            0.0000000000
      5081      1694  TIP3      H1             19.2636203705      -20.5293871127       -8.6608530134  W2        1694            0.0000000000
      5082      1694  TIP3      H2             19.0499803705      -21.3800871127       -7.4269430134  W2        1694            0.0000000000
      5083      1695  TIP3      OH2            18.4229703705       -6.6479271127      -11.5727730134  W2        1695            0.0000000000
      5084      1695  TIP3      H1             17.5908303705       -6.1756571127      -11.5456330134  W2        1695            0.0000000000
      5085      1695  TIP3      H2             18.9688003705       -6.1381671127      -12.1714630134  W2        1695            0.0000000000
      5086      1696  TIP3      OH2            17.7113403705       -4.0355571127       -0.2429730134  W2        1696            0.0000000000
      5087      1696  TIP3      H1             18.2515603705       -4.2521571127        0.5169469866  W2        1696            0.0000000000
      5088      1696  TIP3      H2             17.2301403705       -4.8409571127       -0.4327230134  W2        1696            0.0000000000
      5089      1697  TIP3      OH2            22.3086803705       -5.1161171127        1.3774469866  W2        1697            0.0000000000
      5090      1697  TIP3      H1             23.0764003705       -5.5750371127        1.7183669866  W2        1697            0.0000000000
      5091      1697  TIP3      H2             22.2873003705       -5.3421371127        0.4475669866  W2        1697            0.0000000000
      5092      1698  TIP3      OH2            26.4006403705       -5.6080571127      -17.2473730134  W2        1698            0.0000000000
      5093      1698  TIP3      H1             25.7567403705       -6.2391971127      -16.9260030134  W2        1698            0.0000000000
      5094      1698  TIP3      H2             27.1624703705       -6.1392571127      -17.4790230134  W2        1698            0.0000000000
      5095      1699  TIP3      OH2            28.8855503705       -6.7360071127        0.1065969866  W2        1699            0.0000000000
      5096      1699  TIP3      H1             28.5345003705       -7.5927071127        0.3496369866  W2        1699            0.0000000000
      5097      1699  TIP3      H2             29.6118703705       -6.5933371127        0.7134969866  W2        1699            0.0000000000
      5098      1700  TIP3      OH2            31.0049303705       -5.7910671127      -17.0135730134  W2        1700            0.0000000000
      5099      1700  TIP3      H1             31.2879703705       -6.5855471127      -16.5608830134  W2        1700            0.0000000000
      5100      1700  TIP3      H2             31.7447203705       -5.5579671127      -17.5744630134  W2        1700            0.0000000000
      5101      1701  TIP3      OH2            17.6182903705      -10.2251471127        0.7114569866  W2        1701            0.0000000000
      5102      1701  TIP3      H1             17.7623403705      -11.1270771127        0.4251269866  W2        1701            0.0000000000
      5103      1701  TIP3      H2             16.8460303705       -9.9389371127        0.2236869866  W2        1701            0.0000000000
      5104      1702  TIP3      OH2            21.9596603705       -9.8815771127      -17.1560830134  W2        1702            0.0000000000
      5105      1702  TIP3      H1             22.0240703705      -10.6756171127      -16.6254430134  W2        1702            0.0000000000
      5106      1702  TIP3      H2             22.6125803705      -10.0002971127      -17.8458830134  W2        1702            0.0000000000
      5107      1703  TIP3      OH2            24.2739003705      -10.2553371127        0.1440969866  W2        1703            0.0000000000
      5108      1703  TIP3      H1             23.9452803705       -9.9845271127       -0.7131630134  W2        1703            0.0000000000
      5109      1703  TIP3      H2             24.4257203705      -11.1963571127        0.0565969866  W2        1703            0.0000000000
      5110      1704  TIP3      OH2            27.3120003705       -8.8344071127      -17.4202830134  W2        1704            0.0000000000
      5111      1704  TIP3      H1             27.0434103705       -8.6541971127      -16.5193930134  W2        1704            0.0000000000
      5112      1704  TIP3      H2             27.1055603705       -9.7597871127      -17.5517030134  W2        1704            0.0000000000
      5113      1705  TIP3      OH2            30.0084203705      -10.3396071127       -2.4726730134  W2        1705            0.0000000000
      5114      1705  TIP3      H1             30.7539003705       -9.7512371127       -2.5922730134  W2        1705            0.0000000000
      5115      1705  TIP3      H2             29.2511003705       -9.7576371127       -2.4093630134  W2        1705            0.0000000000
      5116      1706  TIP3      OH2            18.4509403705      -13.0248171127        0.1313869866  W2        1706            0.0000000000
      5117      1706  TIP3      H1             18.8590603705      -13.8821571127        0.0104469866  W2        1706            0.0000000000
      5118      1706  TIP3      H2             18.1907003705      -13.0106871127        1.0524169866  W2        1706            0.0000000000
      5119      1707  TIP3      OH2            23.1090403705      -11.9089571127      -14.8502830134  W2        1707            0.0000000000
      5120      1707  TIP3      H1             22.6492403705      -12.3931271127      -14.1644330134  W2        1707            0.0000000000
      5121      1707  TIP3      H2             23.3639103705      -12.5774171127      -15.4862330134  W2        1707            0.0000000000
      5122      1708  TIP3      OH2            22.3979703705      -14.0162471127       -2.4943230134  W2        1708            0.0000000000
      5123      1708  TIP3      H1             21.7795803705      -13.3415871127       -2.2138530134  W2        1708            0.0000000000
      5124      1708  TIP3      H2             22.7420903705      -13.6948571127       -3.3277030134  W2        1708            0.0000000000
      5125      1709  TIP3      OH2            24.1800803705      -13.6657771127      -16.5879630134  W2        1709            0.0000000000
      5126      1709  TIP3      H1             23.9995803705      -13.8206571127      -17.5151330134  W2        1709            0.0000000000
      5127      1709  TIP3      H2             25.1301303705      -13.5579071127      -16.5431730134  W2        1709            0.0000000000
      5128      1710  TIP3      OH2            27.4177903705      -11.5447171127        0.7831569866  W2        1710            0.0000000000
      5129      1710  TIP3      H1             28.3709103705      -11.4608071127        0.7557569866  W2        1710            0.0000000000
      5130      1710  TIP3      H2             27.2572503705      -12.2565371127        1.4026469866  W2        1710            0.0000000000
      5131      1711  TIP3      OH2            33.5699103705      -11.3113571127      -17.1421530134  W2        1711            0.0000000000
      5132      1711  TIP3      H1             33.2963903705      -11.7358071127      -17.9553230134  W2        1711            0.0000000000
      5133      1711  TIP3      H2             33.6093203705      -10.3799071127      -17.3591130134  W2        1711            0.0000000000
      5134      1712  TIP3      OH2            22.7373403705      -16.6611671127       -1.4120130134  W2        1712            0.0000000000
      5135      1712  TIP3      H1             22.8874303705      -17.3900371127       -2.0140430134  W2        1712            0.0000000000
      5136      1712  TIP3      H2             22.7395803705      -15.8839971127       -1.9707930134  W2        1712            0.0000000000
      5137      1713  TIP3      OH2            23.1499103705      -18.2915871127       -3.9192730134  W2        1713            0.0000000000
      5138      1713  TIP3      H1             23.6856603705      -17.8399171127       -4.5713430134  W2        1713            0.0000000000
      5139      1713  TIP3      H2             22.2978703705      -18.3996071127       -4.3418630134  W2        1713            0.0000000000
      5140      1714  TIP3      OH2            24.7317503705      -12.8519671127       -3.6797530134  W2        1714            0.0000000000
      5141      1714  TIP3      H1             25.4822303705      -13.0082171127       -4.2529730134  W2        1714            0.0000000000
      5142      1714  TIP3      H2             24.3925803705      -12.0003071127       -3.9552030134  W2        1714            0.0000000000
      5143      1715  TIP3      OH2            29.1473703705      -15.0367871127        1.3487769866  W2        1715            0.0000000000
      5144      1715  TIP3      H1             29.3395003705      -15.9678471127        1.2372269866  W2        1715            0.0000000000
      5145      1715  TIP3      H2             30.0050003705      -14.6118371127        1.3383169866  W2        1715            0.0000000000
      5146      1716  TIP3      OH2            30.4640903705      -12.2482671127       -0.5739530134  W2        1716            0.0000000000
      5147      1716  TIP3      H1             30.1825903705      -11.5388071127       -1.1515730134  W2        1716            0.0000000000
      5148      1716  TIP3      H2             31.4065203705      -12.3209671127       -0.7248330134  W2        1716            0.0000000000
      5149      1717  TIP3      OH2            21.2159703705      -15.4628171127        0.4995469866  W2        1717            0.0000000000
      5150      1717  TIP3      H1             20.4488703705      -15.9953371127        0.2893069866  W2        1717            0.0000000000
      5151      1717  TIP3      H2             21.8948703705      -15.7727771127       -0.0998230134  W2        1717            0.0000000000
      5152      1718  TIP3      OH2            23.9554603705      -20.8350171127       -3.4879130134  W2        1718            0.0000000000
      5153      1718  TIP3      H1             23.8574203705      -19.8886971127       -3.5932930134  W2        1718            0.0000000000
      5154      1718  TIP3      H2             23.2130803705      -21.2076371127       -3.9635630134  W2        1718            0.0000000000
      5155      1719  TIP3      OH2            25.2195103705      -16.5134771127        0.0759269866  W2        1719            0.0000000000
      5156      1719  TIP3      H1             24.9840503705      -16.7328071127        0.9774169866  W2        1719            0.0000000000
      5157      1719  TIP3      H2             24.4362003705      -16.7203571127       -0.4338230134  W2        1719            0.0000000000
      5158      1720  TIP3      OH2            27.9351703705      -17.3861271127       -0.8487230134  W2        1720            0.0000000000
      5159      1720  TIP3      H1             26.9877103705      -17.3541571127       -0.7163930134  W2        1720            0.0000000000
      5160      1720  TIP3      H2             28.2478403705      -18.0114171127       -0.1949030134  W2        1720            0.0000000000
      5161      1721  TIP3      OH2            29.5693203705      -18.7520171127        1.1564669866  W2        1721            0.0000000000
      5162      1721  TIP3      H1             29.4725003705      -19.7042871127        1.1506569866  W2        1721            0.0000000000
      5163      1721  TIP3      H2             29.2476303705      -18.4833371127        2.0170169866  W2        1721            0.0000000000
      5164      1722  TIP3      OH2            19.3962503705      -17.5424371127        0.2040169866  W2        1722            0.0000000000
      5165      1722  TIP3      H1             19.6079903705      -18.2488271127       -0.4062330134  W2        1722            0.0000000000
      5166      1722  TIP3      H2             19.2850003705      -17.9798371127        1.0481369866  W2        1722            0.0000000000
      5167      1723  TIP3      OH2            24.1772703705      -21.5412771127       -0.8166330134  W2        1723            0.0000000000
      5168      1723  TIP3      H1             24.8891103705      -22.1810571127       -0.8307230134  W2        1723            0.0000000000
      5169      1723  TIP3      H2             24.0763103705      -21.2744471127       -1.7303230134  W2        1723            0.0000000000
      5170      1724  TIP3      OH2            24.5310203705      -19.8584371127        1.2369969866  W2        1724            0.0000000000
      5171      1724  TIP3      H1             24.3992403705      -20.3340571127        0.4168469866  W2        1724            0.0000000000
      5172      1724  TIP3      H2             23.9317603705      -19.1140771127        1.1817069866  W2        1724            0.0000000000
      5173      1725  TIP3      OH2            24.0772503705       -2.9754071127      -15.5866030134  W2        1725            0.0000000000
      5174      1725  TIP3      H1             25.0103203705       -2.8175371127      -15.4427630134  W2        1725            0.0000000000
      5175      1725  TIP3      H2             23.8131303705       -2.3001071127      -16.2114530134  W2        1725            0.0000000000
      5176      1726  TIP3      OH2            17.6457403705       -8.3390271127      -16.1037930134  W2        1726            0.0000000000
      5177      1726  TIP3      H1             18.5596603705       -8.2601371127      -15.8304030134  W2        1726            0.0000000000
      5178      1726  TIP3      H2             17.6530503705       -9.0260671127      -16.7702330134  W2        1726            0.0000000000
      5179      1727  TIP3      OH2            16.2948003705       -2.9461771127      -11.0264030134  W2        1727            0.0000000000
      5180      1727  TIP3      H1             15.6475103705       -3.4080071127      -11.5592830134  W2        1727            0.0000000000
      5181      1727  TIP3      H2             16.6492603705       -3.6178471127      -10.4437830134  W2        1727            0.0000000000
      5182      1728  TIP3      OH2            17.1647203705       -4.8654771127       -9.2217830134  W2        1728            0.0000000000
      5183      1728  TIP3      H1             16.8304003705       -5.7457471127       -9.0497630134  W2        1728            0.0000000000
      5184      1728  TIP3      H2             17.3869603705       -4.5199771127       -8.3572230134  W2        1728            0.0000000000
      5185      1729  TIP3      OH2            34.7132003705       -4.0558371127       -6.2413030134  W2        1729            0.0000000000
      5186      1729  TIP3      H1             34.6918703705       -3.8709971127       -5.3023630134  W2        1729            0.0000000000
      5187      1729  TIP3      H2             35.4038203705       -3.4874371127       -6.5821630134  W2        1729            0.0000000000
      5188      1730  TIP3      OH2            34.2764903705       -4.4887271127       -3.3193930134  W2        1730            0.0000000000
      5189      1730  TIP3      H1             33.7893603705       -5.2243171127       -3.6906530134  W2        1730            0.0000000000
      5190      1730  TIP3      H2             34.8257603705       -4.8823371127       -2.6414530134  W2        1730            0.0000000000
      5191      1731  TIP3      OH2            32.7272203705       -8.6989171127        1.3186369866  W2        1731            0.0000000000
      5192      1731  TIP3      H1             31.8613303705       -8.8039471127        1.7128669866  W2        1731            0.0000000000
      5193      1731  TIP3      H2             33.1038103705       -7.9405871127        1.7651069866  W2        1731            0.0000000000
      5194      1732  TIP3      OH2            34.0281903705      -10.4425471127      -13.1671130134  W2        1732            0.0000000000
      5195      1732  TIP3      H1             34.8783303705      -10.0214571127      -13.0399530134  W2        1732            0.0000000000
      5196      1732  TIP3      H2             34.0337003705      -11.1825371127      -12.5599730134  W2        1732            0.0000000000
      5197      1733  TIP3      OH2            34.4227503705      -12.3888071127      -11.3435430134  W2        1733            0.0000000000
      5198      1733  TIP3      H1             33.6962103705      -12.8685471127      -10.9457830134  W2        1733            0.0000000000
      5199      1733  TIP3      H2             35.0040803705      -12.1833371127      -10.6113830134  W2        1733            0.0000000000
      5200      1734  TIP3      OH2            34.1818703705       -9.6040571127       -6.3957830134  W2        1734            0.0000000000
      5201      1734  TIP3      H1             35.0152903705       -9.9820571127       -6.6764230134  W2        1734            0.0000000000
      5202      1734  TIP3      H2             34.2939003705       -8.6609371127       -6.5148730134  W2        1734            0.0000000000
      5203      1735  TIP3      OH2            32.6681003705       -6.7263071127       -4.0889430134  W2        1735            0.0000000000
      5204      1735  TIP3      H1             32.0206303705       -6.4011571127       -3.4634230134  W2        1735            0.0000000000
      5205      1735  TIP3      H2             32.1505003705       -7.1665371127       -4.7631130134  W2        1735            0.0000000000
      5206      1736  TIP3      OH2            34.6910603705      -12.4879571127      -14.9524130134  W2        1736            0.0000000000
      5207      1736  TIP3      H1             34.1691703705      -12.1315471127      -15.6713230134  W2        1736            0.0000000000
      5208      1736  TIP3      H2             34.6579803705      -11.8131771127      -14.2743230134  W2        1736            0.0000000000
      5209      1737  TIP3      OH2            33.0399603705      -15.2483971127      -16.4017030134  W2        1737            0.0000000000
      5210      1737  TIP3      H1             33.1364003705      -14.5816971127      -17.0817330134  W2        1737            0.0000000000
      5211      1737  TIP3      H2             32.8999203705      -16.0637671127      -16.8831530134  W2        1737            0.0000000000
      5212      1738  TIP3      OH2            32.2094303705      -13.8681571127      -10.7806730134  W2        1738            0.0000000000
      5213      1738  TIP3      H1             32.0593103705      -14.8132971127      -10.8008930134  W2        1738            0.0000000000
      5214      1738  TIP3      H2             31.8558803705      -13.5870171127       -9.9367630134  W2        1738            0.0000000000
      5215      1739  TIP3      OH2            17.2446703705      -11.7899371127       -6.7702930134  W2        1739            0.0000000000
      5216      1739  TIP3      H1             17.4289603705      -11.8717671127       -7.7060030134  W2        1739            0.0000000000
      5217      1739  TIP3      H2             18.0939603705      -11.9142371127       -6.3466530134  W2        1739            0.0000000000
      5218      1740  TIP3      OH2            33.0657203705      -11.8978271127       -1.1418430134  W2        1740            0.0000000000
      5219      1740  TIP3      H1             33.6484503705      -12.6325971127       -0.9501230134  W2        1740            0.0000000000
      5220      1740  TIP3      H2             33.6296503705      -11.1257971127       -1.0952630134  W2        1740            0.0000000000
      5221      1741  TIP3      OH2            34.5624303705      -13.9952471127       -0.4573030134  W2        1741            0.0000000000
      5222      1741  TIP3      H1             33.6991003705      -14.3740371127       -0.6228330134  W2        1741            0.0000000000
      5223      1741  TIP3      H2             35.1668003705      -14.7337671127       -0.5317230134  W2        1741            0.0000000000
      5224      1742  TIP3      OH2            32.2873403705      -17.8404171127      -17.2841530134  W2        1742            0.0000000000
      5225      1742  TIP3      H1             32.8979203705      -18.2117371127      -16.6473330134  W2        1742            0.0000000000
      5226      1742  TIP3      H2             31.4504903705      -18.2617271127      -17.0881530134  W2        1742            0.0000000000
      5227      1743  TIP3      OH2            31.9199103705      -16.2855771127      -12.3181630134  W2        1743            0.0000000000
      5228      1743  TIP3      H1             32.1996203705      -17.1925371127      -12.1939930134  W2        1743            0.0000000000
      5229      1743  TIP3      H2             32.6790803705      -15.8514271127      -12.7072430134  W2        1743            0.0000000000
      5230      1744  TIP3      OH2            32.5317403705      -15.7038371127       -6.8822730134  W2        1744            0.0000000000
      5231      1744  TIP3      H1             33.4645403705      -15.4918471127       -6.9166730134  W2        1744            0.0000000000
      5232      1744  TIP3      H2             32.2964903705      -15.6026271127       -5.9599730134  W2        1744            0.0000000000
      5233      1745  TIP3      OH2            32.5609303705      -14.9673071127       -4.1063330134  W2        1745            0.0000000000
      5234      1745  TIP3      H1             31.7180603705      -14.6992671127       -3.7403530134  W2        1745            0.0000000000
      5235      1745  TIP3      H2             33.0033603705      -14.1451171127       -4.3172230134  W2        1745            0.0000000000
      5236      1746  TIP3      OH2            16.8421503705      -16.5194371127       -0.6294130134  W2        1746            0.0000000000
      5237      1746  TIP3      H1             17.7616403705      -16.6416071127       -0.3931030134  W2        1746            0.0000000000
      5238      1746  TIP3      H2             16.3926003705      -17.2694671127       -0.2400630134  W2        1746            0.0000000000
      5239      1747  TIP3      OH2            34.8440903705      -20.9872871127        1.2471669866  W2        1747            0.0000000000
      5240      1747  TIP3      H1             35.1937903705      -21.6409371127        0.6416369866  W2        1747            0.0000000000
      5241      1747  TIP3      H2             34.9910403705      -20.1498771127        0.8074269866  W2        1747            0.0000000000
      5242      1748  TIP3      OH2            32.5333903705      -19.0226471127      -12.2699630134  W2        1748            0.0000000000
      5243      1748  TIP3      H1             32.7158903705      -19.4714971127      -11.4444630134  W2        1748            0.0000000000
      5244      1748  TIP3      H2             31.9336803705      -19.6072071127      -12.7335030134  W2        1748            0.0000000000
      5245      1749  TIP3      OH2            18.0634003705      -18.2072771127       -7.7381230134  W2        1749            0.0000000000
      5246      1749  TIP3      H1             18.5085603705      -18.9990271127       -7.4361530134  W2        1749            0.0000000000
      5247      1749  TIP3      H2             18.5297003705      -17.4907571127       -7.3075630134  W2        1749            0.0000000000
      5248      1750  TIP3      OH2            16.3674303705      -15.2079771127       -6.6691030134  W2        1750            0.0000000000
      5249      1750  TIP3      H1             16.8594103705      -15.4289271127       -7.4599030134  W2        1750            0.0000000000
      5250      1750  TIP3      H2             16.7295203705      -14.3676371127       -6.3881530134  W2        1750            0.0000000000
      5251      1751  TIP3      OH2            34.3638103705      -18.8778271127       -0.4037030134  W2        1751            0.0000000000
      5252      1751  TIP3      H1             33.4463803705      -18.6071171127       -0.4393530134  W2        1751            0.0000000000
      5253      1751  TIP3      H2             34.4867503705      -19.4129871127       -1.1877330134  W2        1751            0.0000000000
      5254      1752  TIP3      OH2            34.4000103705      -18.9548371127      -15.7419330134  W2        1752            0.0000000000
      5255      1752  TIP3      H1             34.8122703705      -19.6762671127      -16.2171330134  W2        1752            0.0000000000
      5256      1752  TIP3      H2             35.0816603705      -18.2853771127      -15.6835030134  W2        1752            0.0000000000
      5257      1753  TIP3      OH2            16.6810803705      -18.9500671127      -12.6148630134  W2        1753            0.0000000000
      5258      1753  TIP3      H1             15.7559203705      -18.7414071127      -12.7443130134  W2        1753            0.0000000000
      5259      1753  TIP3      H2             17.1350703705      -18.4659871127      -13.3046330134  W2        1753            0.0000000000
      5260      1754  TIP3      OH2            31.4518003705       -3.9658971127      -10.6691230134  W2        1754            0.0000000000
      5261      1754  TIP3      H1             32.1040903705       -4.3136871127      -11.2772130134  W2        1754            0.0000000000
      5262      1754  TIP3      H2             31.9621803705       -3.4775771127      -10.0231530134  W2        1754            0.0000000000
      5263      1755  TIP3      OH2            16.6446203705      -20.2121671127       -4.2706130134  W2        1755            0.0000000000
      5264      1755  TIP3      H1             15.9796703705      -20.4581371127       -3.6275230134  W2        1755            0.0000000000
      5265      1755  TIP3      H2             16.2017503705      -19.5901271127       -4.8478130134  W2        1755            0.0000000000
      5266      1756  TIP3      OH2            18.8365503705       -7.0367571127       -0.1260330134  W2        1756            0.0000000000
      5267      1756  TIP3      H1             18.0158003705       -6.8621071127       -0.5865630134  W2        1756            0.0000000000
      5268      1756  TIP3      H2             18.5843303705       -7.1102871127        0.7944069866  W2        1756            0.0000000000
      5269      1757  TIP3      OH2            21.7908403705       -6.0626371127       -3.8676330134  W2        1757            0.0000000000
      5270      1757  TIP3      H1             21.3659503705       -5.2527871127       -4.1501730134  W2        1757            0.0000000000
      5271      1757  TIP3      H2             22.6951203705       -5.9772271127       -4.1696530134  W2        1757            0.0000000000
      5272      1758  TIP3      OH2            26.1019803705       -4.6636371127       -0.9082630134  W2        1758            0.0000000000
      5273      1758  TIP3      H1             26.2867303705       -4.9970271127       -0.0302330134  W2        1758            0.0000000000
      5274      1758  TIP3      H2             26.9484303705       -4.3537771127       -1.2303430134  W2        1758            0.0000000000
      5275      1759  TIP3      OH2            28.4470203705       -3.3777471127       -1.6641230134  W2        1759            0.0000000000
      5276      1759  TIP3      H1             29.1239103705       -4.0105171127       -1.9042030134  W2        1759            0.0000000000
      5277      1759  TIP3      H2             28.7689003705       -2.9766971127       -0.8567930134  W2        1759            0.0000000000
      5278      1760  TIP3      OH2            33.3644003705      -20.7881971127       -2.5846230134  W2        1760            0.0000000000
      5279      1760  TIP3      H1             32.5517503705      -20.4631671127       -2.9721530134  W2        1760            0.0000000000
      5280      1760  TIP3      H2             33.5972503705      -21.5483471127       -3.1177130134  W2        1760            0.0000000000
      5281      1761  TIP3      OH2            19.1925103705       -2.8062471127       -3.8201030134  W2        1761            0.0000000000
      5282      1761  TIP3      H1             18.4721503705       -2.3661471127       -4.2713330134  W2        1761            0.0000000000
      5283      1761  TIP3      H2             18.8269103705       -3.0567771127       -2.9717030134  W2        1761            0.0000000000
      5284      1762  TIP3      OH2            21.6597703705       -3.2058571127       -4.7903830134  W2        1762            0.0000000000
      5285      1762  TIP3      H1             20.7949903705       -3.1340071127       -4.3863730134  W2        1762            0.0000000000
      5286      1762  TIP3      H2             21.6046703705       -2.6591271127       -5.5741330134  W2        1762            0.0000000000
      5287      1763  TIP3      OH2            26.3703303705       -3.3179671127       -5.6147830134  W2        1763            0.0000000000
      5288      1763  TIP3      H1             25.9137303705       -2.7889971127       -6.2689430134  W2        1763            0.0000000000
      5289      1763  TIP3      H2             26.5331303705       -2.7148271127       -4.8895530134  W2        1763            0.0000000000
      5290      1764  TIP3      OH2            28.6979603705       -4.4400071127       -4.6697530134  W2        1764            0.0000000000
      5291      1764  TIP3      H1             27.7933303705       -4.2749871127       -4.9355430134  W2        1764            0.0000000000
      5292      1764  TIP3      H2             29.1268203705       -3.5867871127       -4.7354130134  W2        1764            0.0000000000
      5293      1765  TIP3      OH2            31.3021503705       -2.8700971127       -4.3749730134  W2        1765            0.0000000000
      5294      1765  TIP3      H1             31.1203503705       -1.9542071127       -4.5854830134  W2        1765            0.0000000000
      5295      1765  TIP3      H2             31.4789303705       -3.2803871127       -5.2215130134  W2        1765            0.0000000000
      5296      1766  TIP3      OH2            18.6073203705       -4.1829971127       -6.9099230134  W2        1766            0.0000000000
      5297      1766  TIP3      H1             18.5889203705       -4.6084871127       -6.0526930134  W2        1766            0.0000000000
      5298      1766  TIP3      H2             19.4121103705       -4.5014971127       -7.3187030134  W2        1766            0.0000000000
      5299      1767  TIP3      OH2            20.7486303705       -5.4731271127       -8.2549330134  W2        1767            0.0000000000
      5300      1767  TIP3      H1             20.5297003705       -6.3893871127       -8.0853330134  W2        1767            0.0000000000
      5301      1767  TIP3      H2             21.5728503705       -5.3330871127       -7.7887930134  W2        1767            0.0000000000
      5302      1768  TIP3      OH2            23.2858803705       -5.0031971127       -7.4061330134  W2        1768            0.0000000000
      5303      1768  TIP3      H1             23.4984503705       -5.8912971127       -7.6930430134  W2        1768            0.0000000000
      5304      1768  TIP3      H2             23.3503903705       -5.0374271127       -6.4517330134  W2        1768            0.0000000000
      5305      1769  TIP3      OH2            26.7942503705      -19.3391371127       -8.2618030134  W2        1769            0.0000000000
      5306      1769  TIP3      H1             26.1199303705      -19.9685771127       -8.0062230134  W2        1769            0.0000000000
      5307      1769  TIP3      H2             27.3581703705      -19.8232471127       -8.8650130134  W2        1769            0.0000000000
      5308      1770  TIP3      OH2            31.9369703705      -21.2317371127       -8.1490930134  W2        1770            0.0000000000
      5309      1770  TIP3      H1             32.5407303705      -20.6841971127       -8.6509930134  W2        1770            0.0000000000
      5310      1770  TIP3      H2             31.0671703705      -20.9126971127       -8.3896830134  W2        1770            0.0000000000
      5311      1771  TIP3      OH2            33.6640103705      -20.0928671127       -9.8160030134  W2        1771            0.0000000000
      5312      1771  TIP3      H1             34.2757603705      -20.6072971127      -10.3426430134  W2        1771            0.0000000000
      5313      1771  TIP3      H2             34.0463503705      -19.2156571127       -9.7925630134  W2        1771            0.0000000000
      5314      1772  TIP3      OH2            19.1210003705      -20.7051071127      -10.4398130134  W2        1772            0.0000000000
      5315      1772  TIP3      H1             18.3439803705      -20.9396171127      -10.9472230134  W2        1772            0.0000000000
      5316      1772  TIP3      H2             19.6513603705      -21.5018971127      -10.4310130134  W2        1772            0.0000000000
      5317      1773  TIP3      OH2            17.9573403705      -20.9072971127      -14.6362030134  W2        1773            0.0000000000
      5318      1773  TIP3      H1             18.3964103705      -20.2962471127      -15.2278530134  W2        1773            0.0000000000
      5319      1773  TIP3      H2             17.3235803705      -20.3688871127      -14.1622030134  W2        1773            0.0000000000
      5320      1774  TIP3      OH2            23.7002603705      -20.7783971127      -10.6265030134  W2        1774            0.0000000000
      5321      1774  TIP3      H1             24.5746003705      -20.3899671127      -10.6560730134  W2        1774            0.0000000000
      5322      1774  TIP3      H2             23.5643403705      -20.9936171127       -9.7037830134  W2        1774            0.0000000000
      5323      1775  TIP3      OH2            29.2571003705      -20.7484171127       -8.9773330134  W2        1775            0.0000000000
      5324      1775  TIP3      H1             29.3332603705      -20.6532571127       -9.9267330134  W2        1775            0.0000000000
      5325      1775  TIP3      H2             28.9820203705      -21.6561271127       -8.8484230134  W2        1775            0.0000000000
      5326      1776  TIP3      OH2            30.6103603705      -20.7226371127      -13.2848330134  W2        1776            0.0000000000
      5327      1776  TIP3      H1             29.9074703705      -20.1077171127      -13.4946930134  W2        1776            0.0000000000
      5328      1776  TIP3      H2             30.1655003705      -21.5599671127      -13.1537430134  W2        1776            0.0000000000
      5329      1777  TIP3      OH2            17.8582903705       -4.9590771127      -13.7386930134  W2        1777            0.0000000000
      5330      1777  TIP3      H1             17.1732803705       -4.9971871127      -14.4061830134  W2        1777            0.0000000000
      5331      1777  TIP3      H2             17.8620103705       -4.0463171127      -13.4504830134  W2        1777            0.0000000000
      5332      1778  TIP3      OH2            19.8182503705      -18.9911471127      -16.1937930134  W2        1778            0.0000000000
      5333      1778  TIP3      H1             20.3095903705      -19.6209071127      -16.7212430134  W2        1778            0.0000000000
      5334      1778  TIP3      H2             20.4418803705      -18.6952071127      -15.5306730134  W2        1778            0.0000000000
      5335      1779  TIP3      OH2            24.8442603705      -18.6979971127      -13.7367430134  W2        1779            0.0000000000
      5336      1779  TIP3      H1             25.0223903705      -19.3446771127      -13.0538830134  W2        1779            0.0000000000
      5337      1779  TIP3      H2             24.7908803705      -17.8642271127      -13.2696330134  W2        1779            0.0000000000
      5338      1780  TIP3      OH2            26.7226403705       -3.7495871127      -15.3410730134  W2        1780            0.0000000000
      5339      1780  TIP3      H1             27.5886603705       -3.3828471127      -15.5192530134  W2        1780            0.0000000000
      5340      1780  TIP3      H2             26.4759203705       -4.1887871127      -16.1549930134  W2        1780            0.0000000000
      5341      1781  TIP3      OH2            33.4316003705       -4.1865571127      -12.6619630134  W2        1781            0.0000000000
      5342      1781  TIP3      H1             33.2373103705       -4.9343471127      -13.2270030134  W2        1781            0.0000000000
      5343      1781  TIP3      H2             33.3926103705       -3.4285471127      -13.2451730134  W2        1781            0.0000000000
      5344      1782  TIP3      OH2            19.0788003705      -20.1909171127       -0.9221930134  W2        1782            0.0000000000
      5345      1782  TIP3      H1             18.7126203705      -20.9566571127       -0.4797230134  W2        1782            0.0000000000
      5346      1782  TIP3      H2             19.9916503705      -20.1618971127       -0.6356830134  W2        1782            0.0000000000
      5347      1783  TIP3      OH2            21.0518803705      -20.8404771127        0.6135169866  W2        1783            0.0000000000
      5348      1783  TIP3      H1             21.9502403705      -21.1144571127        0.4288569866  W2        1783            0.0000000000
      5349      1783  TIP3      H2             20.6651903705      -21.5828771127        1.0777769866  W2        1783            0.0000000000
      5350      1784  TIP3      OH2            19.6764103705       -4.0389971127      -16.7134830134  W2        1784            0.0000000000
      5351      1784  TIP3      H1             19.4088703705       -3.7527071127      -15.8401730134  W2        1784            0.0000000000
      5352      1784  TIP3      H2             20.4476703705       -4.5850771127      -16.5612330134  W2        1784            0.0000000000
      5353      1785  TIP3      OH2            29.4731103705      -21.5079471127        0.7957969866  W2        1785            0.0000000000
      5354      1785  TIP3      H1             29.5498303705      -21.9338771127        1.6495669866  W2        1785            0.0000000000
      5355      1785  TIP3      H2             30.3667703705      -21.4944771127        0.4531469866  W2        1785            0.0000000000
      5356      1786  TIP3      OH2            32.6492203705       -5.4353171127       -0.5117830134  W2        1786            0.0000000000
      5357      1786  TIP3      H1             31.8674103705       -5.6215171127       -1.0317230134  W2        1786            0.0000000000
      5358      1786  TIP3      H2             32.5772103705       -4.5058871127       -0.2945330134  W2        1786            0.0000000000
      5359      1787  TIP3      OH2            38.3568903705      -12.6795971127       -5.4692530134  W2        1787            0.0000000000
      5360      1787  TIP3      H1             38.3981003705      -13.3052671127       -4.7460130134  W2        1787            0.0000000000
      5361      1787  TIP3      H2             39.0596603705      -12.0557371127       -5.2872130134  W2        1787            0.0000000000
      5362      1788  TIP3      OH2            39.2802003705       -8.2297071127       -6.9343430134  W2        1788            0.0000000000
      5363      1788  TIP3      H1             38.9107203705       -9.0316571127       -7.3039130134  W2        1788            0.0000000000
      5364      1788  TIP3      H2             40.2213103705       -8.3982171127       -6.8880030134  W2        1788            0.0000000000
      5365      1789  TIP3      OH2            35.8902503705      -14.5694471127      -11.5414630134  W2        1789            0.0000000000
      5366      1789  TIP3      H1             35.4425903705      -13.7235771127      -11.5598130134  W2        1789            0.0000000000
      5367      1789  TIP3      H2             35.3293703705      -15.1490271127      -12.0569530134  W2        1789            0.0000000000
      5368      1790  TIP3      OH2            36.6008603705      -12.4074871127       -9.4156630134  W2        1790            0.0000000000
      5369      1790  TIP3      H1             36.8142103705      -13.1773271127       -8.8883630134  W2        1790            0.0000000000
      5370      1790  TIP3      H2             37.3386203705      -12.3178171127      -10.0189030134  W2        1790            0.0000000000
      5371      1791  TIP3      OH2            37.2935103705      -14.9692071127       -8.2940430134  W2        1791            0.0000000000
      5372      1791  TIP3      H1             37.9471703705      -15.5190371127       -7.8620330134  W2        1791            0.0000000000
      5373      1791  TIP3      H2             37.3174403705      -15.2433071127       -9.2108430134  W2        1791            0.0000000000
      5374      1792  TIP3      OH2            39.4835503705      -18.4479471127       -4.9821030134  W2        1792            0.0000000000
      5375      1792  TIP3      H1             39.2647203705      -17.9178871127       -5.7485030134  W2        1792            0.0000000000
      5376      1792  TIP3      H2             38.8156403705      -18.2213971127       -4.3349630134  W2        1792            0.0000000000
      5377      1793  TIP3      OH2            39.0772803705      -16.5557671127       -7.0298830134  W2        1793            0.0000000000
      5378      1793  TIP3      H1             39.6909103705      -15.9230071127       -6.6566430134  W2        1793            0.0000000000
      5379      1793  TIP3      H2             39.5893503705      -17.0282671127       -7.6861930134  W2        1793            0.0000000000
      5380      1794  TIP3      OH2            40.4601203705       -8.8080771127       -3.9075830134  W2        1794            0.0000000000
      5381      1794  TIP3      H1             40.4548803705       -7.9287271127       -4.2856530134  W2        1794            0.0000000000
      5382      1794  TIP3      H2             39.6065303705       -8.8916671127       -3.4825930134  W2        1794            0.0000000000
      5383      1795  TIP3      OH2            36.5812103705       -9.1372871127      -13.1256530134  W2        1795            0.0000000000
      5384      1795  TIP3      H1             36.3093003705       -8.9081871127      -14.0143630134  W2        1795            0.0000000000
      5385      1795  TIP3      H2             36.6267803705       -8.2994071127      -12.6651230134  W2        1795            0.0000000000
      5386      1796  TIP3      OH2            38.9942603705      -12.0989871127       -2.6156830134  W2        1796            0.0000000000
      5387      1796  TIP3      H1             39.0645803705      -11.4483071127       -1.9171830134  W2        1796            0.0000000000
      5388      1796  TIP3      H2             38.1034803705      -11.9962371127       -2.9505930134  W2        1796            0.0000000000
      5389      1797  TIP3      OH2            40.3138603705       -6.2255971127       -1.0808730134  W2        1797            0.0000000000
      5390      1797  TIP3      H1             40.3213903705       -6.3616271127       -2.0283230134  W2        1797            0.0000000000
      5391      1797  TIP3      H2             39.3979003705       -6.3427871127       -0.8288730134  W2        1797            0.0000000000
      5392      1798  TIP3      OH2            39.8179203705      -12.3954971127      -12.6056630134  W2        1798            0.0000000000
      5393      1798  TIP3      H1             39.5260503705      -11.6273271127      -13.0965330134  W2        1798            0.0000000000
      5394      1798  TIP3      H2             39.1434403705      -13.0548771127      -12.7685230134  W2        1798            0.0000000000
      5395      1799  TIP3      OH2            35.9109303705      -10.0325771127       -3.7906830134  W2        1799            0.0000000000
      5396      1799  TIP3      H1             35.4097703705      -10.0606371127       -4.6057130134  W2        1799            0.0000000000
      5397      1799  TIP3      H2             35.9163003705      -10.9382571127       -3.4809530134  W2        1799            0.0000000000
      5398      1800  TIP3      OH2            35.6612003705       -7.2521971127       -6.9066630134  W2        1800            0.0000000000
      5399      1800  TIP3      H1             36.6072603705       -7.3964971127       -6.9257130134  W2        1800            0.0000000000
      5400      1800  TIP3      H2             35.5488303705       -6.4679171127       -6.3695430134  W2        1800            0.0000000000
      5401      1801  TIP3      OH2            38.9054103705       -4.4512371127      -10.7611930134  W2        1801            0.0000000000
      5402      1801  TIP3      H1             39.0574503705       -4.7991971127       -9.8825430134  W2        1801            0.0000000000
      5403      1801  TIP3      H2             38.0544503705       -4.8075071127      -11.0164730134  W2        1801            0.0000000000
      5404      1802  TIP3      OH2            38.1599803705       -8.7090371127       -2.7474030134  W2        1802            0.0000000000
      5405      1802  TIP3      H1             38.3761103705       -9.0704771127       -1.8878230134  W2        1802            0.0000000000
      5406      1802  TIP3      H2             37.3044503705       -9.0836571127       -2.9570530134  W2        1802            0.0000000000
      5407      1803  TIP3      OH2            38.6198403705      -14.9531871127       -3.7897630134  W2        1803            0.0000000000
      5408      1803  TIP3      H1             38.5817803705      -14.5530271127       -2.9210530134  W2        1803            0.0000000000
      5409      1803  TIP3      H2             38.1289503705      -15.7699471127       -3.6994730134  W2        1803            0.0000000000
      5410      1804  TIP3      OH2            35.2279203705      -17.8370071127       -9.9392930134  W2        1804            0.0000000000
      5411      1804  TIP3      H1             35.8586903705      -17.8657971127       -9.2199030134  W2        1804            0.0000000000
      5412      1804  TIP3      H2             35.6773503705      -18.2621371127      -10.6697030134  W2        1804            0.0000000000
      5413      1805  TIP3      OH2            36.5021303705      -17.0908071127      -14.5152530134  W2        1805            0.0000000000
      5414      1805  TIP3      H1             36.9763003705      -16.4998171127      -15.1001630134  W2        1805            0.0000000000
      5415      1805  TIP3      H2             35.7847703705      -16.5605171127      -14.1682430134  W2        1805            0.0000000000
      5416      1806  TIP3      OH2            38.2765703705      -15.9961471127      -10.8317930134  W2        1806            0.0000000000
      5417      1806  TIP3      H1             37.3873703705      -15.8965971127      -11.1718330134  W2        1806            0.0000000000
      5418      1806  TIP3      H2             38.5730603705      -16.8378471127      -11.1780030134  W2        1806            0.0000000000
      5419      1807  TIP3      OH2            38.7389103705      -10.2444771127       -0.5095630134  W2        1807            0.0000000000
      5420      1807  TIP3      H1             39.4711503705       -9.9898871127        0.0518869866  W2        1807            0.0000000000
      5421      1807  TIP3      H2             37.9587803705      -10.0399371127        0.0059769866  W2        1807            0.0000000000
      5422      1808  TIP3      OH2            39.7701703705      -18.7008671127      -11.3531130134  W2        1808            0.0000000000
      5423      1808  TIP3      H1             39.4531203705      -19.6033371127      -11.3885730134  W2        1808            0.0000000000
      5424      1808  TIP3      H2             40.5515803705      -18.6991271127      -11.9059530134  W2        1808            0.0000000000
      5425      1809  TIP3      OH2            39.0638803705      -10.9410971127       -7.9031230134  W2        1809            0.0000000000
      5426      1809  TIP3      H1             39.8086003705      -10.9435271127       -8.5044730134  W2        1809            0.0000000000
      5427      1809  TIP3      H2             39.1415403705      -11.7647171127       -7.4216130134  W2        1809            0.0000000000
      5428      1810  TIP3      OH2            36.0718503705      -12.4804071127       -2.5882730134  W2        1810            0.0000000000
      5429      1810  TIP3      H1             36.2947103705      -12.8984471127       -1.7565230134  W2        1810            0.0000000000
      5430      1810  TIP3      H2             35.4698603705      -13.0929071127       -3.0109930134  W2        1810            0.0000000000
      5431      1811  TIP3      OH2            37.1935903705      -12.5608671127      -15.9117330134  W2        1811            0.0000000000
      5432      1811  TIP3      H1             37.8095803705      -11.9341471127      -15.5322530134  W2        1811            0.0000000000
      5433      1811  TIP3      H2             36.3318503705      -12.2448871127      -15.6400830134  W2        1811            0.0000000000
      5434      1812  TIP3      OH2            37.7058003705      -17.7271371127       -3.0301330134  W2        1812            0.0000000000
      5435      1812  TIP3      H1             36.8130303705      -17.3885971127       -3.0977330134  W2        1812            0.0000000000
      5436      1812  TIP3      H2             37.6070803705      -18.5825271127       -2.6120530134  W2        1812            0.0000000000
      5437      1813  TIP3      OH2            37.3570003705       -5.9226971127       -4.5951930134  W2        1813            0.0000000000
      5438      1813  TIP3      H1             37.5740303705       -6.8544571127       -4.6262230134  W2        1813            0.0000000000
      5439      1813  TIP3      H2             37.6033503705       -5.6481971127       -3.7119130134  W2        1813            0.0000000000
      5440      1814  TIP3      OH2            38.6086303705      -10.6484871127      -14.4191730134  W2        1814            0.0000000000
      5441      1814  TIP3      H1             37.9225603705      -10.2962371127      -13.8522030134  W2        1814            0.0000000000
      5442      1814  TIP3      H2             39.1314203705       -9.8855271127      -14.6657430134  W2        1814            0.0000000000
      5443      1815  TIP3      OH2            39.2245203705       -8.0345971127      -15.5223930134  W2        1815            0.0000000000
      5444      1815  TIP3      H1             39.8166703705       -7.3351171127      -15.2461530134  W2        1815            0.0000000000
      5445      1815  TIP3      H2             39.6838203705       -8.4676471127      -16.2419330134  W2        1815            0.0000000000
      5446      1816  TIP3      OH2            37.5404403705      -15.3702971127      -16.4064530134  W2        1816            0.0000000000
      5447      1816  TIP3      H1             37.4957003705      -14.4309871127      -16.2277530134  W2        1816            0.0000000000
      5448      1816  TIP3      H2             36.6527603705      -15.6058071127      -16.6762430134  W2        1816            0.0000000000
      5449      1817  TIP3      OH2            38.3486403705      -20.5886371127       -7.7333530134  W2        1817            0.0000000000
      5450      1817  TIP3      H1             38.1196203705      -20.5293871127       -8.6608530134  W2        1817            0.0000000000
      5451      1817  TIP3      H2             37.9059803705      -21.3800871127       -7.4269430134  W2        1817            0.0000000000
      5452      1818  TIP3      OH2            37.2789703705       -6.6479271127      -11.5727730134  W2        1818            0.0000000000
      5453      1818  TIP3      H1             36.4468303705       -6.1756571127      -11.5456330134  W2        1818            0.0000000000
      5454      1818  TIP3      H2             37.8248003705       -6.1381671127      -12.1714630134  W2        1818            0.0000000000
      5455      1819  TIP3      OH2            36.5673403705       -4.0355571127       -0.2429730134  W2        1819            0.0000000000
      5456      1819  TIP3      H1             37.1075603705       -4.2521571127        0.5169469866  W2        1819            0.0000000000
      5457      1819  TIP3      H2             36.0861403705       -4.8409571127       -0.4327230134  W2        1819            0.0000000000
      5458      1820  TIP3      OH2            36.4742903705      -10.2251471127        0.7114569866  W2        1820            0.0000000000
      5459      1820  TIP3      H1             36.6183403705      -11.1270771127        0.4251269866  W2        1820            0.0000000000
      5460      1820  TIP3      H2             35.7020303705       -9.9389371127        0.2236869866  W2        1820            0.0000000000
      5461      1821  TIP3      OH2            37.3069403705      -13.0248171127        0.1313869866  W2        1821            0.0000000000
      5462      1821  TIP3      H1             37.7150603705      -13.8821571127        0.0104469866  W2        1821            0.0000000000
      5463      1821  TIP3      H2             37.0467003705      -13.0106871127        1.0524169866  W2        1821            0.0000000000
      5464      1822  TIP3      OH2            40.0719703705      -15.4628171127        0.4995469866  W2        1822            0.0000000000
      5465      1822  TIP3      H1             39.3048703705      -15.9953371127        0.2893069866  W2        1822            0.0000000000
      5466      1822  TIP3      H2             40.7508703705      -15.7727771127       -0.0998230134  W2        1822            0.0000000000
      5467      1823  TIP3      OH2            38.2522503705      -17.5424371127        0.2040169866  W2        1823            0.0000000000
      5468      1823  TIP3      H1             38.4639903705      -18.2488271127       -0.4062330134  W2        1823            0.0000000000
      5469      1823  TIP3      H2             38.1410003705      -17.9798371127        1.0481369866  W2        1823            0.0000000000
      5470      1824  TIP3      OH2            36.5017403705       -8.3390271127      -16.1037930134  W2        1824            0.0000000000
      5471      1824  TIP3      H1             37.4156603705       -8.2601371127      -15.8304030134  W2        1824            0.0000000000
      5472      1824  TIP3      H2             36.5090503705       -9.0260671127      -16.7702330134  W2        1824            0.0000000000
      5473      1825  TIP3      OH2            35.1508003705       -2.9461771127      -11.0264030134  W2        1825            0.0000000000
      5474      1825  TIP3      H1             34.5035103705       -3.4080071127      -11.5592830134  W2        1825            0.0000000000
      5475      1825  TIP3      H2             35.5052603705       -3.6178471127      -10.4437830134  W2        1825            0.0000000000
      5476      1826  TIP3      OH2            36.0207203705       -4.8654771127       -9.2217830134  W2        1826            0.0000000000
      5477      1826  TIP3      H1             35.6864003705       -5.7457471127       -9.0497630134  W2        1826            0.0000000000
      5478      1826  TIP3      H2             36.2429603705       -4.5199771127       -8.3572230134  W2        1826            0.0000000000
      5479      1827  TIP3      OH2            36.1006703705      -11.7899371127       -6.7702930134  W2        1827            0.0000000000
      5480      1827  TIP3      H1             36.2849603705      -11.8717671127       -7.7060030134  W2        1827            0.0000000000
      5481      1827  TIP3      H2             36.9499603705      -11.9142371127       -6.3466530134  W2        1827            0.0000000000
      5482      1828  TIP3      OH2            35.6981503705      -16.5194371127       -0.6294130134  W2        1828            0.0000000000
      5483      1828  TIP3      H1             36.6176403705      -16.6416071127       -0.3931030134  W2        1828            0.0000000000
      5484      1828  TIP3      H2             35.2486003705      -17.2694671127       -0.2400630134  W2        1828            0.0000000000
      5485      1829  TIP3      OH2            36.9194003705      -18.2072771127       -7.7381230134  W2        1829            0.0000000000
      5486      1829  TIP3      H1             37.3645603705      -18.9990271127       -7.4361530134  W2        1829            0.0000000000
      5487      1829  TIP3      H2             37.3857003705      -17.4907571127       -7.3075630134  W2        1829            0.0000000000
      5488      1830  TIP3      OH2            35.2234303705      -15.2079771127       -6.6691030134  W2        1830            0.0000000000
      5489      1830  TIP3      H1             35.7154103705      -15.4289271127       -7.4599030134  W2        1830            0.0000000000
      5490      1830  TIP3      H2             35.5855203705      -14.3676371127       -6.3881530134  W2        1830            0.0000000000
      5491      1831  TIP3      OH2            35.5370803705      -18.9500671127      -12.6148630134  W2        1831            0.0000000000
      5492      1831  TIP3      H1             34.6119203705      -18.7414071127      -12.7443130134  W2        1831            0.0000000000
      5493      1831  TIP3      H2             35.9910703705      -18.4659871127      -13.3046330134  W2        1831            0.0000000000
      5494      1832  TIP3      OH2            35.5006203705      -20.2121671127       -4.2706130134  W2        1832            0.0000000000
      5495      1832  TIP3      H1             34.8356703705      -20.4581371127       -3.6275230134  W2        1832            0.0000000000
      5496      1832  TIP3      H2             35.0577503705      -19.5901271127       -4.8478130134  W2        1832            0.0000000000
      5497      1833  TIP3      OH2            37.6925503705       -7.0367571127       -0.1260330134  W2        1833            0.0000000000
      5498      1833  TIP3      H1             36.8718003705       -6.8621071127       -0.5865630134  W2        1833            0.0000000000
      5499      1833  TIP3      H2             37.4403303705       -7.1102871127        0.7944069866  W2        1833            0.0000000000
      5500      1834  TIP3      OH2            38.0485103705       -2.8062471127       -3.8201030134  W2        1834            0.0000000000
      5501      1834  TIP3      H1             37.3281503705       -2.3661471127       -4.2713330134  W2        1834            0.0000000000
      5502      1834  TIP3      H2             37.6829103705       -3.0567771127       -2.9717030134  W2        1834            0.0000000000
      5503      1835  TIP3      OH2            40.5157703705       -3.2058571127       -4.7903830134  W2        1835            0.0000000000
      5504      1835  TIP3      H1             39.6509903705       -3.1340071127       -4.3863730134  W2        1835            0.0000000000
      5505      1835  TIP3      H2             40.4606703705       -2.6591271127       -5.5741330134  W2        1835            0.0000000000
      5506      1836  TIP3      OH2            37.4633203705       -4.1829971127       -6.9099230134  W2        1836            0.0000000000
      5507      1836  TIP3      H1             37.4449203705       -4.6084871127       -6.0526930134  W2        1836            0.0000000000
      5508      1836  TIP3      H2             38.2681103705       -4.5014971127       -7.3187030134  W2        1836            0.0000000000
      5509      1837  TIP3      OH2            39.6046303705       -5.4731271127       -8.2549330134  W2        1837            0.0000000000
      5510      1837  TIP3      H1             39.3857003705       -6.3893871127       -8.0853330134  W2        1837            0.0000000000
      5511      1837  TIP3      H2             40.4288503705       -5.3330871127       -7.7887930134  W2        1837            0.0000000000
      5512      1838  TIP3      OH2            37.9770003705      -20.7051071127      -10.4398130134  W2        1838            0.0000000000
      5513      1838  TIP3      H1             37.1999803705      -20.9396171127      -10.9472230134  W2        1838            0.0000000000
      5514      1838  TIP3      H2             38.5073603705      -21.5018971127      -10.4310130134  W2        1838            0.0000000000
      5515      1839  TIP3      OH2            36.8133403705      -20.9072971127      -14.6362030134  W2        1839            0.0000000000
      5516      1839  TIP3      H1             37.2524103705      -20.2962471127      -15.2278530134  W2        1839            0.0000000000
      5517      1839  TIP3      H2             36.1795803705      -20.3688871127      -14.1622030134  W2        1839            0.0000000000
      5518      1840  TIP3      OH2            36.7142903705       -4.9590771127      -13.7386930134  W2        1840            0.0000000000
      5519      1840  TIP3      H1             36.0292803705       -4.9971871127      -14.4061830134  W2        1840            0.0000000000
      5520      1840  TIP3      H2             36.7180103705       -4.0463171127      -13.4504830134  W2        1840            0.0000000000
      5521      1841  TIP3      OH2            38.6742503705      -18.9911471127      -16.1937930134  W2        1841            0.0000000000
      5522      1841  TIP3      H1             39.1655903705      -19.6209071127      -16.7212430134  W2        1841            0.0000000000
      5523      1841  TIP3      H2             39.2978803705      -18.6952071127      -15.5306730134  W2        1841            0.0000000000
      5524      1842  TIP3      OH2            37.9348003705      -20.1909171127       -0.9221930134  W2        1842            0.0000000000
      5525      1842  TIP3      H1             37.5686203705      -20.9566571127       -0.4797230134  W2        1842            0.0000000000
      5526      1842  TIP3      H2             38.8476503705      -20.1618971127       -0.6356830134  W2        1842            0.0000000000
      5527      1843  TIP3      OH2            39.9078803705      -20.8404771127        0.6135169866  W2        1843            0.0000000000
      5528      1843  TIP3      H1             40.8062403705      -21.1144571127        0.4288569866  W2        1843            0.0000000000
      5529      1843  TIP3      H2             39.5211903705      -21.5828771127        1.0777769866  W2        1843            0.0000000000
      5530      1844  TIP3      OH2            38.5324103705       -4.0389971127      -16.7134830134  W2        1844            0.0000000000
      5531      1844  TIP3      H1             38.2648703705       -3.7527071127      -15.8401730134  W2        1844            0.0000000000
      5532      1844  TIP3      H2             39.3036703705       -4.5850771127      -16.5612330134  W2        1844            0.0000000000
      5533      1845  TIP3      OH2           -28.3687396295        7.3071228873      -10.4810630134  W2        1845            0.0000000000
      5534      1845  TIP3      H1            -28.2796296295        8.2509428873      -10.6133530134  W2        1845            0.0000000000
      5535      1845  TIP3      H2            -29.0069796295        7.0317628873      -11.1391230134  W2        1845            0.0000000000
      5536      1846  TIP3      OH2           -29.4356096295        6.5621928873       -7.0622430134  W2        1846            0.0000000000
      5537      1846  TIP3      H1            -29.4738596295        5.9158228873       -6.3572830134  W2        1846            0.0000000000
      5538      1846  TIP3      H2            -29.7579596295        6.0956328873       -7.8333730134  W2        1846            0.0000000000
      5539      1847  TIP3      OH2           -37.0671096295        6.1764028873       -5.4692530134  W2        1847            0.0000000000
      5540      1847  TIP3      H1            -37.0258996295        5.5507328873       -4.7460130134  W2        1847            0.0000000000
      5541      1847  TIP3      H2            -36.3643396295        6.8002628873       -5.2872130134  W2        1847            0.0000000000
      5542      1848  TIP3      OH2           -25.7295896295        9.5012328873       -8.7607330134  W2        1848            0.0000000000
      5543      1848  TIP3      H1            -26.1703196295        8.7808328873       -8.3101730134  W2        1848            0.0000000000
      5544      1848  TIP3      H2            -25.7426196295       10.2219528873       -8.1309630134  W2        1848            0.0000000000
      5545      1849  TIP3      OH2           -36.1437996295       10.6262928873       -6.9343430134  W2        1849            0.0000000000
      5546      1849  TIP3      H1            -36.5132796295        9.8243428873       -7.3039130134  W2        1849            0.0000000000
      5547      1849  TIP3      H2            -35.2026896295       10.4577828873       -6.8880030134  W2        1849            0.0000000000
      5548      1850  TIP3      OH2           -39.5337496295        4.2865528873      -11.5414630134  W2        1850            0.0000000000
      5549      1850  TIP3      H1            -39.9814096295        5.1324228873      -11.5598130134  W2        1850            0.0000000000
      5550      1850  TIP3      H2            -40.0946296295        3.7069728873      -12.0569530134  W2        1850            0.0000000000
      5551      1851  TIP3      OH2           -38.8231396295        6.4485128873       -9.4156630134  W2        1851            0.0000000000
      5552      1851  TIP3      H1            -38.6097896295        5.6786728873       -8.8883630134  W2        1851            0.0000000000
      5553      1851  TIP3      H2            -38.0853796295        6.5381828873      -10.0189030134  W2        1851            0.0000000000
      5554      1852  TIP3      OH2           -28.6180396295       14.6054028873       -8.5486930134  W2        1852            0.0000000000
      5555      1852  TIP3      H1            -27.9983996295       13.9288728873       -8.8217730134  W2        1852            0.0000000000
      5556      1852  TIP3      H2            -28.8262996295       14.3874828873       -7.6402030134  W2        1852            0.0000000000
      5557      1853  TIP3      OH2           -31.0461696295        8.9943328873       -6.6561430134  W2        1853            0.0000000000
      5558      1853  TIP3      H1            -30.7423796295        8.3084728873       -7.2507330134  W2        1853            0.0000000000
      5559      1853  TIP3      H2            -30.3247696295        9.1132028873       -6.0383430134  W2        1853            0.0000000000
      5560      1854  TIP3      OH2           -22.3831896295        0.5958628873       -5.7955230134  W2        1854            0.0000000000
      5561      1854  TIP3      H1            -22.3339696295        1.2059828873       -5.0596130134  W2        1854            0.0000000000
      5562      1854  TIP3      H2            -21.9576796295        1.0569528873       -6.5184130134  W2        1854            0.0000000000
      5563      1855  TIP3      OH2           -27.9054696295        3.3885728873       -6.3286630134  W2        1855            0.0000000000
      5564      1855  TIP3      H1            -27.7628796295        2.4422728873       -6.3085030134  W2        1855            0.0000000000
      5565      1855  TIP3      H2            -28.0115696295        3.5955528873       -7.2571730134  W2        1855            0.0000000000
      5566      1856  TIP3      OH2           -34.7506396295        1.4902128873       -9.0561830134  W2        1856            0.0000000000
      5567      1856  TIP3      H1            -34.7075296295        2.3500628873       -9.4745530134  W2        1856            0.0000000000
      5568      1856  TIP3      H2            -35.2082296295        0.9376828873       -9.6898630134  W2        1856            0.0000000000
      5569      1857  TIP3      OH2           -27.0283696295        1.6207728873      -10.6553530134  W2        1857            0.0000000000
      5570      1857  TIP3      H1            -26.3819396295        1.2920928873      -10.0305930134  W2        1857            0.0000000000
      5571      1857  TIP3      H2            -26.5184296295        2.1386728873      -11.2782130134  W2        1857            0.0000000000
      5572      1858  TIP3      OH2           -38.1304896295        3.8867928873       -8.2940430134  W2        1858            0.0000000000
      5573      1858  TIP3      H1            -37.4768296295        3.3369628873       -7.8620330134  W2        1858            0.0000000000
      5574      1858  TIP3      H2            -38.1065596295        3.6126928873       -9.2108430134  W2        1858            0.0000000000
      5575      1859  TIP3      OH2           -32.9740396295        5.4369228873       -9.0788930134  W2        1859            0.0000000000
      5576      1859  TIP3      H1            -32.3579396295        4.9104628873       -8.5694930134  W2        1859            0.0000000000
      5577      1859  TIP3      H2            -33.5601596295        4.7967928873       -9.4825330134  W2        1859            0.0000000000
      5578      1860  TIP3      OH2           -21.9917296295        2.0737828873       -3.5595430134  W2        1860            0.0000000000
      5579      1860  TIP3      H1            -22.6802696295        2.7318528873       -3.6548830134  W2        1860            0.0000000000
      5580      1860  TIP3      H2            -21.9762696295        1.8765728873       -2.6230030134  W2        1860            0.0000000000
      5581      1861  TIP3      OH2           -35.9404496295        0.4080528873       -4.9821030134  W2        1861            0.0000000000
      5582      1861  TIP3      H1            -36.1592796295        0.9381128873       -5.7485030134  W2        1861            0.0000000000
      5583      1861  TIP3      H2            -36.6083596295        0.6346028873       -4.3349630134  W2        1861            0.0000000000
      5584      1862  TIP3      OH2           -28.5714696295        9.9081628873      -11.4381930134  W2        1862            0.0000000000
      5585      1862  TIP3      H1            -28.8669596295        9.5853928873      -12.2895030134  W2        1862            0.0000000000
      5586      1862  TIP3      H2            -28.8956896295       10.8078328873      -11.3969330134  W2        1862            0.0000000000
      5587      1863  TIP3      OH2           -33.3713096295        8.0836228873       -4.6947330134  W2        1863            0.0000000000
      5588      1863  TIP3      H1            -34.1113996295        8.6817728873       -4.5912130134  W2        1863            0.0000000000
      5589      1863  TIP3      H2            -32.6573596295        8.6375828873       -5.0103730134  W2        1863            0.0000000000
      5590      1864  TIP3      OH2           -25.2645296295        0.9117028873       -8.6747630134  W2        1864            0.0000000000
      5591      1864  TIP3      H1            -25.4797296295        0.1460428873       -8.1421630134  W2        1864            0.0000000000
      5592      1864  TIP3      H2            -24.6087896295        1.3841628873       -8.1619130134  W2        1864            0.0000000000
      5593      1865  TIP3      OH2           -36.3467196295        2.3002328873       -7.0298830134  W2        1865            0.0000000000
      5594      1865  TIP3      H1            -35.7330896295        2.9329928873       -6.6566430134  W2        1865            0.0000000000
      5595      1865  TIP3      H2            -35.8346496295        1.8277328873       -7.6861930134  W2        1865            0.0000000000
      5596      1866  TIP3      OH2           -34.9638796295       10.0479228873       -3.9075830134  W2        1866            0.0000000000
      5597      1866  TIP3      H1            -34.9691196295       10.9272728873       -4.2856530134  W2        1866            0.0000000000
      5598      1866  TIP3      H2            -35.8174696295        9.9643328873       -3.4825930134  W2        1866            0.0000000000
      5599      1867  TIP3      OH2           -38.8427896295        9.7187128873      -13.1256530134  W2        1867            0.0000000000
      5600      1867  TIP3      H1            -39.1146996295        9.9478128873      -14.0143630134  W2        1867            0.0000000000
      5601      1867  TIP3      H2            -38.7972196295       10.5565928873      -12.6651230134  W2        1867            0.0000000000
      5602      1868  TIP3      OH2           -25.2178196295       11.3403028873       -6.4128030134  W2        1868            0.0000000000
      5603      1868  TIP3      H1            -26.1594496295       11.3986928873       -6.2511130134  W2        1868            0.0000000000
      5604      1868  TIP3      H2            -24.9412096295       12.2463528873       -6.5498330134  W2        1868            0.0000000000
      5605      1869  TIP3      OH2           -24.9171196295       -0.3731671127       -4.9954130134  W2        1869            0.0000000000
      5606      1869  TIP3      H1            -25.6531996295        0.2375428873       -5.0332830134  W2        1869            0.0000000000
      5607      1869  TIP3      H2            -24.2337196295        0.0417328873       -5.5217730134  W2        1869            0.0000000000
      5608      1870  TIP3      OH2           -31.9139796295       -2.2864371127       -7.5296130134  W2        1870            0.0000000000
      5609      1870  TIP3      H1            -32.0315596295       -3.2348371127       -7.5837830134  W2        1870            0.0000000000
      5610      1870  TIP3      H2            -32.7689696295       -1.9538271127       -7.2565030134  W2        1870            0.0000000000
      5611      1871  TIP3      OH2           -26.9656996295       13.1216528873       -9.7876430134  W2        1871            0.0000000000
      5612      1871  TIP3      H1            -26.5404696295       12.4144428873      -10.2726830134  W2        1871            0.0000000000
      5613      1871  TIP3      H2            -26.6486996295       13.9229228873      -10.2044230134  W2        1871            0.0000000000
      5614      1872  TIP3      OH2           -25.8060496295       11.0225028873      -11.2789830134  W2        1872            0.0000000000
      5615      1872  TIP3      H1            -26.0635696295       10.3325128873      -11.8903930134  W2        1872            0.0000000000
      5616      1872  TIP3      H2            -25.7349696295       10.5796228873      -10.4333930134  W2        1872            0.0000000000
      5617      1873  TIP3      OH2           -24.1200296295        9.5891728873       -2.8016330134  W2        1873            0.0000000000
      5618      1873  TIP3      H1            -23.9803996295        8.9974228873       -3.5409330134  W2        1873            0.0000000000
      5619      1873  TIP3      H2            -23.9527496295       10.4617628873       -3.1577530134  W2        1873            0.0000000000
      5620      1874  TIP3      OH2           -29.6474896295        6.5511228873      -13.0290330134  W2        1874            0.0000000000
      5621      1874  TIP3      H1            -30.3589396295        7.0860928873      -13.3809830134  W2        1874            0.0000000000
      5622      1874  TIP3      H2            -28.9565296295        6.6063328873      -13.6891430134  W2        1874            0.0000000000
      5623      1875  TIP3      OH2           -29.5935696295        5.0085528873      -15.9905330134  W2        1875            0.0000000000
      5624      1875  TIP3      H1            -28.8925796295        5.0312428873      -15.3391330134  W2        1875            0.0000000000
      5625      1875  TIP3      H2            -29.2912796295        4.3805228873      -16.6466030134  W2        1875            0.0000000000
      5626      1876  TIP3      OH2           -22.2780996295        5.9289728873       -4.7355930134  W2        1876            0.0000000000
      5627      1876  TIP3      H1            -22.9306896295        6.6235328873       -4.6465030134  W2        1876            0.0000000000
      5628      1876  TIP3      H2            -21.8130696295        6.1390628873       -5.5454330134  W2        1876            0.0000000000
      5629      1877  TIP3      OH2           -26.2417196295        6.7604528873      -12.0774430134  W2        1877            0.0000000000
      5630      1877  TIP3      H1            -26.9736196295        6.9888228873      -11.5043830134  W2        1877            0.0000000000
      5631      1877  TIP3      H2            -25.7944996295        6.0467228873      -11.6226930134  W2        1877            0.0000000000
      5632      1878  TIP3      OH2           -26.3443696295        4.9347128873       -3.0097430134  W2        1878            0.0000000000
      5633      1878  TIP3      H1            -26.2644596295        5.6981528873       -2.4378930134  W2        1878            0.0000000000
      5634      1878  TIP3      H2            -26.9455996295        5.2139528873       -3.7002330134  W2        1878            0.0000000000
      5635      1879  TIP3      OH2           -34.5963496295        7.3910728873      -10.1949430134  W2        1879            0.0000000000
      5636      1879  TIP3      H1            -34.9268296295        7.0204128873      -11.0132430134  W2        1879            0.0000000000
      5637      1879  TIP3      H2            -34.0079396295        6.7204728873       -9.8481130134  W2        1879            0.0000000000
      5638      1880  TIP3      OH2           -33.2295996295       10.8191328873       -7.5137230134  W2        1880            0.0000000000
      5639      1880  TIP3      H1            -33.3244696295       10.2404428873       -8.2702630134  W2        1880            0.0000000000
      5640      1880  TIP3      H2            -32.5002396295       10.4477028873       -7.0174430134  W2        1880            0.0000000000
      5641      1881  TIP3      OH2           -34.2297996295        6.1596328873       -6.5614430134  W2        1881            0.0000000000
      5642      1881  TIP3      H1            -33.6645496295        6.2810528873       -7.3243230134  W2        1881            0.0000000000
      5643      1881  TIP3      H2            -33.9109096295        6.7971328873       -5.9225930134  W2        1881            0.0000000000
      5644      1882  TIP3      OH2           -27.9205796295       11.6628228873       -5.8273930134  W2        1882            0.0000000000
      5645      1882  TIP3      H1            -28.1609196295       12.3251328873       -5.1794730134  W2        1882            0.0000000000
      5646      1882  TIP3      H2            -28.1187596295       10.8283428873       -5.4024330134  W2        1882            0.0000000000
      5647      1883  TIP3      OH2           -33.3497296295       10.5589028873       -1.8442530134  W2        1883            0.0000000000
      5648      1883  TIP3      H1            -33.6609796295       11.3412228873       -1.3889330134  W2        1883            0.0000000000
      5649      1883  TIP3      H2            -33.9997096295       10.4058128873       -2.5300530134  W2        1883            0.0000000000
      5650      1884  TIP3      OH2           -27.3707696295        5.9227428873      -14.3923230134  W2        1884            0.0000000000
      5651      1884  TIP3      H1            -26.7912196295        6.0727728873      -13.6454330134  W2        1884            0.0000000000
      5652      1884  TIP3      H2            -26.9567696295        6.3934828873      -15.1156830134  W2        1884            0.0000000000
      5653      1885  TIP3      OH2           -36.4297396295        6.7570128873       -2.6156830134  W2        1885            0.0000000000
      5654      1885  TIP3      H1            -36.3594196295        7.4076928873       -1.9171830134  W2        1885            0.0000000000
      5655      1885  TIP3      H2            -37.3205196295        6.8597628873       -2.9505930134  W2        1885            0.0000000000
      5656      1886  TIP3      OH2           -29.6442796295       12.6595928873      -10.9570130134  W2        1886            0.0000000000
      5657      1886  TIP3      H1            -29.1705196295       12.9552228873      -10.1795930134  W2        1886            0.0000000000
      5658      1886  TIP3      H2            -30.2073496295       13.3977528873      -11.1900530134  W2        1886            0.0000000000
      5659      1887  TIP3      OH2           -35.1101396295       12.6304028873       -1.0808730134  W2        1887            0.0000000000
      5660      1887  TIP3      H1            -35.1026096295       12.4943728873       -2.0283230134  W2        1887            0.0000000000
      5661      1887  TIP3      H2            -36.0260996295       12.5132128873       -0.8288730134  W2        1887            0.0000000000
      5662      1888  TIP3      OH2           -23.6719296295       -2.3272171127      -14.5793530134  W2        1888            0.0000000000
      5663      1888  TIP3      H1            -24.5718596295       -2.1883171127      -14.2842930134  W2        1888            0.0000000000
      5664      1888  TIP3      H2            -23.4200896295       -1.4957571127      -14.9811830134  W2        1888            0.0000000000
      5665      1889  TIP3      OH2           -35.6060796295        6.4605028873      -12.6056630134  W2        1889            0.0000000000
      5666      1889  TIP3      H1            -35.8979496295        7.2286728873      -13.0965330134  W2        1889            0.0000000000
      5667      1889  TIP3      H2            -36.2805596295        5.8011228873      -12.7685230134  W2        1889            0.0000000000
      5668      1890  TIP3      OH2           -22.4827896295       12.0390228873      -16.2029630134  W2        1890            0.0000000000
      5669      1890  TIP3      H1            -22.4094396295       12.9780428873      -16.0324330134  W2        1890            0.0000000000
      5670      1890  TIP3      H2            -21.5772796295       11.7338828873      -16.2592330134  W2        1890            0.0000000000
      5671      1891  TIP3      OH2           -39.5130696295        8.8234228873       -3.7906830134  W2        1891            0.0000000000
      5672      1891  TIP3      H1            -40.0142296295        8.7953628873       -4.6057130134  W2        1891            0.0000000000
      5673      1891  TIP3      H2            -39.5076996295        7.9177428873       -3.4809530134  W2        1891            0.0000000000
      5674      1892  TIP3      OH2           -39.7627996295       11.6038028873       -6.9066630134  W2        1892            0.0000000000
      5675      1892  TIP3      H1            -38.8167396295       11.4595028873       -6.9257130134  W2        1892            0.0000000000
      5676      1892  TIP3      H2            -39.8751696295       12.3880828873       -6.3695430134  W2        1892            0.0000000000
      5677      1893  TIP3      OH2           -21.5649496295       12.2697728873       -1.2242930134  W2        1893            0.0000000000
      5678      1893  TIP3      H1            -21.6142696295       11.3145828873       -1.2615330134  W2        1893            0.0000000000
      5679      1893  TIP3      H2            -22.3917196295       12.5373028873       -0.8229130134  W2        1893            0.0000000000
      5680      1894  TIP3      OH2           -30.5865496295       11.8436928873       -2.3481530134  W2        1894            0.0000000000
      5681      1894  TIP3      H1            -30.4990896295       12.6701528873       -1.8732430134  W2        1894            0.0000000000
      5682      1894  TIP3      H2            -31.4500396295       11.5140728873       -2.0992230134  W2        1894            0.0000000000
      5683      1895  TIP3      OH2           -30.1719696295       15.6160628873      -12.5420930134  W2        1895            0.0000000000
      5684      1895  TIP3      H1            -30.2473696295       15.4947828873      -13.4885730134  W2        1895            0.0000000000
      5685      1895  TIP3      H2            -30.1390996295       16.5653328873      -12.4236330134  W2        1895            0.0000000000
      5686      1896  TIP3      OH2           -36.5185896295       14.4047628873      -10.7611930134  W2        1896            0.0000000000
      5687      1896  TIP3      H1            -36.3665496295       14.0568028873       -9.8825430134  W2        1896            0.0000000000
      5688      1896  TIP3      H2            -37.3695496295       14.0484928873      -11.0164730134  W2        1896            0.0000000000
      5689      1897  TIP3      OH2           -27.0703696295       14.7700828873      -15.5398530134  W2        1897            0.0000000000
      5690      1897  TIP3      H1            -26.6955296295       14.0256928873      -16.0105930134  W2        1897            0.0000000000
      5691      1897  TIP3      H2            -27.0659996295       14.5001428873      -14.6215230134  W2        1897            0.0000000000
      5692      1898  TIP3      OH2           -27.4015596295       14.6957928873      -12.7906330134  W2        1898            0.0000000000
      5693      1898  TIP3      H1            -28.3365796295       14.7959828873      -12.6119330134  W2        1898            0.0000000000
      5694      1898  TIP3      H2            -27.1213696295       13.9863928873      -12.2123130134  W2        1898            0.0000000000
      5695      1899  TIP3      OH2           -24.4129696295        3.7630228873       -0.7440730134  W2        1899            0.0000000000
      5696      1899  TIP3      H1            -24.8202896295        4.2435828873       -1.4647430134  W2        1899            0.0000000000
      5697      1899  TIP3      H2            -24.3723996295        2.8576228873       -1.0519930134  W2        1899            0.0000000000
      5698      1900  TIP3      OH2           -37.2640196295       10.1469628873       -2.7474030134  W2        1900            0.0000000000
      5699      1900  TIP3      H1            -37.0478896295        9.7855228873       -1.8878230134  W2        1900            0.0000000000
      5700      1900  TIP3      H2            -38.1195496295        9.7723428873       -2.9570530134  W2        1900            0.0000000000
      5701      1901  TIP3      OH2           -34.6452196295       -1.3829871127       -6.7519830134  W2        1901            0.0000000000
      5702      1901  TIP3      H1            -35.5068496295       -1.4701671127       -7.1596930134  W2        1901            0.0000000000
      5703      1901  TIP3      H2            -34.6676496295       -0.5269771127       -6.3242230134  W2        1901            0.0000000000
      5704      1902  TIP3      OH2           -29.9824396295       -1.6609471127       -3.3772830134  W2        1902            0.0000000000
      5705      1902  TIP3      H1            -29.5621296295       -2.0762371127       -2.6242230134  W2        1902            0.0000000000
      5706      1902  TIP3      H2            -30.9154796295       -1.8396171127       -3.2600830134  W2        1902            0.0000000000
      5707      1903  TIP3      OH2           -26.6559496295        2.0945728873       -2.5238330134  W2        1903            0.0000000000
      5708      1903  TIP3      H1            -27.1699996295        1.9687928873       -1.7262330134  W2        1903            0.0000000000
      5709      1903  TIP3      H2            -26.8114796295        3.0068828873       -2.7682130134  W2        1903            0.0000000000
      5710      1904  TIP3      OH2           -25.8934596295        6.9555728873      -16.7625330134  W2        1904            0.0000000000
      5711      1904  TIP3      H1            -25.8513796295        6.7329628873      -17.6925330134  W2        1904            0.0000000000
      5712      1904  TIP3      H2            -25.0442496295        7.3542828873      -16.5725430134  W2        1904            0.0000000000
      5713      1905  TIP3      OH2           -30.3207096295        0.8313928873      -16.0922030134  W2        1905            0.0000000000
      5714      1905  TIP3      H1            -30.5742296295        0.8505528873      -15.1693930134  W2        1905            0.0000000000
      5715      1905  TIP3      H2            -30.5774996295       -0.0400671127      -16.3935830134  W2        1905            0.0000000000
      5716      1906  TIP3      OH2           -34.5542096295        3.5824628873       -5.6569630134  W2        1906            0.0000000000
      5717      1906  TIP3      H1            -35.1959996295        3.5421928873       -4.9479530134  W2        1906            0.0000000000
      5718      1906  TIP3      H2            -34.5170096295        4.5089328873       -5.8946630134  W2        1906            0.0000000000
      5719      1907  TIP3      OH2           -34.5572996295        3.8034728873      -10.7449630134  W2        1907            0.0000000000
      5720      1907  TIP3      H1            -35.4500096295        3.4630828873      -10.8035830134  W2        1907            0.0000000000
      5721      1907  TIP3      H2            -34.1066396295        3.4265628873      -11.5006430134  W2        1907            0.0000000000
      5722      1908  TIP3      OH2           -29.0217496295        4.2195028873      -11.9278830134  W2        1908            0.0000000000
      5723      1908  TIP3      H1            -29.4307196295        5.0343628873      -12.2194030134  W2        1908            0.0000000000
      5724      1908  TIP3      H2            -28.3011296295        4.0795128873      -12.5421730134  W2        1908            0.0000000000
      5725      1909  TIP3      OH2           -29.9195896295        4.3951428873       -0.4398130134  W2        1909            0.0000000000
      5726      1909  TIP3      H1            -30.4822096295        3.6903028873       -0.1190330134  W2        1909            0.0000000000
      5727      1909  TIP3      H2            -29.0932496295        4.2743328873        0.0279469866  W2        1909            0.0000000000
      5728      1910  TIP3      OH2           -28.0169796295        3.6655428873       -9.1139130134  W2        1910            0.0000000000
      5729      1910  TIP3      H1            -28.2125296295        4.2712228873       -9.8288530134  W2        1910            0.0000000000
      5730      1910  TIP3      H2            -27.8357196295        2.8320628873       -9.5482830134  W2        1910            0.0000000000
      5731      1911  TIP3      OH2           -36.8041596295        3.9028128873       -3.7897630134  W2        1911            0.0000000000
      5732      1911  TIP3      H1            -36.8422196295        4.3029728873       -2.9210530134  W2        1911            0.0000000000
      5733      1911  TIP3      H2            -37.2950496295        3.0860528873       -3.6994730134  W2        1911            0.0000000000
      5734      1912  TIP3      OH2           -33.4384196295        1.2770428873      -16.9911630134  W2        1912            0.0000000000
      5735      1912  TIP3      H1            -33.8693496295        0.8320528873      -16.2614230134  W2        1912            0.0000000000
      5736      1912  TIP3      H2            -34.1565496295        1.6486728873      -17.5034130134  W2        1912            0.0000000000
      5737      1913  TIP3      OH2           -40.1960796295        1.0189928873       -9.9392930134  W2        1913            0.0000000000
      5738      1913  TIP3      H1            -39.5653096295        0.9902028873       -9.2199030134  W2        1913            0.0000000000
      5739      1913  TIP3      H2            -39.7466496295        0.5938628873      -10.6697030134  W2        1913            0.0000000000
      5740      1914  TIP3      OH2           -38.9218696295        1.7651928873      -14.5152530134  W2        1914            0.0000000000
      5741      1914  TIP3      H1            -38.4476996295        2.3561828873      -15.1001630134  W2        1914            0.0000000000
      5742      1914  TIP3      H2            -39.6392296295        2.2954828873      -14.1682430134  W2        1914            0.0000000000
      5743      1915  TIP3      OH2           -28.7530596295        5.3036728873       -4.4426730134  W2        1915            0.0000000000
      5744      1915  TIP3      H1            -28.4295796295        4.6726428873       -5.0856230134  W2        1915            0.0000000000
      5745      1915  TIP3      H2            -29.1931296295        4.7688928873       -3.7819330134  W2        1915            0.0000000000
      5746      1916  TIP3      OH2           -31.9757696295        1.2312228873       -9.6585530134  W2        1916            0.0000000000
      5747      1916  TIP3      H1            -32.8866596295        1.2879028873       -9.3699530134  W2        1916            0.0000000000
      5748      1916  TIP3      H2            -31.4704796295        1.1707728873       -8.8478330134  W2        1916            0.0000000000
      5749      1917  TIP3      OH2           -37.1474296295        2.8598528873      -10.8317930134  W2        1917            0.0000000000
      5750      1917  TIP3      H1            -38.0366296295        2.9594028873      -11.1718330134  W2        1917            0.0000000000
      5751      1917  TIP3      H2            -36.8509396295        2.0181528873      -11.1780030134  W2        1917            0.0000000000
      5752      1918  TIP3      OH2           -33.4942496295        2.8601128873      -13.1753330134  W2        1918            0.0000000000
      5753      1918  TIP3      H1            -32.5626996295        2.9891128873      -12.9970230134  W2        1918            0.0000000000
      5754      1918  TIP3      H2            -33.7092196295        3.5295428873      -13.8248630134  W2        1918            0.0000000000
      5755      1919  TIP3      OH2           -27.5705796295        0.4658528873       -6.3943730134  W2        1919            0.0000000000
      5756      1919  TIP3      H1            -28.2474196295        0.5971628873       -5.7304030134  W2        1919            0.0000000000
      5757      1919  TIP3      H2            -28.0560896295        0.3108028873       -7.2046030134  W2        1919            0.0000000000
      5758      1920  TIP3      OH2           -34.8202296295        4.0543328873      -15.6087230134  W2        1920            0.0000000000
      5759      1920  TIP3      H1            -35.3627196295        3.6747128873      -16.2999630134  W2        1920            0.0000000000
      5760      1920  TIP3      H2            -33.9867396295        4.2488028873      -16.0373130134  W2        1920            0.0000000000
      5761      1921  TIP3      OH2           -24.2830696295       16.1373928873       -0.1176130134  W2        1921            0.0000000000
      5762      1921  TIP3      H1            -24.0831996295       16.5615828873       -0.9520830134  W2        1921            0.0000000000
      5763      1921  TIP3      H2            -23.6276996295       16.4812128873        0.4894269866  W2        1921            0.0000000000
      5764      1922  TIP3      OH2           -36.6850896295        8.6115228873       -0.5095630134  W2        1922            0.0000000000
      5765      1922  TIP3      H1            -35.9528496295        8.8661128873        0.0518869866  W2        1922            0.0000000000
      5766      1922  TIP3      H2            -37.4652196295        8.8160628873        0.0059769866  W2        1922            0.0000000000
      5767      1923  TIP3      OH2           -30.6557996295        4.0185228873       -7.7715930134  W2        1923            0.0000000000
      5768      1923  TIP3      H1            -30.0914596295        3.4721828873       -8.3186330134  W2        1923            0.0000000000
      5769      1923  TIP3      H2            -30.8034596295        3.4967128873       -6.9828330134  W2        1923            0.0000000000
      5770      1924  TIP3      OH2           -35.6538296295        0.1551328873      -11.3531130134  W2        1924            0.0000000000
      5771      1924  TIP3      H1            -35.9708796295       -0.7473371127      -11.3885730134  W2        1924            0.0000000000
      5772      1924  TIP3      H2            -34.8724196295        0.1568728873      -11.9059530134  W2        1924            0.0000000000
      5773      1925  TIP3      OH2           -32.0292096295        2.4071328873       -5.3575530134  W2        1925            0.0000000000
      5774      1925  TIP3      H1            -32.8646796295        2.8610828873       -5.2473130134  W2        1925            0.0000000000
      5775      1925  TIP3      H2            -31.5051496295        2.6829828873       -4.6055630134  W2        1925            0.0000000000
      5776      1926  TIP3      OH2           -31.4849496295        8.6199028873      -13.6729130134  W2        1926            0.0000000000
      5777      1926  TIP3      H1            -32.2298496295        8.1124328873      -13.9951230134  W2        1926            0.0000000000
      5778      1926  TIP3      H2            -31.6192296295        8.6687028873      -12.7264330134  W2        1926            0.0000000000
      5779      1927  TIP3      OH2           -24.3350596295        7.7527228873       -4.8861530134  W2        1927            0.0000000000
      5780      1927  TIP3      H1            -23.6931796295        8.2093528873       -5.4299330134  W2        1927            0.0000000000
      5781      1927  TIP3      H2            -25.1653696295        7.8659628873       -5.3487430134  W2        1927            0.0000000000
      5782      1928  TIP3      OH2           -27.5872696295        1.4338928873      -15.4736530134  W2        1928            0.0000000000
      5783      1928  TIP3      H1            -28.5258496295        1.5454528873      -15.6247730134  W2        1928            0.0000000000
      5784      1928  TIP3      H2            -27.2900596295        2.2905828873      -15.1670830134  W2        1928            0.0000000000
      5785      1929  TIP3      OH2           -29.9657396295        8.8042328873       -2.4360030134  W2        1929            0.0000000000
      5786      1929  TIP3      H1            -30.3111296295        8.4224728873       -1.6290430134  W2        1929            0.0000000000
      5787      1929  TIP3      H2            -30.1657296295        9.7375928873       -2.3647130134  W2        1929            0.0000000000
      5788      1930  TIP3      OH2           -26.8689196295        3.3011628873      -13.8129130134  W2        1930            0.0000000000
      5789      1930  TIP3      H1            -25.9770196295        3.1636628873      -13.4937930134  W2        1930            0.0000000000
      5790      1930  TIP3      H2            -26.8125596295        4.0917728873      -14.3495630134  W2        1930            0.0000000000
      5791      1931  TIP3      OH2           -36.3601196295        7.9149028873       -7.9031230134  W2        1931            0.0000000000
      5792      1931  TIP3      H1            -35.6153996295        7.9124728873       -8.5044730134  W2        1931            0.0000000000
      5793      1931  TIP3      H2            -36.2824596295        7.0912828873       -7.4216130134  W2        1931            0.0000000000
      5794      1932  TIP3      OH2           -29.3595396295       10.0783328873      -14.6474530134  W2        1932            0.0000000000
      5795      1932  TIP3      H1            -29.6546996295       10.9051228873      -14.2659730134  W2        1932            0.0000000000
      5796      1932  TIP3      H2            -30.0625396295        9.4590228873      -14.4513130134  W2        1932            0.0000000000
      5797      1933  TIP3      OH2           -39.3521496295        6.3755928873       -2.5882730134  W2        1933            0.0000000000
      5798      1933  TIP3      H1            -39.1292896295        5.9575528873       -1.7565230134  W2        1933            0.0000000000
      5799      1933  TIP3      H2            -39.9541396295        5.7630928873       -3.0109930134  W2        1933            0.0000000000
      5800      1934  TIP3      OH2           -32.3356596295        5.8925828873       -0.3753030134  W2        1934            0.0000000000
      5801      1934  TIP3      H1            -32.6315796295        5.7268828873       -1.2703930134  W2        1934            0.0000000000
      5802      1934  TIP3      H2            -31.4041396295        5.6726128873       -0.3859130134  W2        1934            0.0000000000
      5803      1935  TIP3      OH2           -27.7153796295       11.2657828873       -2.4855030134  W2        1935            0.0000000000
      5804      1935  TIP3      H1            -28.6159496295       11.4490428873       -2.7531130134  W2        1935            0.0000000000
      5805      1935  TIP3      H2            -27.6812696295       11.5247128873       -1.5646230134  W2        1935            0.0000000000
      5806      1936  TIP3      OH2           -21.9840496295        3.5105728873      -14.1182430134  W2        1936            0.0000000000
      5807      1936  TIP3      H1            -22.5384196295        3.1143728873      -14.7904930134  W2        1936            0.0000000000
      5808      1936  TIP3      H2            -21.8836896295        4.4210928873      -14.3959130134  W2        1936            0.0000000000
      5809      1937  TIP3      OH2           -22.0208496295        9.3107428873       -1.2810930134  W2        1937            0.0000000000
      5810      1937  TIP3      H1            -22.8719996295        9.5491228873       -1.6484530134  W2        1937            0.0000000000
      5811      1937  TIP3      H2            -21.4305096295        9.2940628873       -2.0343830134  W2        1937            0.0000000000
      5812      1938  TIP3      OH2           -23.6888796295       12.2966128873      -13.6530330134  W2        1938            0.0000000000
      5813      1938  TIP3      H1            -24.0617696295       11.4709928873      -13.3439730134  W2        1938            0.0000000000
      5814      1938  TIP3      H2            -23.4115296295       12.1135528873      -14.5506930134  W2        1938            0.0000000000
      5815      1939  TIP3      OH2           -26.5284896295        7.1045628873       -6.6318430134  W2        1939            0.0000000000
      5816      1939  TIP3      H1            -27.4567996295        6.8727528873       -6.6589130134  W2        1939            0.0000000000
      5817      1939  TIP3      H2            -26.0773796295        6.3275428873       -6.9619630134  W2        1939            0.0000000000
      5818      1940  TIP3      OH2           -33.9851796295       11.4327228873      -10.4989730134  W2        1940            0.0000000000
      5819      1940  TIP3      H1            -33.4579596295       12.2061628873      -10.6990930134  W2        1940            0.0000000000
      5820      1940  TIP3      H2            -34.8653296295       11.6576428873      -10.8005730134  W2        1940            0.0000000000
      5821      1941  TIP3      OH2           -38.2304096295        6.2951328873      -15.9117330134  W2        1941            0.0000000000
      5822      1941  TIP3      H1            -37.6144196295        6.9218528873      -15.5322530134  W2        1941            0.0000000000
      5823      1941  TIP3      H2            -39.0921496295        6.6111128873      -15.6400830134  W2        1941            0.0000000000
      5824      1942  TIP3      OH2           -32.5579496295        9.0957128873      -10.9225430134  W2        1942            0.0000000000
      5825      1942  TIP3      H1            -32.7989496295       10.0211528873      -10.8810130134  W2        1942            0.0000000000
      5826      1942  TIP3      H2            -33.2985896295        8.6368428873      -10.5261530134  W2        1942            0.0000000000
      5827      1943  TIP3      OH2           -32.0432896295       13.2450728873       -4.6074330134  W2        1943            0.0000000000
      5828      1943  TIP3      H1            -31.6808196295       14.0996328873       -4.8409930134  W2        1943            0.0000000000
      5829      1943  TIP3      H2            -31.5117696295       12.9532328873       -3.8668030134  W2        1943            0.0000000000
      5830      1944  TIP3      OH2           -33.8748696295       14.1174728873      -11.3773230134  W2        1944            0.0000000000
      5831      1944  TIP3      H1            -34.8248196295       14.2232128873      -11.3259930134  W2        1944            0.0000000000
      5832      1944  TIP3      H2            -33.5230596295       14.9382128873      -11.0325730134  W2        1944            0.0000000000
      5833      1945  TIP3      OH2           -28.4992096295        9.3441428873       -4.9068730134  W2        1945            0.0000000000
      5834      1945  TIP3      H1            -28.9250796295        9.1163128873       -4.0804730134  W2        1945            0.0000000000
      5835      1945  TIP3      H2            -27.9186296295        8.6053228873       -5.0893430134  W2        1945            0.0000000000
      5836      1946  TIP3      OH2           -26.2963196295       10.2731928873      -15.8329730134  W2        1946            0.0000000000
      5837      1946  TIP3      H1            -25.9430096295        9.8931728873      -15.0286230134  W2        1946            0.0000000000
      5838      1946  TIP3      H2            -27.2449696295       10.1796728873      -15.7460430134  W2        1946            0.0000000000
      5839      1947  TIP3      OH2           -25.8407896295       13.8960928873       -2.4373930134  W2        1947            0.0000000000
      5840      1947  TIP3      H1            -26.4424696295       13.3403828873       -2.9327630134  W2        1947            0.0000000000
      5841      1947  TIP3      H2            -25.5594196295       14.5630728873       -3.0636530134  W2        1947            0.0000000000
      5842      1948  TIP3      OH2           -21.7928796295       14.7524428873      -15.6319530134  W2        1948            0.0000000000
      5843      1948  TIP3      H1            -21.0490896295       15.3384928873      -15.7717930134  W2        1948            0.0000000000
      5844      1948  TIP3      H2            -22.4870696295       15.3210228873      -15.2987130134  W2        1948            0.0000000000
      5845      1949  TIP3      OH2           -37.7181996295        1.1288628873       -3.0301330134  W2        1949            0.0000000000
      5846      1949  TIP3      H1            -38.6109696295        1.4674028873       -3.0977330134  W2        1949            0.0000000000
      5847      1949  TIP3      H2            -37.8169196295        0.2734728873       -2.6120530134  W2        1949            0.0000000000
      5848      1950  TIP3      OH2           -25.4303896295        8.9453928873      -13.6061830134  W2        1950            0.0000000000
      5849      1950  TIP3      H1            -25.7076296295        8.2173228873      -13.0500730134  W2        1950            0.0000000000
      5850      1950  TIP3      H2            -24.5030896295        9.0645928873      -13.4009230134  W2        1950            0.0000000000
      5851      1951  TIP3      OH2           -38.0669996295       12.9333028873       -4.5951930134  W2        1951            0.0000000000
      5852      1951  TIP3      H1            -37.8499696295       12.0015428873       -4.6262230134  W2        1951            0.0000000000
      5853      1951  TIP3      H2            -37.8206496295       13.2078028873       -3.7119130134  W2        1951            0.0000000000
      5854      1952  TIP3      OH2           -32.2055396295       11.3848028873      -17.3859730134  W2        1952            0.0000000000
      5855      1952  TIP3      H1            -31.9665596295       10.6366128873      -17.9330830134  W2        1952            0.0000000000
      5856      1952  TIP3      H2            -32.4744096295       10.9969728873      -16.5531930134  W2        1952            0.0000000000
      5857      1953  TIP3      OH2           -33.2684796295       10.9551828873      -14.9297130134  W2        1953            0.0000000000
      5858      1953  TIP3      H1            -33.1216796295       10.4351628873      -14.1396230134  W2        1953            0.0000000000
      5859      1953  TIP3      H2            -33.2713096295       11.8619428873      -14.6231230134  W2        1953            0.0000000000
      5860      1954  TIP3      OH2           -36.8153696295        8.2075128873      -14.4191730134  W2        1954            0.0000000000
      5861      1954  TIP3      H1            -37.5014396295        8.5597628873      -13.8522030134  W2        1954            0.0000000000
      5862      1954  TIP3      H2            -36.2925796295        8.9704728873      -14.6657430134  W2        1954            0.0000000000
      5863      1955  TIP3      OH2           -28.9838596295        0.8698928873       -4.1402730134  W2        1955            0.0000000000
      5864      1955  TIP3      H1            -28.2850696295        0.9437628873       -3.4903030134  W2        1955            0.0000000000
      5865      1955  TIP3      H2            -29.3647196295        0.0053928873       -3.9859830134  W2        1955            0.0000000000
      5866      1956  TIP3      OH2           -28.1993696295        0.5220628873      -13.0430430134  W2        1956            0.0000000000
      5867      1956  TIP3      H1            -27.9795396295        0.9936028873      -13.8465030134  W2        1956            0.0000000000
      5868      1956  TIP3      H2            -27.6409696295        0.9163228873      -12.3729830134  W2        1956            0.0000000000
      5869      1957  TIP3      OH2           -30.5307596295       12.6525428873      -14.1802930134  W2        1957            0.0000000000
      5870      1957  TIP3      H1            -31.3471496295       13.1495128873      -14.1278630134  W2        1957            0.0000000000
      5871      1957  TIP3      H2            -30.0011296295       13.1278928873      -14.8204130134  W2        1957            0.0000000000
      5872      1958  TIP3      OH2           -30.9993796295        2.2499428873      -12.2082030134  W2        1958            0.0000000000
      5873      1958  TIP3      H1            -30.1871196295        2.7542628873      -12.1620330134  W2        1958            0.0000000000
      5874      1958  TIP3      H2            -31.2440796295        2.1049128873      -11.2942430134  W2        1958            0.0000000000
      5875      1959  TIP3      OH2           -30.4637396295        3.2362128873       -3.0235430134  W2        1959            0.0000000000
      5876      1959  TIP3      H1            -30.3447096295        3.8097528873       -2.2665030134  W2        1959            0.0000000000
      5877      1959  TIP3      H2            -29.8082796295        2.5481528873       -2.9087630134  W2        1959            0.0000000000
      5878      1960  TIP3      OH2           -30.1157096295       -0.6687571127      -11.2700930134  W2        1960            0.0000000000
      5879      1960  TIP3      H1            -30.4623596295       -0.0516971127      -10.6256630134  W2        1960            0.0000000000
      5880      1960  TIP3      H2            -29.4570196295       -0.1681871127      -11.7515430134  W2        1960            0.0000000000
      5881      1961  TIP3      OH2           -33.1924496295       13.6962628873      -14.1986030134  W2        1961            0.0000000000
      5882      1961  TIP3      H1            -33.0315796295       14.4960128873      -14.6993430134  W2        1961            0.0000000000
      5883      1961  TIP3      H2            -33.3896696295       14.0028628873      -13.3135430134  W2        1961            0.0000000000
      5884      1962  TIP3      OH2           -34.4580096295        0.3941828873      -14.5828430134  W2        1962            0.0000000000
      5885      1962  TIP3      H1            -34.5415296295        1.2824928873      -14.2362030134  W2        1962            0.0000000000
      5886      1962  TIP3      H2            -33.5679796295        0.1288528873      -14.3511630134  W2        1962            0.0000000000
      5887      1963  TIP3      OH2           -24.2591596295        1.1432428873       -2.1885730134  W2        1963            0.0000000000
      5888      1963  TIP3      H1            -25.1755796295        1.4054128873       -2.2762030134  W2        1963            0.0000000000
      5889      1963  TIP3      H2            -23.9236596295        1.1401428873       -3.0850430134  W2        1963            0.0000000000
      5890      1964  TIP3      OH2           -25.6570596295        4.8933428873       -8.0928430134  W2        1964            0.0000000000
      5891      1964  TIP3      H1            -26.4546196295        4.4783628873       -8.4213430134  W2        1964            0.0000000000
      5892      1964  TIP3      H2            -25.2119496295        4.2027128873       -7.6017930134  W2        1964            0.0000000000
      5893      1965  TIP3      OH2           -36.1994796295       10.8214028873      -15.5223930134  W2        1965            0.0000000000
      5894      1965  TIP3      H1            -35.6073296295       11.5208828873      -15.2461530134  W2        1965            0.0000000000
      5895      1965  TIP3      H2            -35.7401796295       10.3883528873      -16.2419330134  W2        1965            0.0000000000
      5896      1966  TIP3      OH2           -37.8835596295        3.4857028873      -16.4064530134  W2        1966            0.0000000000
      5897      1966  TIP3      H1            -37.9282996295        4.4250128873      -16.2277530134  W2        1966            0.0000000000
      5898      1966  TIP3      H2            -38.7712396295        3.2501928873      -16.6762430134  W2        1966            0.0000000000
      5899      1967  TIP3      OH2           -24.5705996295       14.1495928873       -6.4704930134  W2        1967            0.0000000000
      5900      1967  TIP3      H1            -24.7261696295       14.8280328873       -7.1275630134  W2        1967            0.0000000000
      5901      1967  TIP3      H2            -23.6379596295       14.2215228873       -6.2674330134  W2        1967            0.0000000000
      5902      1968  TIP3      OH2           -37.0753596295       -1.7326371127       -7.7333530134  W2        1968            0.0000000000
      5903      1968  TIP3      H1            -37.3043796295       -1.6733871127       -8.6608530134  W2        1968            0.0000000000
      5904      1968  TIP3      H2            -37.5180196295       -2.5240871127       -7.4269430134  W2        1968            0.0000000000
      5905      1969  TIP3      OH2           -38.1450296295       12.2080728873      -11.5727730134  W2        1969            0.0000000000
      5906      1969  TIP3      H1            -38.9771696295       12.6803428873      -11.5456330134  W2        1969            0.0000000000
      5907      1969  TIP3      H2            -37.5991996295       12.7178328873      -12.1714630134  W2        1969            0.0000000000
      5908      1970  TIP3      OH2           -38.8566596295       14.8204428873       -0.2429730134  W2        1970            0.0000000000
      5909      1970  TIP3      H1            -38.3164396295       14.6038428873        0.5169469866  W2        1970            0.0000000000
      5910      1970  TIP3      H2            -39.3378596295       14.0150428873       -0.4327230134  W2        1970            0.0000000000
      5911      1971  TIP3      OH2           -34.2593196295       13.7398828873        1.3774469866  W2        1971            0.0000000000
      5912      1971  TIP3      H1            -33.4915996295       13.2809628873        1.7183669866  W2        1971            0.0000000000
      5913      1971  TIP3      H2            -34.2806996295       13.5138628873        0.4475669866  W2        1971            0.0000000000
      5914      1972  TIP3      OH2           -30.1673596295       13.2479428873      -17.2473730134  W2        1972            0.0000000000
      5915      1972  TIP3      H1            -30.8112596295       12.6168028873      -16.9260030134  W2        1972            0.0000000000
      5916      1972  TIP3      H2            -29.4055296295       12.7167428873      -17.4790230134  W2        1972            0.0000000000
      5917      1973  TIP3      OH2           -27.6824496295       12.1199928873        0.1065969866  W2        1973            0.0000000000
      5918      1973  TIP3      H1            -28.0334996295       11.2632928873        0.3496369866  W2        1973            0.0000000000
      5919      1973  TIP3      H2            -26.9561296295       12.2626628873        0.7134969866  W2        1973            0.0000000000
      5920      1974  TIP3      OH2           -25.5630696295       13.0649328873      -17.0135730134  W2        1974            0.0000000000
      5921      1974  TIP3      H1            -25.2800296295       12.2704528873      -16.5608830134  W2        1974            0.0000000000
      5922      1974  TIP3      H2            -24.8232796295       13.2980328873      -17.5744630134  W2        1974            0.0000000000
      5923      1975  TIP3      OH2           -38.9497096295        8.6308528873        0.7114569866  W2        1975            0.0000000000
      5924      1975  TIP3      H1            -38.8056596295        7.7289228873        0.4251269866  W2        1975            0.0000000000
      5925      1975  TIP3      H2            -39.7219696295        8.9170628873        0.2236869866  W2        1975            0.0000000000
      5926      1976  TIP3      OH2           -34.6083396295        8.9744228873      -17.1560830134  W2        1976            0.0000000000
      5927      1976  TIP3      H1            -34.5439296295        8.1803828873      -16.6254430134  W2        1976            0.0000000000
      5928      1976  TIP3      H2            -33.9554196295        8.8557028873      -17.8458830134  W2        1976            0.0000000000
      5929      1977  TIP3      OH2           -32.2940996295        8.6006628873        0.1440969866  W2        1977            0.0000000000
      5930      1977  TIP3      H1            -32.6227196295        8.8714728873       -0.7131630134  W2        1977            0.0000000000
      5931      1977  TIP3      H2            -32.1422796295        7.6596428873        0.0565969866  W2        1977            0.0000000000
      5932      1978  TIP3      OH2           -29.2559996295       10.0215928873      -17.4202830134  W2        1978            0.0000000000
      5933      1978  TIP3      H1            -29.5245896295       10.2018028873      -16.5193930134  W2        1978            0.0000000000
      5934      1978  TIP3      H2            -29.4624396295        9.0962128873      -17.5517030134  W2        1978            0.0000000000
      5935      1979  TIP3      OH2           -26.5595796295        8.5163928873       -2.4726730134  W2        1979            0.0000000000
      5936      1979  TIP3      H1            -25.8140996295        9.1047628873       -2.5922730134  W2        1979            0.0000000000
      5937      1979  TIP3      H2            -27.3168996295        9.0983628873       -2.4093630134  W2        1979            0.0000000000
      5938      1980  TIP3      OH2           -38.1170596295        5.8311828873        0.1313869866  W2        1980            0.0000000000
      5939      1980  TIP3      H1            -37.7089396295        4.9738428873        0.0104469866  W2        1980            0.0000000000
      5940      1980  TIP3      H2            -38.3772996295        5.8453128873        1.0524169866  W2        1980            0.0000000000
      5941      1981  TIP3      OH2           -33.4589596295        6.9470428873      -14.8502830134  W2        1981            0.0000000000
      5942      1981  TIP3      H1            -33.9187596295        6.4628728873      -14.1644330134  W2        1981            0.0000000000
      5943      1981  TIP3      H2            -33.2040896295        6.2785828873      -15.4862330134  W2        1981            0.0000000000
      5944      1982  TIP3      OH2           -34.1700296295        4.8397528873       -2.4943230134  W2        1982            0.0000000000
      5945      1982  TIP3      H1            -34.7884196295        5.5144128873       -2.2138530134  W2        1982            0.0000000000
      5946      1982  TIP3      H2            -33.8259096295        5.1611428873       -3.3277030134  W2        1982            0.0000000000
      5947      1983  TIP3      OH2           -32.3879196295        5.1902228873      -16.5879630134  W2        1983            0.0000000000
      5948      1983  TIP3      H1            -32.5684196295        5.0353428873      -17.5151330134  W2        1983            0.0000000000
      5949      1983  TIP3      H2            -31.4378696295        5.2980928873      -16.5431730134  W2        1983            0.0000000000
      5950      1984  TIP3      OH2           -29.1502096295        7.3112828873        0.7831569866  W2        1984            0.0000000000
      5951      1984  TIP3      H1            -28.1970896295        7.3951928873        0.7557569866  W2        1984            0.0000000000
      5952      1984  TIP3      H2            -29.3107496295        6.5994628873        1.4026469866  W2        1984            0.0000000000
      5953      1985  TIP3      OH2           -22.9980896295        7.5446428873      -17.1421530134  W2        1985            0.0000000000
      5954      1985  TIP3      H1            -23.2716096295        7.1201928873      -17.9553230134  W2        1985            0.0000000000
      5955      1985  TIP3      H2            -22.9586796295        8.4760928873      -17.3591130134  W2        1985            0.0000000000
      5956      1986  TIP3      OH2           -33.8306596295        2.1948328873       -1.4120130134  W2        1986            0.0000000000
      5957      1986  TIP3      H1            -33.6805696295        1.4659628873       -2.0140430134  W2        1986            0.0000000000
      5958      1986  TIP3      H2            -33.8284196295        2.9720028873       -1.9707930134  W2        1986            0.0000000000
      5959      1987  TIP3      OH2           -33.4180896295        0.5644128873       -3.9192730134  W2        1987            0.0000000000
      5960      1987  TIP3      H1            -32.8823396295        1.0160828873       -4.5713430134  W2        1987            0.0000000000
      5961      1987  TIP3      H2            -34.2701296295        0.4563928873       -4.3418630134  W2        1987            0.0000000000
      5962      1988  TIP3      OH2           -31.8362496295        6.0040328873       -3.6797530134  W2        1988            0.0000000000
      5963      1988  TIP3      H1            -31.0857696295        5.8477828873       -4.2529730134  W2        1988            0.0000000000
      5964      1988  TIP3      H2            -32.1754196295        6.8556928873       -3.9552030134  W2        1988            0.0000000000
      5965      1989  TIP3      OH2           -27.4206296295        3.8192128873        1.3487769866  W2        1989            0.0000000000
      5966      1989  TIP3      H1            -27.2284996295        2.8881528873        1.2372269866  W2        1989            0.0000000000
      5967      1989  TIP3      H2            -26.5629996295        4.2441628873        1.3383169866  W2        1989            0.0000000000
      5968      1990  TIP3      OH2           -26.1039096295        6.6077328873       -0.5739530134  W2        1990            0.0000000000
      5969      1990  TIP3      H1            -26.3854096295        7.3171928873       -1.1515730134  W2        1990            0.0000000000
      5970      1990  TIP3      H2            -25.1614796295        6.5350328873       -0.7248330134  W2        1990            0.0000000000
      5971      1991  TIP3      OH2           -35.3520296295        3.3931828873        0.4995469866  W2        1991            0.0000000000
      5972      1991  TIP3      H1            -36.1191296295        2.8606628873        0.2893069866  W2        1991            0.0000000000
      5973      1991  TIP3      H2            -34.6731296295        3.0832228873       -0.0998230134  W2        1991            0.0000000000
      5974      1992  TIP3      OH2           -32.6125396295       -1.9790171127       -3.4879130134  W2        1992            0.0000000000
      5975      1992  TIP3      H1            -32.7105796295       -1.0326971127       -3.5932930134  W2        1992            0.0000000000
      5976      1992  TIP3      H2            -33.3549196295       -2.3516371127       -3.9635630134  W2        1992            0.0000000000
      5977      1993  TIP3      OH2           -31.3484896295        2.3425228873        0.0759269866  W2        1993            0.0000000000
      5978      1993  TIP3      H1            -31.5839496295        2.1231928873        0.9774169866  W2        1993            0.0000000000
      5979      1993  TIP3      H2            -32.1317996295        2.1356428873       -0.4338230134  W2        1993            0.0000000000
      5980      1994  TIP3      OH2           -28.6328296295        1.4698728873       -0.8487230134  W2        1994            0.0000000000
      5981      1994  TIP3      H1            -29.5802896295        1.5018428873       -0.7163930134  W2        1994            0.0000000000
      5982      1994  TIP3      H2            -28.3201596295        0.8445828873       -0.1949030134  W2        1994            0.0000000000
      5983      1995  TIP3      OH2           -26.9986796295        0.1039828873        1.1564669866  W2        1995            0.0000000000
      5984      1995  TIP3      H1            -27.0954996295       -0.8482871127        1.1506569866  W2        1995            0.0000000000
      5985      1995  TIP3      H2            -27.3203696295        0.3726628873        2.0170169866  W2        1995            0.0000000000
      5986      1996  TIP3      OH2           -37.1717496295        1.3135628873        0.2040169866  W2        1996            0.0000000000
      5987      1996  TIP3      H1            -36.9600096295        0.6071728873       -0.4062330134  W2        1996            0.0000000000
      5988      1996  TIP3      H2            -37.2829996295        0.8761628873        1.0481369866  W2        1996            0.0000000000
      5989      1997  TIP3      OH2           -32.3907296295       -2.6852771127       -0.8166330134  W2        1997            0.0000000000
      5990      1997  TIP3      H1            -31.6788896295       -3.3250571127       -0.8307230134  W2        1997            0.0000000000
      5991      1997  TIP3      H2            -32.4916896295       -2.4184471127       -1.7303230134  W2        1997            0.0000000000
      5992      1998  TIP3      OH2           -32.0369796295       -1.0024371127        1.2369969866  W2        1998            0.0000000000
      5993      1998  TIP3      H1            -32.1687596295       -1.4780571127        0.4168469866  W2        1998            0.0000000000
      5994      1998  TIP3      H2            -32.6362396295       -0.2580771127        1.1817069866  W2        1998            0.0000000000
      5995      1999  TIP3      OH2           -32.4907496295       15.8805928873      -15.5866030134  W2        1999            0.0000000000
      5996      1999  TIP3      H1            -31.5576796295       16.0384628873      -15.4427630134  W2        1999            0.0000000000
      5997      1999  TIP3      H2            -32.7548696295       16.5558928873      -16.2114530134  W2        1999            0.0000000000
      5998      2000  TIP3      OH2           -38.9222596295       10.5169728873      -16.1037930134  W2        2000            0.0000000000
      5999      2000  TIP3      H1            -38.0083396295       10.5958628873      -15.8304030134  W2        2000            0.0000000000
      6000      2000  TIP3      H2            -38.9149496295        9.8299328873      -16.7702330134  W2        2000            0.0000000000
      6001      2001  TIP3      OH2           -40.2731996295       15.9098228873      -11.0264030134  W2        2001            0.0000000000
      6002      2001  TIP3      H1            -40.9204896295       15.4479928873      -11.5592830134  W2        2001            0.0000000000
      6003      2001  TIP3      H2            -39.9187396295       15.2381528873      -10.4437830134  W2        2001            0.0000000000
      6004      2002  TIP3      OH2           -39.4032796295       13.9905228873       -9.2217830134  W2        2002            0.0000000000
      6005      2002  TIP3      H1            -39.7375996295       13.1102528873       -9.0497630134  W2        2002            0.0000000000
      6006      2002  TIP3      H2            -39.1810396295       14.3360228873       -8.3572230134  W2        2002            0.0000000000
      6007      2003  TIP3      OH2           -21.8547996295       14.8001628873       -6.2413030134  W2        2003            0.0000000000
      6008      2003  TIP3      H1            -21.8761296295       14.9850028873       -5.3023630134  W2        2003            0.0000000000
      6009      2003  TIP3      H2            -21.1641796295       15.3685628873       -6.5821630134  W2        2003            0.0000000000
      6010      2004  TIP3      OH2           -22.2915096295       14.3672728873       -3.3193930134  W2        2004            0.0000000000
      6011      2004  TIP3      H1            -22.7786396295       13.6316828873       -3.6906530134  W2        2004            0.0000000000
      6012      2004  TIP3      H2            -21.7422396295       13.9736628873       -2.6414530134  W2        2004            0.0000000000
      6013      2005  TIP3      OH2           -23.8407796295       10.1570828873        1.3186369866  W2        2005            0.0000000000
      6014      2005  TIP3      H1            -24.7066696295       10.0520528873        1.7128669866  W2        2005            0.0000000000
      6015      2005  TIP3      H2            -23.4641896295       10.9154128873        1.7651069866  W2        2005            0.0000000000
      6016      2006  TIP3      OH2           -22.5398096295        8.4134528873      -13.1671130134  W2        2006            0.0000000000
      6017      2006  TIP3      H1            -21.6896696295        8.8345428873      -13.0399530134  W2        2006            0.0000000000
      6018      2006  TIP3      H2            -22.5342996295        7.6734628873      -12.5599730134  W2        2006            0.0000000000
      6019      2007  TIP3      OH2           -22.1452496295        6.4671928873      -11.3435430134  W2        2007            0.0000000000
      6020      2007  TIP3      H1            -22.8717896295        5.9874528873      -10.9457830134  W2        2007            0.0000000000
      6021      2007  TIP3      H2            -21.5639196295        6.6726628873      -10.6113830134  W2        2007            0.0000000000
      6022      2008  TIP3      OH2           -22.3861296295        9.2519428873       -6.3957830134  W2        2008            0.0000000000
      6023      2008  TIP3      H1            -21.5527096295        8.8739428873       -6.6764230134  W2        2008            0.0000000000
      6024      2008  TIP3      H2            -22.2740996295       10.1950628873       -6.5148730134  W2        2008            0.0000000000
      6025      2009  TIP3      OH2           -23.8998996295       12.1296928873       -4.0889430134  W2        2009            0.0000000000
      6026      2009  TIP3      H1            -24.5473696295       12.4548428873       -3.4634230134  W2        2009            0.0000000000
      6027      2009  TIP3      H2            -24.4174996295       11.6894628873       -4.7631130134  W2        2009            0.0000000000
      6028      2010  TIP3      OH2           -21.8769396295        6.3680428873      -14.9524130134  W2        2010            0.0000000000
      6029      2010  TIP3      H1            -22.3988296295        6.7244528873      -15.6713230134  W2        2010            0.0000000000
      6030      2010  TIP3      H2            -21.9100196295        7.0428228873      -14.2743230134  W2        2010            0.0000000000
      6031      2011  TIP3      OH2           -23.5280396295        3.6076028873      -16.4017030134  W2        2011            0.0000000000
      6032      2011  TIP3      H1            -23.4315996295        4.2743028873      -17.0817330134  W2        2011            0.0000000000
      6033      2011  TIP3      H2            -23.6680796295        2.7922328873      -16.8831530134  W2        2011            0.0000000000
      6034      2012  TIP3      OH2           -24.3585696295        4.9878428873      -10.7806730134  W2        2012            0.0000000000
      6035      2012  TIP3      H1            -24.5086896295        4.0427028873      -10.8008930134  W2        2012            0.0000000000
      6036      2012  TIP3      H2            -24.7121196295        5.2689828873       -9.9367630134  W2        2012            0.0000000000
      6037      2013  TIP3      OH2           -39.3233296295        7.0660628873       -6.7702930134  W2        2013            0.0000000000
      6038      2013  TIP3      H1            -39.1390396295        6.9842328873       -7.7060030134  W2        2013            0.0000000000
      6039      2013  TIP3      H2            -38.4740396295        6.9417628873       -6.3466530134  W2        2013            0.0000000000
      6040      2014  TIP3      OH2           -23.5022796295        6.9581728873       -1.1418430134  W2        2014            0.0000000000
      6041      2014  TIP3      H1            -22.9195496295        6.2234028873       -0.9501230134  W2        2014            0.0000000000
      6042      2014  TIP3      H2            -22.9383496295        7.7302028873       -1.0952630134  W2        2014            0.0000000000
      6043      2015  TIP3      OH2           -22.0055696295        4.8607528873       -0.4573030134  W2        2015            0.0000000000
      6044      2015  TIP3      H1            -22.8688996295        4.4819628873       -0.6228330134  W2        2015            0.0000000000
      6045      2015  TIP3      H2            -21.4011996295        4.1222328873       -0.5317230134  W2        2015            0.0000000000
      6046      2016  TIP3      OH2           -24.2806596295        1.0155828873      -17.2841530134  W2        2016            0.0000000000
      6047      2016  TIP3      H1            -23.6700796295        0.6442628873      -16.6473330134  W2        2016            0.0000000000
      6048      2016  TIP3      H2            -25.1175096295        0.5942728873      -17.0881530134  W2        2016            0.0000000000
      6049      2017  TIP3      OH2           -24.6480896295        2.5704228873      -12.3181630134  W2        2017            0.0000000000
      6050      2017  TIP3      H1            -24.3683796295        1.6634628873      -12.1939930134  W2        2017            0.0000000000
      6051      2017  TIP3      H2            -23.8889196295        3.0045728873      -12.7072430134  W2        2017            0.0000000000
      6052      2018  TIP3      OH2           -24.0362596295        3.1521628873       -6.8822730134  W2        2018            0.0000000000
      6053      2018  TIP3      H1            -23.1034596295        3.3641528873       -6.9166730134  W2        2018            0.0000000000
      6054      2018  TIP3      H2            -24.2715096295        3.2533728873       -5.9599730134  W2        2018            0.0000000000
      6055      2019  TIP3      OH2           -24.0070696295        3.8886928873       -4.1063330134  W2        2019            0.0000000000
      6056      2019  TIP3      H1            -24.8499396295        4.1567328873       -3.7403530134  W2        2019            0.0000000000
      6057      2019  TIP3      H2            -23.5646396295        4.7108828873       -4.3172230134  W2        2019            0.0000000000
      6058      2020  TIP3      OH2           -39.7258496295        2.3365628873       -0.6294130134  W2        2020            0.0000000000
      6059      2020  TIP3      H1            -38.8063596295        2.2143928873       -0.3931030134  W2        2020            0.0000000000
      6060      2020  TIP3      H2            -40.1753996295        1.5865328873       -0.2400630134  W2        2020            0.0000000000
      6061      2021  TIP3      OH2           -21.7239096295       -2.1312871127        1.2471669866  W2        2021            0.0000000000
      6062      2021  TIP3      H1            -21.3742096295       -2.7849371127        0.6416369866  W2        2021            0.0000000000
      6063      2021  TIP3      H2            -21.5769596295       -1.2938771127        0.8074269866  W2        2021            0.0000000000
      6064      2022  TIP3      OH2           -24.0346096295       -0.1666471127      -12.2699630134  W2        2022            0.0000000000
      6065      2022  TIP3      H1            -23.8521096295       -0.6154971127      -11.4444630134  W2        2022            0.0000000000
      6066      2022  TIP3      H2            -24.6343196295       -0.7512071127      -12.7335030134  W2        2022            0.0000000000
      6067      2023  TIP3      OH2           -38.5045996295        0.6487228873       -7.7381230134  W2        2023            0.0000000000
      6068      2023  TIP3      H1            -38.0594396295       -0.1430271127       -7.4361530134  W2        2023            0.0000000000
      6069      2023  TIP3      H2            -38.0382996295        1.3652428873       -7.3075630134  W2        2023            0.0000000000
      6070      2024  TIP3      OH2           -40.2005696295        3.6480228873       -6.6691030134  W2        2024            0.0000000000
      6071      2024  TIP3      H1            -39.7085896295        3.4270728873       -7.4599030134  W2        2024            0.0000000000
      6072      2024  TIP3      H2            -39.8384796295        4.4883628873       -6.3881530134  W2        2024            0.0000000000
      6073      2025  TIP3      OH2           -22.2041896295       -0.0218271127       -0.4037030134  W2        2025            0.0000000000
      6074      2025  TIP3      H1            -23.1216196295        0.2488828873       -0.4393530134  W2        2025            0.0000000000
      6075      2025  TIP3      H2            -22.0812496295       -0.5569871127       -1.1877330134  W2        2025            0.0000000000
      6076      2026  TIP3      OH2           -22.1679896295       -0.0988371127      -15.7419330134  W2        2026            0.0000000000
      6077      2026  TIP3      H1            -21.7557296295       -0.8202671127      -16.2171330134  W2        2026            0.0000000000
      6078      2026  TIP3      H2            -21.4863396295        0.5706228873      -15.6835030134  W2        2026            0.0000000000
      6079      2027  TIP3      OH2           -39.8869196295       -0.0940671127      -12.6148630134  W2        2027            0.0000000000
      6080      2027  TIP3      H1            -40.8120796295        0.1145928873      -12.7443130134  W2        2027            0.0000000000
      6081      2027  TIP3      H2            -39.4329296295        0.3900128873      -13.3046330134  W2        2027            0.0000000000
      6082      2028  TIP3      OH2           -25.1161996295       14.8901028873      -10.6691230134  W2        2028            0.0000000000
      6083      2028  TIP3      H1            -24.4639096295       14.5423128873      -11.2772130134  W2        2028            0.0000000000
      6084      2028  TIP3      H2            -24.6058196295       15.3784228873      -10.0231530134  W2        2028            0.0000000000
      6085      2029  TIP3      OH2           -39.9233796295       -1.3561671127       -4.2706130134  W2        2029            0.0000000000
      6086      2029  TIP3      H1            -40.5883296295       -1.6021371127       -3.6275230134  W2        2029            0.0000000000
      6087      2029  TIP3      H2            -40.3662496295       -0.7341271127       -4.8478130134  W2        2029            0.0000000000
      6088      2030  TIP3      OH2           -37.7314496295       11.8192428873       -0.1260330134  W2        2030            0.0000000000
      6089      2030  TIP3      H1            -38.5521996295       11.9938928873       -0.5865630134  W2        2030            0.0000000000
      6090      2030  TIP3      H2            -37.9836696295       11.7457128873        0.7944069866  W2        2030            0.0000000000
      6091      2031  TIP3      OH2           -34.7771596295       12.7933628873       -3.8676330134  W2        2031            0.0000000000
      6092      2031  TIP3      H1            -35.2020496295       13.6032128873       -4.1501730134  W2        2031            0.0000000000
      6093      2031  TIP3      H2            -33.8728796295       12.8787728873       -4.1696530134  W2        2031            0.0000000000
      6094      2032  TIP3      OH2           -30.4660196295       14.1923628873       -0.9082630134  W2        2032            0.0000000000
      6095      2032  TIP3      H1            -30.2812696295       13.8589728873       -0.0302330134  W2        2032            0.0000000000
      6096      2032  TIP3      H2            -29.6195696295       14.5022228873       -1.2303430134  W2        2032            0.0000000000
      6097      2033  TIP3      OH2           -28.1209796295       15.4782528873       -1.6641230134  W2        2033            0.0000000000
      6098      2033  TIP3      H1            -27.4440896295       14.8454828873       -1.9042030134  W2        2033            0.0000000000
      6099      2033  TIP3      H2            -27.7990996295       15.8793028873       -0.8567930134  W2        2033            0.0000000000
      6100      2034  TIP3      OH2           -23.2035996295       -1.9321971127       -2.5846230134  W2        2034            0.0000000000
      6101      2034  TIP3      H1            -24.0162496295       -1.6071671127       -2.9721530134  W2        2034            0.0000000000
      6102      2034  TIP3      H2            -22.9707496295       -2.6923471127       -3.1177130134  W2        2034            0.0000000000
      6103      2035  TIP3      OH2           -37.3754896295       16.0497528873       -3.8201030134  W2        2035            0.0000000000
      6104      2035  TIP3      H1            -38.0958496295       16.4898528873       -4.2713330134  W2        2035            0.0000000000
      6105      2035  TIP3      H2            -37.7410896295       15.7992228873       -2.9717030134  W2        2035            0.0000000000
      6106      2036  TIP3      OH2           -34.9082296295       15.6501428873       -4.7903830134  W2        2036            0.0000000000
      6107      2036  TIP3      H1            -35.7730096295       15.7219928873       -4.3863730134  W2        2036            0.0000000000
      6108      2036  TIP3      H2            -34.9633296295       16.1968728873       -5.5741330134  W2        2036            0.0000000000
      6109      2037  TIP3      OH2           -30.1976696295       15.5380328873       -5.6147830134  W2        2037            0.0000000000
      6110      2037  TIP3      H1            -30.6542696295       16.0670028873       -6.2689430134  W2        2037            0.0000000000
      6111      2037  TIP3      H2            -30.0348696295       16.1411728873       -4.8895530134  W2        2037            0.0000000000
      6112      2038  TIP3      OH2           -27.8700396295       14.4159928873       -4.6697530134  W2        2038            0.0000000000
      6113      2038  TIP3      H1            -28.7746696295       14.5810128873       -4.9355430134  W2        2038            0.0000000000
      6114      2038  TIP3      H2            -27.4411796295       15.2692128873       -4.7354130134  W2        2038            0.0000000000
      6115      2039  TIP3      OH2           -25.2658496295       15.9859028873       -4.3749730134  W2        2039            0.0000000000
      6116      2039  TIP3      H1            -25.4476496295       16.9017928873       -4.5854830134  W2        2039            0.0000000000
      6117      2039  TIP3      H2            -25.0890696295       15.5756128873       -5.2215130134  W2        2039            0.0000000000
      6118      2040  TIP3      OH2           -37.9606796295       14.6730028873       -6.9099230134  W2        2040            0.0000000000
      6119      2040  TIP3      H1            -37.9790796295       14.2475128873       -6.0526930134  W2        2040            0.0000000000
      6120      2040  TIP3      H2            -37.1558896295       14.3545028873       -7.3187030134  W2        2040            0.0000000000
      6121      2041  TIP3      OH2           -35.8193696295       13.3828728873       -8.2549330134  W2        2041            0.0000000000
      6122      2041  TIP3      H1            -36.0382996295       12.4666128873       -8.0853330134  W2        2041            0.0000000000
      6123      2041  TIP3      H2            -34.9951496295       13.5229128873       -7.7887930134  W2        2041            0.0000000000
      6124      2042  TIP3      OH2           -33.2821196295       13.8528028873       -7.4061330134  W2        2042            0.0000000000
      6125      2042  TIP3      H1            -33.0695496295       12.9647028873       -7.6930430134  W2        2042            0.0000000000
      6126      2042  TIP3      H2            -33.2176096295       13.8185728873       -6.4517330134  W2        2042            0.0000000000
      6127      2043  TIP3      OH2           -29.7737496295       -0.4831371127       -8.2618030134  W2        2043            0.0000000000
      6128      2043  TIP3      H1            -30.4480696295       -1.1125771127       -8.0062230134  W2        2043            0.0000000000
      6129      2043  TIP3      H2            -29.2098296295       -0.9672471127       -8.8650130134  W2        2043            0.0000000000
      6130      2044  TIP3      OH2           -24.6310296295       -2.3757371127       -8.1490930134  W2        2044            0.0000000000
      6131      2044  TIP3      H1            -24.0272696295       -1.8281971127       -8.6509930134  W2        2044            0.0000000000
      6132      2044  TIP3      H2            -25.5008296295       -2.0566971127       -8.3896830134  W2        2044            0.0000000000
      6133      2045  TIP3      OH2           -22.9039896295       -1.2368671127       -9.8160030134  W2        2045            0.0000000000
      6134      2045  TIP3      H1            -22.2922396295       -1.7512971127      -10.3426430134  W2        2045            0.0000000000
      6135      2045  TIP3      H2            -22.5216496295       -0.3596571127       -9.7925630134  W2        2045            0.0000000000
      6136      2046  TIP3      OH2           -37.4469996295       -1.8491071127      -10.4398130134  W2        2046            0.0000000000
      6137      2046  TIP3      H1            -38.2240196295       -2.0836171127      -10.9472230134  W2        2046            0.0000000000
      6138      2046  TIP3      H2            -36.9166396295       -2.6458971127      -10.4310130134  W2        2046            0.0000000000
      6139      2047  TIP3      OH2           -38.6106596295       -2.0512971127      -14.6362030134  W2        2047            0.0000000000
      6140      2047  TIP3      H1            -38.1715896295       -1.4402471127      -15.2278530134  W2        2047            0.0000000000
      6141      2047  TIP3      H2            -39.2444196295       -1.5128871127      -14.1622030134  W2        2047            0.0000000000
      6142      2048  TIP3      OH2           -32.8677396295       -1.9223971127      -10.6265030134  W2        2048            0.0000000000
      6143      2048  TIP3      H1            -31.9933996295       -1.5339671127      -10.6560730134  W2        2048            0.0000000000
      6144      2048  TIP3      H2            -33.0036596295       -2.1376171127       -9.7037830134  W2        2048            0.0000000000
      6145      2049  TIP3      OH2           -27.3108996295       -1.8924171127       -8.9773330134  W2        2049            0.0000000000
      6146      2049  TIP3      H1            -27.2347396295       -1.7972571127       -9.9267330134  W2        2049            0.0000000000
      6147      2049  TIP3      H2            -27.5859796295       -2.8001271127       -8.8484230134  W2        2049            0.0000000000
      6148      2050  TIP3      OH2           -25.9576396295       -1.8666371127      -13.2848330134  W2        2050            0.0000000000
      6149      2050  TIP3      H1            -26.6605296295       -1.2517171127      -13.4946930134  W2        2050            0.0000000000
      6150      2050  TIP3      H2            -26.4024996295       -2.7039671127      -13.1537430134  W2        2050            0.0000000000
      6151      2051  TIP3      OH2           -38.7097096295       13.8969228873      -13.7386930134  W2        2051            0.0000000000
      6152      2051  TIP3      H1            -39.3947196295       13.8588128873      -14.4061830134  W2        2051            0.0000000000
      6153      2051  TIP3      H2            -38.7059896295       14.8096828873      -13.4504830134  W2        2051            0.0000000000
      6154      2052  TIP3      OH2           -36.7497496295       -0.1351471127      -16.1937930134  W2        2052            0.0000000000
      6155      2052  TIP3      H1            -36.2584096295       -0.7649071127      -16.7212430134  W2        2052            0.0000000000
      6156      2052  TIP3      H2            -36.1261196295        0.1607928873      -15.5306730134  W2        2052            0.0000000000
      6157      2053  TIP3      OH2           -31.7237396295        0.1580028873      -13.7367430134  W2        2053            0.0000000000
      6158      2053  TIP3      H1            -31.5456096295       -0.4886771127      -13.0538830134  W2        2053            0.0000000000
      6159      2053  TIP3      H2            -31.7771196295        0.9917728873      -13.2696330134  W2        2053            0.0000000000
      6160      2054  TIP3      OH2           -29.8453596295       15.1064128873      -15.3410730134  W2        2054            0.0000000000
      6161      2054  TIP3      H1            -28.9793396295       15.4731528873      -15.5192530134  W2        2054            0.0000000000
      6162      2054  TIP3      H2            -30.0920796295       14.6672128873      -16.1549930134  W2        2054            0.0000000000
      6163      2055  TIP3      OH2           -23.1363996295       14.6694428873      -12.6619630134  W2        2055            0.0000000000
      6164      2055  TIP3      H1            -23.3306896295       13.9216528873      -13.2270030134  W2        2055            0.0000000000
      6165      2055  TIP3      H2            -23.1753896295       15.4274528873      -13.2451730134  W2        2055            0.0000000000
      6166      2056  TIP3      OH2           -37.4891996295       -1.3349171127       -0.9221930134  W2        2056            0.0000000000
      6167      2056  TIP3      H1            -37.8553796295       -2.1006571127       -0.4797230134  W2        2056            0.0000000000
      6168      2056  TIP3      H2            -36.5763496295       -1.3058971127       -0.6356830134  W2        2056            0.0000000000
      6169      2057  TIP3      OH2           -35.5161196295       -1.9844771127        0.6135169866  W2        2057            0.0000000000
      6170      2057  TIP3      H1            -34.6177596295       -2.2584571127        0.4288569866  W2        2057            0.0000000000
      6171      2057  TIP3      H2            -35.9028096295       -2.7268771127        1.0777769866  W2        2057            0.0000000000
      6172      2058  TIP3      OH2           -36.8915896295       14.8170028873      -16.7134830134  W2        2058            0.0000000000
      6173      2058  TIP3      H1            -37.1591296295       15.1032928873      -15.8401730134  W2        2058            0.0000000000
      6174      2058  TIP3      H2            -36.1203296295       14.2709228873      -16.5612330134  W2        2058            0.0000000000
      6175      2059  TIP3      OH2           -27.0948896295       -2.6519471127        0.7957969866  W2        2059            0.0000000000
      6176      2059  TIP3      H1            -27.0181696295       -3.0778771127        1.6495669866  W2        2059            0.0000000000
      6177      2059  TIP3      H2            -26.2012296295       -2.6384771127        0.4531469866  W2        2059            0.0000000000
      6178      2060  TIP3      OH2           -23.9187796295       13.4206828873       -0.5117830134  W2        2060            0.0000000000
      6179      2060  TIP3      H1            -24.7005896295       13.2344828873       -1.0317230134  W2        2060            0.0000000000
      6180      2060  TIP3      H2            -23.9907896295       14.3501128873       -0.2945330134  W2        2060            0.0000000000
      6181      2061  TIP3      OH2            -9.5127396295        7.3071228873      -10.4810630134  W2        2061            0.0000000000
      6182      2061  TIP3      H1             -9.4236296295        8.2509428873      -10.6133530134  W2        2061            0.0000000000
      6183      2061  TIP3      H2            -10.1509796295        7.0317628873      -11.1391230134  W2        2061            0.0000000000
      6184      2062  TIP3      OH2           -10.5796096295        6.5621928873       -7.0622430134  W2        2062            0.0000000000
      6185      2062  TIP3      H1            -10.6178596295        5.9158228873       -6.3572830134  W2        2062            0.0000000000
      6186      2062  TIP3      H2            -10.9019596295        6.0956328873       -7.8333730134  W2        2062            0.0000000000
      6187      2063  TIP3      OH2           -18.2111096295        6.1764028873       -5.4692530134  W2        2063            0.0000000000
      6188      2063  TIP3      H1            -18.1698996295        5.5507328873       -4.7460130134  W2        2063            0.0000000000
      6189      2063  TIP3      H2            -17.5083396295        6.8002628873       -5.2872130134  W2        2063            0.0000000000
      6190      2064  TIP3      OH2            -6.8735896295        9.5012328873       -8.7607330134  W2        2064            0.0000000000
      6191      2064  TIP3      H1             -7.3143196295        8.7808328873       -8.3101730134  W2        2064            0.0000000000
      6192      2064  TIP3      H2             -6.8866196295       10.2219528873       -8.1309630134  W2        2064            0.0000000000
      6193      2065  TIP3      OH2           -17.2877996295       10.6262928873       -6.9343430134  W2        2065            0.0000000000
      6194      2065  TIP3      H1            -17.6572796295        9.8243428873       -7.3039130134  W2        2065            0.0000000000
      6195      2065  TIP3      H2            -16.3466896295       10.4577828873       -6.8880030134  W2        2065            0.0000000000
      6196      2066  TIP3      OH2           -20.6777496295        4.2865528873      -11.5414630134  W2        2066            0.0000000000
      6197      2066  TIP3      H1            -21.1254096295        5.1324228873      -11.5598130134  W2        2066            0.0000000000
      6198      2066  TIP3      H2            -21.2386296295        3.7069728873      -12.0569530134  W2        2066            0.0000000000
      6199      2067  TIP3      OH2           -19.9671396295        6.4485128873       -9.4156630134  W2        2067            0.0000000000
      6200      2067  TIP3      H1            -19.7537896295        5.6786728873       -8.8883630134  W2        2067            0.0000000000
      6201      2067  TIP3      H2            -19.2293796295        6.5381828873      -10.0189030134  W2        2067            0.0000000000
      6202      2068  TIP3      OH2            -9.7620396295       14.6054028873       -8.5486930134  W2        2068            0.0000000000
      6203      2068  TIP3      H1             -9.1423996295       13.9288728873       -8.8217730134  W2        2068            0.0000000000
      6204      2068  TIP3      H2             -9.9702996295       14.3874828873       -7.6402030134  W2        2068            0.0000000000
      6205      2069  TIP3      OH2           -12.1901696295        8.9943328873       -6.6561430134  W2        2069            0.0000000000
      6206      2069  TIP3      H1            -11.8863796295        8.3084728873       -7.2507330134  W2        2069            0.0000000000
      6207      2069  TIP3      H2            -11.4687696295        9.1132028873       -6.0383430134  W2        2069            0.0000000000
      6208      2070  TIP3      OH2            -3.5271896295        0.5958628873       -5.7955230134  W2        2070            0.0000000000
      6209      2070  TIP3      H1             -3.4779696295        1.2059828873       -5.0596130134  W2        2070            0.0000000000
      6210      2070  TIP3      H2             -3.1016796295        1.0569528873       -6.5184130134  W2        2070            0.0000000000
      6211      2071  TIP3      OH2            -9.0494696295        3.3885728873       -6.3286630134  W2        2071            0.0000000000
      6212      2071  TIP3      H1             -8.9068796295        2.4422728873       -6.3085030134  W2        2071            0.0000000000
      6213      2071  TIP3      H2             -9.1555696295        3.5955528873       -7.2571730134  W2        2071            0.0000000000
      6214      2072  TIP3      OH2           -15.8946396295        1.4902128873       -9.0561830134  W2        2072            0.0000000000
      6215      2072  TIP3      H1            -15.8515296295        2.3500628873       -9.4745530134  W2        2072            0.0000000000
      6216      2072  TIP3      H2            -16.3522296295        0.9376828873       -9.6898630134  W2        2072            0.0000000000
      6217      2073  TIP3      OH2            -8.1723696295        1.6207728873      -10.6553530134  W2        2073            0.0000000000
      6218      2073  TIP3      H1             -7.5259396295        1.2920928873      -10.0305930134  W2        2073            0.0000000000
      6219      2073  TIP3      H2             -7.6624296295        2.1386728873      -11.2782130134  W2        2073            0.0000000000
      6220      2074  TIP3      OH2           -19.2744896295        3.8867928873       -8.2940430134  W2        2074            0.0000000000
      6221      2074  TIP3      H1            -18.6208296295        3.3369628873       -7.8620330134  W2        2074            0.0000000000
      6222      2074  TIP3      H2            -19.2505596295        3.6126928873       -9.2108430134  W2        2074            0.0000000000
      6223      2075  TIP3      OH2           -14.1180396295        5.4369228873       -9.0788930134  W2        2075            0.0000000000
      6224      2075  TIP3      H1            -13.5019396295        4.9104628873       -8.5694930134  W2        2075            0.0000000000
      6225      2075  TIP3      H2            -14.7041596295        4.7967928873       -9.4825330134  W2        2075            0.0000000000
      6226      2076  TIP3      OH2            -3.1357296295        2.0737828873       -3.5595430134  W2        2076            0.0000000000
      6227      2076  TIP3      H1             -3.8242696295        2.7318528873       -3.6548830134  W2        2076            0.0000000000
      6228      2076  TIP3      H2             -3.1202696295        1.8765728873       -2.6230030134  W2        2076            0.0000000000
      6229      2077  TIP3      OH2           -17.0844496295        0.4080528873       -4.9821030134  W2        2077            0.0000000000
      6230      2077  TIP3      H1            -17.3032796295        0.9381128873       -5.7485030134  W2        2077            0.0000000000
      6231      2077  TIP3      H2            -17.7523596295        0.6346028873       -4.3349630134  W2        2077            0.0000000000
      6232      2078  TIP3      OH2            -9.7154696295        9.9081628873      -11.4381930134  W2        2078            0.0000000000
      6233      2078  TIP3      H1            -10.0109596295        9.5853928873      -12.2895030134  W2        2078            0.0000000000
      6234      2078  TIP3      H2            -10.0396896295       10.8078328873      -11.3969330134  W2        2078            0.0000000000
      6235      2079  TIP3      OH2           -14.5153096295        8.0836228873       -4.6947330134  W2        2079            0.0000000000
      6236      2079  TIP3      H1            -15.2553996295        8.6817728873       -4.5912130134  W2        2079            0.0000000000
      6237      2079  TIP3      H2            -13.8013596295        8.6375828873       -5.0103730134  W2        2079            0.0000000000
      6238      2080  TIP3      OH2            -6.4085296295        0.9117028873       -8.6747630134  W2        2080            0.0000000000
      6239      2080  TIP3      H1             -6.6237296295        0.1460428873       -8.1421630134  W2        2080            0.0000000000
      6240      2080  TIP3      H2             -5.7527896295        1.3841628873       -8.1619130134  W2        2080            0.0000000000
      6241      2081  TIP3      OH2           -17.4907196295        2.3002328873       -7.0298830134  W2        2081            0.0000000000
      6242      2081  TIP3      H1            -16.8770896295        2.9329928873       -6.6566430134  W2        2081            0.0000000000
      6243      2081  TIP3      H2            -16.9786496295        1.8277328873       -7.6861930134  W2        2081            0.0000000000
      6244      2082  TIP3      OH2           -16.1078796295       10.0479228873       -3.9075830134  W2        2082            0.0000000000
      6245      2082  TIP3      H1            -16.1131196295       10.9272728873       -4.2856530134  W2        2082            0.0000000000
      6246      2082  TIP3      H2            -16.9614696295        9.9643328873       -3.4825930134  W2        2082            0.0000000000
      6247      2083  TIP3      OH2           -19.9867896295        9.7187128873      -13.1256530134  W2        2083            0.0000000000
      6248      2083  TIP3      H1            -20.2586996295        9.9478128873      -14.0143630134  W2        2083            0.0000000000
      6249      2083  TIP3      H2            -19.9412196295       10.5565928873      -12.6651230134  W2        2083            0.0000000000
      6250      2084  TIP3      OH2            -6.3618196295       11.3403028873       -6.4128030134  W2        2084            0.0000000000
      6251      2084  TIP3      H1             -7.3034496295       11.3986928873       -6.2511130134  W2        2084            0.0000000000
      6252      2084  TIP3      H2             -6.0852096295       12.2463528873       -6.5498330134  W2        2084            0.0000000000
      6253      2085  TIP3      OH2            -6.0611196295       -0.3731671127       -4.9954130134  W2        2085            0.0000000000
      6254      2085  TIP3      H1             -6.7971996295        0.2375428873       -5.0332830134  W2        2085            0.0000000000
      6255      2085  TIP3      H2             -5.3777196295        0.0417328873       -5.5217730134  W2        2085            0.0000000000
      6256      2086  TIP3      OH2           -13.0579796295       -2.2864371127       -7.5296130134  W2        2086            0.0000000000
      6257      2086  TIP3      H1            -13.1755596295       -3.2348371127       -7.5837830134  W2        2086            0.0000000000
      6258      2086  TIP3      H2            -13.9129696295       -1.9538271127       -7.2565030134  W2        2086            0.0000000000
      6259      2087  TIP3      OH2            -8.1096996295       13.1216528873       -9.7876430134  W2        2087            0.0000000000
      6260      2087  TIP3      H1             -7.6844696295       12.4144428873      -10.2726830134  W2        2087            0.0000000000
      6261      2087  TIP3      H2             -7.7926996295       13.9229228873      -10.2044230134  W2        2087            0.0000000000
      6262      2088  TIP3      OH2            -6.9500496295       11.0225028873      -11.2789830134  W2        2088            0.0000000000
      6263      2088  TIP3      H1             -7.2075696295       10.3325128873      -11.8903930134  W2        2088            0.0000000000
      6264      2088  TIP3      H2             -6.8789696295       10.5796228873      -10.4333930134  W2        2088            0.0000000000
      6265      2089  TIP3      OH2            -5.2640296295        9.5891728873       -2.8016330134  W2        2089            0.0000000000
      6266      2089  TIP3      H1             -5.1243996295        8.9974228873       -3.5409330134  W2        2089            0.0000000000
      6267      2089  TIP3      H2             -5.0967496295       10.4617628873       -3.1577530134  W2        2089            0.0000000000
      6268      2090  TIP3      OH2           -10.7914896295        6.5511228873      -13.0290330134  W2        2090            0.0000000000
      6269      2090  TIP3      H1            -11.5029396295        7.0860928873      -13.3809830134  W2        2090            0.0000000000
      6270      2090  TIP3      H2            -10.1005296295        6.6063328873      -13.6891430134  W2        2090            0.0000000000
      6271      2091  TIP3      OH2           -10.7375696295        5.0085528873      -15.9905330134  W2        2091            0.0000000000
      6272      2091  TIP3      H1            -10.0365796295        5.0312428873      -15.3391330134  W2        2091            0.0000000000
      6273      2091  TIP3      H2            -10.4352796295        4.3805228873      -16.6466030134  W2        2091            0.0000000000
      6274      2092  TIP3      OH2            -3.4220996295        5.9289728873       -4.7355930134  W2        2092            0.0000000000
      6275      2092  TIP3      H1             -4.0746896295        6.6235328873       -4.6465030134  W2        2092            0.0000000000
      6276      2092  TIP3      H2             -2.9570696295        6.1390628873       -5.5454330134  W2        2092            0.0000000000
      6277      2093  TIP3      OH2            -7.3857196295        6.7604528873      -12.0774430134  W2        2093            0.0000000000
      6278      2093  TIP3      H1             -8.1176196295        6.9888228873      -11.5043830134  W2        2093            0.0000000000
      6279      2093  TIP3      H2             -6.9384996295        6.0467228873      -11.6226930134  W2        2093            0.0000000000
      6280      2094  TIP3      OH2            -7.4883696295        4.9347128873       -3.0097430134  W2        2094            0.0000000000
      6281      2094  TIP3      H1             -7.4084596295        5.6981528873       -2.4378930134  W2        2094            0.0000000000
      6282      2094  TIP3      H2             -8.0895996295        5.2139528873       -3.7002330134  W2        2094            0.0000000000
      6283      2095  TIP3      OH2           -15.7403496295        7.3910728873      -10.1949430134  W2        2095            0.0000000000
      6284      2095  TIP3      H1            -16.0708296295        7.0204128873      -11.0132430134  W2        2095            0.0000000000
      6285      2095  TIP3      H2            -15.1519396295        6.7204728873       -9.8481130134  W2        2095            0.0000000000
      6286      2096  TIP3      OH2           -14.3735996295       10.8191328873       -7.5137230134  W2        2096            0.0000000000
      6287      2096  TIP3      H1            -14.4684696295       10.2404428873       -8.2702630134  W2        2096            0.0000000000
      6288      2096  TIP3      H2            -13.6442396295       10.4477028873       -7.0174430134  W2        2096            0.0000000000
      6289      2097  TIP3      OH2           -15.3737996295        6.1596328873       -6.5614430134  W2        2097            0.0000000000
      6290      2097  TIP3      H1            -14.8085496295        6.2810528873       -7.3243230134  W2        2097            0.0000000000
      6291      2097  TIP3      H2            -15.0549096295        6.7971328873       -5.9225930134  W2        2097            0.0000000000
      6292      2098  TIP3      OH2            -9.0645796295       11.6628228873       -5.8273930134  W2        2098            0.0000000000
      6293      2098  TIP3      H1             -9.3049196295       12.3251328873       -5.1794730134  W2        2098            0.0000000000
      6294      2098  TIP3      H2             -9.2627596295       10.8283428873       -5.4024330134  W2        2098            0.0000000000
      6295      2099  TIP3      OH2           -14.4937296295       10.5589028873       -1.8442530134  W2        2099            0.0000000000
      6296      2099  TIP3      H1            -14.8049796295       11.3412228873       -1.3889330134  W2        2099            0.0000000000
      6297      2099  TIP3      H2            -15.1437096295       10.4058128873       -2.5300530134  W2        2099            0.0000000000
      6298      2100  TIP3      OH2            -8.5147696295        5.9227428873      -14.3923230134  W2        2100            0.0000000000
      6299      2100  TIP3      H1             -7.9352196295        6.0727728873      -13.6454330134  W2        2100            0.0000000000
      6300      2100  TIP3      H2             -8.1007696295        6.3934828873      -15.1156830134  W2        2100            0.0000000000
      6301      2101  TIP3      OH2           -17.5737396295        6.7570128873       -2.6156830134  W2        2101            0.0000000000
      6302      2101  TIP3      H1            -17.5034196295        7.4076928873       -1.9171830134  W2        2101            0.0000000000
      6303      2101  TIP3      H2            -18.4645196295        6.8597628873       -2.9505930134  W2        2101            0.0000000000
      6304      2102  TIP3      OH2           -10.7882796295       12.6595928873      -10.9570130134  W2        2102            0.0000000000
      6305      2102  TIP3      H1            -10.3145196295       12.9552228873      -10.1795930134  W2        2102            0.0000000000
      6306      2102  TIP3      H2            -11.3513496295       13.3977528873      -11.1900530134  W2        2102            0.0000000000
      6307      2103  TIP3      OH2           -16.2541396295       12.6304028873       -1.0808730134  W2        2103            0.0000000000
      6308      2103  TIP3      H1            -16.2466096295       12.4943728873       -2.0283230134  W2        2103            0.0000000000
      6309      2103  TIP3      H2            -17.1700996295       12.5132128873       -0.8288730134  W2        2103            0.0000000000
      6310      2104  TIP3      OH2            -4.8159296295       -2.3272171127      -14.5793530134  W2        2104            0.0000000000
      6311      2104  TIP3      H1             -5.7158596295       -2.1883171127      -14.2842930134  W2        2104            0.0000000000
      6312      2104  TIP3      H2             -4.5640896295       -1.4957571127      -14.9811830134  W2        2104            0.0000000000
      6313      2105  TIP3      OH2           -16.7500796295        6.4605028873      -12.6056630134  W2        2105            0.0000000000
      6314      2105  TIP3      H1            -17.0419496295        7.2286728873      -13.0965330134  W2        2105            0.0000000000
      6315      2105  TIP3      H2            -17.4245596295        5.8011228873      -12.7685230134  W2        2105            0.0000000000
      6316      2106  TIP3      OH2            -3.6267896295       12.0390228873      -16.2029630134  W2        2106            0.0000000000
      6317      2106  TIP3      H1             -3.5534396295       12.9780428873      -16.0324330134  W2        2106            0.0000000000
      6318      2106  TIP3      H2             -2.7212796295       11.7338828873      -16.2592330134  W2        2106            0.0000000000
      6319      2107  TIP3      OH2           -20.6570696295        8.8234228873       -3.7906830134  W2        2107            0.0000000000
      6320      2107  TIP3      H1            -21.1582296295        8.7953628873       -4.6057130134  W2        2107            0.0000000000
      6321      2107  TIP3      H2            -20.6516996295        7.9177428873       -3.4809530134  W2        2107            0.0000000000
      6322      2108  TIP3      OH2           -20.9067996295       11.6038028873       -6.9066630134  W2        2108            0.0000000000
      6323      2108  TIP3      H1            -19.9607396295       11.4595028873       -6.9257130134  W2        2108            0.0000000000
      6324      2108  TIP3      H2            -21.0191696295       12.3880828873       -6.3695430134  W2        2108            0.0000000000
      6325      2109  TIP3      OH2            -2.7089496295       12.2697728873       -1.2242930134  W2        2109            0.0000000000
      6326      2109  TIP3      H1             -2.7582696295       11.3145828873       -1.2615330134  W2        2109            0.0000000000
      6327      2109  TIP3      H2             -3.5357196295       12.5373028873       -0.8229130134  W2        2109            0.0000000000
      6328      2110  TIP3      OH2           -11.7305496295       11.8436928873       -2.3481530134  W2        2110            0.0000000000
      6329      2110  TIP3      H1            -11.6430896295       12.6701528873       -1.8732430134  W2        2110            0.0000000000
      6330      2110  TIP3      H2            -12.5940396295       11.5140728873       -2.0992230134  W2        2110            0.0000000000
      6331      2111  TIP3      OH2           -11.3159696295       15.6160628873      -12.5420930134  W2        2111            0.0000000000
      6332      2111  TIP3      H1            -11.3913696295       15.4947828873      -13.4885730134  W2        2111            0.0000000000
      6333      2111  TIP3      H2            -11.2830996295       16.5653328873      -12.4236330134  W2        2111            0.0000000000
      6334      2112  TIP3      OH2           -17.6625896295       14.4047628873      -10.7611930134  W2        2112            0.0000000000
      6335      2112  TIP3      H1            -17.5105496295       14.0568028873       -9.8825430134  W2        2112            0.0000000000
      6336      2112  TIP3      H2            -18.5135496295       14.0484928873      -11.0164730134  W2        2112            0.0000000000
      6337      2113  TIP3      OH2            -8.2143696295       14.7700828873      -15.5398530134  W2        2113            0.0000000000
      6338      2113  TIP3      H1             -7.8395296295       14.0256928873      -16.0105930134  W2        2113            0.0000000000
      6339      2113  TIP3      H2             -8.2099996295       14.5001428873      -14.6215230134  W2        2113            0.0000000000
      6340      2114  TIP3      OH2            -8.5455596295       14.6957928873      -12.7906330134  W2        2114            0.0000000000
      6341      2114  TIP3      H1             -9.4805796295       14.7959828873      -12.6119330134  W2        2114            0.0000000000
      6342      2114  TIP3      H2             -8.2653696295       13.9863928873      -12.2123130134  W2        2114            0.0000000000
      6343      2115  TIP3      OH2            -5.5569696295        3.7630228873       -0.7440730134  W2        2115            0.0000000000
      6344      2115  TIP3      H1             -5.9642896295        4.2435828873       -1.4647430134  W2        2115            0.0000000000
      6345      2115  TIP3      H2             -5.5163996295        2.8576228873       -1.0519930134  W2        2115            0.0000000000
      6346      2116  TIP3      OH2           -18.4080196295       10.1469628873       -2.7474030134  W2        2116            0.0000000000
      6347      2116  TIP3      H1            -18.1918896295        9.7855228873       -1.8878230134  W2        2116            0.0000000000
      6348      2116  TIP3      H2            -19.2635496295        9.7723428873       -2.9570530134  W2        2116            0.0000000000
      6349      2117  TIP3      OH2           -15.7892196295       -1.3829871127       -6.7519830134  W2        2117            0.0000000000
      6350      2117  TIP3      H1            -16.6508496295       -1.4701671127       -7.1596930134  W2        2117            0.0000000000
      6351      2117  TIP3      H2            -15.8116496295       -0.5269771127       -6.3242230134  W2        2117            0.0000000000
      6352      2118  TIP3      OH2           -11.1264396295       -1.6609471127       -3.3772830134  W2        2118            0.0000000000
      6353      2118  TIP3      H1            -10.7061296295       -2.0762371127       -2.6242230134  W2        2118            0.0000000000
      6354      2118  TIP3      H2            -12.0594796295       -1.8396171127       -3.2600830134  W2        2118            0.0000000000
      6355      2119  TIP3      OH2            -7.7999496295        2.0945728873       -2.5238330134  W2        2119            0.0000000000
      6356      2119  TIP3      H1             -8.3139996295        1.9687928873       -1.7262330134  W2        2119            0.0000000000
      6357      2119  TIP3      H2             -7.9554796295        3.0068828873       -2.7682130134  W2        2119            0.0000000000
      6358      2120  TIP3      OH2            -7.0374596295        6.9555728873      -16.7625330134  W2        2120            0.0000000000
      6359      2120  TIP3      H1             -6.9953796295        6.7329628873      -17.6925330134  W2        2120            0.0000000000
      6360      2120  TIP3      H2             -6.1882496295        7.3542828873      -16.5725430134  W2        2120            0.0000000000
      6361      2121  TIP3      OH2           -11.4647096295        0.8313928873      -16.0922030134  W2        2121            0.0000000000
      6362      2121  TIP3      H1            -11.7182296295        0.8505528873      -15.1693930134  W2        2121            0.0000000000
      6363      2121  TIP3      H2            -11.7214996295       -0.0400671127      -16.3935830134  W2        2121            0.0000000000
      6364      2122  TIP3      OH2           -15.6982096295        3.5824628873       -5.6569630134  W2        2122            0.0000000000
      6365      2122  TIP3      H1            -16.3399996295        3.5421928873       -4.9479530134  W2        2122            0.0000000000
      6366      2122  TIP3      H2            -15.6610096295        4.5089328873       -5.8946630134  W2        2122            0.0000000000
      6367      2123  TIP3      OH2           -15.7012996295        3.8034728873      -10.7449630134  W2        2123            0.0000000000
      6368      2123  TIP3      H1            -16.5940096295        3.4630828873      -10.8035830134  W2        2123            0.0000000000
      6369      2123  TIP3      H2            -15.2506396295        3.4265628873      -11.5006430134  W2        2123            0.0000000000
      6370      2124  TIP3      OH2           -10.1657496295        4.2195028873      -11.9278830134  W2        2124            0.0000000000
      6371      2124  TIP3      H1            -10.5747196295        5.0343628873      -12.2194030134  W2        2124            0.0000000000
      6372      2124  TIP3      H2             -9.4451296295        4.0795128873      -12.5421730134  W2        2124            0.0000000000
      6373      2125  TIP3      OH2           -11.0635896295        4.3951428873       -0.4398130134  W2        2125            0.0000000000
      6374      2125  TIP3      H1            -11.6262096295        3.6903028873       -0.1190330134  W2        2125            0.0000000000
      6375      2125  TIP3      H2            -10.2372496295        4.2743328873        0.0279469866  W2        2125            0.0000000000
      6376      2126  TIP3      OH2            -9.1609796295        3.6655428873       -9.1139130134  W2        2126            0.0000000000
      6377      2126  TIP3      H1             -9.3565296295        4.2712228873       -9.8288530134  W2        2126            0.0000000000
      6378      2126  TIP3      H2             -8.9797196295        2.8320628873       -9.5482830134  W2        2126            0.0000000000
      6379      2127  TIP3      OH2           -17.9481596295        3.9028128873       -3.7897630134  W2        2127            0.0000000000
      6380      2127  TIP3      H1            -17.9862196295        4.3029728873       -2.9210530134  W2        2127            0.0000000000
      6381      2127  TIP3      H2            -18.4390496295        3.0860528873       -3.6994730134  W2        2127            0.0000000000
      6382      2128  TIP3      OH2           -14.5824196295        1.2770428873      -16.9911630134  W2        2128            0.0000000000
      6383      2128  TIP3      H1            -15.0133496295        0.8320528873      -16.2614230134  W2        2128            0.0000000000
      6384      2128  TIP3      H2            -15.3005496295        1.6486728873      -17.5034130134  W2        2128            0.0000000000
      6385      2129  TIP3      OH2           -21.3400796295        1.0189928873       -9.9392930134  W2        2129            0.0000000000
      6386      2129  TIP3      H1            -20.7093096295        0.9902028873       -9.2199030134  W2        2129            0.0000000000
      6387      2129  TIP3      H2            -20.8906496295        0.5938628873      -10.6697030134  W2        2129            0.0000000000
      6388      2130  TIP3      OH2           -20.0658696295        1.7651928873      -14.5152530134  W2        2130            0.0000000000
      6389      2130  TIP3      H1            -19.5916996295        2.3561828873      -15.1001630134  W2        2130            0.0000000000
      6390      2130  TIP3      H2            -20.7832296295        2.2954828873      -14.1682430134  W2        2130            0.0000000000
      6391      2131  TIP3      OH2            -9.8970596295        5.3036728873       -4.4426730134  W2        2131            0.0000000000
      6392      2131  TIP3      H1             -9.5735796295        4.6726428873       -5.0856230134  W2        2131            0.0000000000
      6393      2131  TIP3      H2            -10.3371296295        4.7688928873       -3.7819330134  W2        2131            0.0000000000
      6394      2132  TIP3      OH2           -13.1197696295        1.2312228873       -9.6585530134  W2        2132            0.0000000000
      6395      2132  TIP3      H1            -14.0306596295        1.2879028873       -9.3699530134  W2        2132            0.0000000000
      6396      2132  TIP3      H2            -12.6144796295        1.1707728873       -8.8478330134  W2        2132            0.0000000000
      6397      2133  TIP3      OH2           -18.2914296295        2.8598528873      -10.8317930134  W2        2133            0.0000000000
      6398      2133  TIP3      H1            -19.1806296295        2.9594028873      -11.1718330134  W2        2133            0.0000000000
      6399      2133  TIP3      H2            -17.9949396295        2.0181528873      -11.1780030134  W2        2133            0.0000000000
      6400      2134  TIP3      OH2           -14.6382496295        2.8601128873      -13.1753330134  W2        2134            0.0000000000
      6401      2134  TIP3      H1            -13.7066996295        2.9891128873      -12.9970230134  W2        2134            0.0000000000
      6402      2134  TIP3      H2            -14.8532196295        3.5295428873      -13.8248630134  W2        2134            0.0000000000
      6403      2135  TIP3      OH2            -8.7145796295        0.4658528873       -6.3943730134  W2        2135            0.0000000000
      6404      2135  TIP3      H1             -9.3914196295        0.5971628873       -5.7304030134  W2        2135            0.0000000000
      6405      2135  TIP3      H2             -9.2000896295        0.3108028873       -7.2046030134  W2        2135            0.0000000000
      6406      2136  TIP3      OH2           -15.9642296295        4.0543328873      -15.6087230134  W2        2136            0.0000000000
      6407      2136  TIP3      H1            -16.5067196295        3.6747128873      -16.2999630134  W2        2136            0.0000000000
      6408      2136  TIP3      H2            -15.1307396295        4.2488028873      -16.0373130134  W2        2136            0.0000000000
      6409      2137  TIP3      OH2            -5.4270696295       16.1373928873       -0.1176130134  W2        2137            0.0000000000
      6410      2137  TIP3      H1             -5.2271996295       16.5615828873       -0.9520830134  W2        2137            0.0000000000
      6411      2137  TIP3      H2             -4.7716996295       16.4812128873        0.4894269866  W2        2137            0.0000000000
      6412      2138  TIP3      OH2           -17.8290896295        8.6115228873       -0.5095630134  W2        2138            0.0000000000
      6413      2138  TIP3      H1            -17.0968496295        8.8661128873        0.0518869866  W2        2138            0.0000000000
      6414      2138  TIP3      H2            -18.6092196295        8.8160628873        0.0059769866  W2        2138            0.0000000000
      6415      2139  TIP3      OH2           -11.7997996295        4.0185228873       -7.7715930134  W2        2139            0.0000000000
      6416      2139  TIP3      H1            -11.2354596295        3.4721828873       -8.3186330134  W2        2139            0.0000000000
      6417      2139  TIP3      H2            -11.9474596295        3.4967128873       -6.9828330134  W2        2139            0.0000000000
      6418      2140  TIP3      OH2           -16.7978296295        0.1551328873      -11.3531130134  W2        2140            0.0000000000
      6419      2140  TIP3      H1            -17.1148796295       -0.7473371127      -11.3885730134  W2        2140            0.0000000000
      6420      2140  TIP3      H2            -16.0164196295        0.1568728873      -11.9059530134  W2        2140            0.0000000000
      6421      2141  TIP3      OH2           -13.1732096295        2.4071328873       -5.3575530134  W2        2141            0.0000000000
      6422      2141  TIP3      H1            -14.0086796295        2.8610828873       -5.2473130134  W2        2141            0.0000000000
      6423      2141  TIP3      H2            -12.6491496295        2.6829828873       -4.6055630134  W2        2141            0.0000000000
      6424      2142  TIP3      OH2           -12.6289496295        8.6199028873      -13.6729130134  W2        2142            0.0000000000
      6425      2142  TIP3      H1            -13.3738496295        8.1124328873      -13.9951230134  W2        2142            0.0000000000
      6426      2142  TIP3      H2            -12.7632296295        8.6687028873      -12.7264330134  W2        2142            0.0000000000
      6427      2143  TIP3      OH2            -5.4790596295        7.7527228873       -4.8861530134  W2        2143            0.0000000000
      6428      2143  TIP3      H1             -4.8371796295        8.2093528873       -5.4299330134  W2        2143            0.0000000000
      6429      2143  TIP3      H2             -6.3093696295        7.8659628873       -5.3487430134  W2        2143            0.0000000000
      6430      2144  TIP3      OH2            -8.7312696295        1.4338928873      -15.4736530134  W2        2144            0.0000000000
      6431      2144  TIP3      H1             -9.6698496295        1.5454528873      -15.6247730134  W2        2144            0.0000000000
      6432      2144  TIP3      H2             -8.4340596295        2.2905828873      -15.1670830134  W2        2144            0.0000000000
      6433      2145  TIP3      OH2           -11.1097396295        8.8042328873       -2.4360030134  W2        2145            0.0000000000
      6434      2145  TIP3      H1            -11.4551296295        8.4224728873       -1.6290430134  W2        2145            0.0000000000
      6435      2145  TIP3      H2            -11.3097296295        9.7375928873       -2.3647130134  W2        2145            0.0000000000
      6436      2146  TIP3      OH2            -8.0129196295        3.3011628873      -13.8129130134  W2        2146            0.0000000000
      6437      2146  TIP3      H1             -7.1210196295        3.1636628873      -13.4937930134  W2        2146            0.0000000000
      6438      2146  TIP3      H2             -7.9565596295        4.0917728873      -14.3495630134  W2        2146            0.0000000000
      6439      2147  TIP3      OH2           -17.5041196295        7.9149028873       -7.9031230134  W2        2147            0.0000000000
      6440      2147  TIP3      H1            -16.7593996295        7.9124728873       -8.5044730134  W2        2147            0.0000000000
      6441      2147  TIP3      H2            -17.4264596295        7.0912828873       -7.4216130134  W2        2147            0.0000000000
      6442      2148  TIP3      OH2           -10.5035396295       10.0783328873      -14.6474530134  W2        2148            0.0000000000
      6443      2148  TIP3      H1            -10.7986996295       10.9051228873      -14.2659730134  W2        2148            0.0000000000
      6444      2148  TIP3      H2            -11.2065396295        9.4590228873      -14.4513130134  W2        2148            0.0000000000
      6445      2149  TIP3      OH2           -20.4961496295        6.3755928873       -2.5882730134  W2        2149            0.0000000000
      6446      2149  TIP3      H1            -20.2732896295        5.9575528873       -1.7565230134  W2        2149            0.0000000000
      6447      2149  TIP3      H2            -21.0981396295        5.7630928873       -3.0109930134  W2        2149            0.0000000000
      6448      2150  TIP3      OH2           -13.4796596295        5.8925828873       -0.3753030134  W2        2150            0.0000000000
      6449      2150  TIP3      H1            -13.7755796295        5.7268828873       -1.2703930134  W2        2150            0.0000000000
      6450      2150  TIP3      H2            -12.5481396295        5.6726128873       -0.3859130134  W2        2150            0.0000000000
      6451      2151  TIP3      OH2            -8.8593796295       11.2657828873       -2.4855030134  W2        2151            0.0000000000
      6452      2151  TIP3      H1             -9.7599496295       11.4490428873       -2.7531130134  W2        2151            0.0000000000
      6453      2151  TIP3      H2             -8.8252696295       11.5247128873       -1.5646230134  W2        2151            0.0000000000
      6454      2152  TIP3      OH2            -3.1280496295        3.5105728873      -14.1182430134  W2        2152            0.0000000000
      6455      2152  TIP3      H1             -3.6824196295        3.1143728873      -14.7904930134  W2        2152            0.0000000000
      6456      2152  TIP3      H2             -3.0276896295        4.4210928873      -14.3959130134  W2        2152            0.0000000000
      6457      2153  TIP3      OH2            -3.1648496295        9.3107428873       -1.2810930134  W2        2153            0.0000000000
      6458      2153  TIP3      H1             -4.0159996295        9.5491228873       -1.6484530134  W2        2153            0.0000000000
      6459      2153  TIP3      H2             -2.5745096295        9.2940628873       -2.0343830134  W2        2153            0.0000000000
      6460      2154  TIP3      OH2            -4.8328796295       12.2966128873      -13.6530330134  W2        2154            0.0000000000
      6461      2154  TIP3      H1             -5.2057696295       11.4709928873      -13.3439730134  W2        2154            0.0000000000
      6462      2154  TIP3      H2             -4.5555296295       12.1135528873      -14.5506930134  W2        2154            0.0000000000
      6463      2155  TIP3      OH2            -7.6724896295        7.1045628873       -6.6318430134  W2        2155            0.0000000000
      6464      2155  TIP3      H1             -8.6007996295        6.8727528873       -6.6589130134  W2        2155            0.0000000000
      6465      2155  TIP3      H2             -7.2213796295        6.3275428873       -6.9619630134  W2        2155            0.0000000000
      6466      2156  TIP3      OH2           -15.1291796295       11.4327228873      -10.4989730134  W2        2156            0.0000000000
      6467      2156  TIP3      H1            -14.6019596295       12.2061628873      -10.6990930134  W2        2156            0.0000000000
      6468      2156  TIP3      H2            -16.0093296295       11.6576428873      -10.8005730134  W2        2156            0.0000000000
      6469      2157  TIP3      OH2           -19.3744096295        6.2951328873      -15.9117330134  W2        2157            0.0000000000
      6470      2157  TIP3      H1            -18.7584196295        6.9218528873      -15.5322530134  W2        2157            0.0000000000
      6471      2157  TIP3      H2            -20.2361496295        6.6111128873      -15.6400830134  W2        2157            0.0000000000
      6472      2158  TIP3      OH2           -13.7019496295        9.0957128873      -10.9225430134  W2        2158            0.0000000000
      6473      2158  TIP3      H1            -13.9429496295       10.0211528873      -10.8810130134  W2        2158            0.0000000000
      6474      2158  TIP3      H2            -14.4425896295        8.6368428873      -10.5261530134  W2        2158            0.0000000000
      6475      2159  TIP3      OH2           -13.1872896295       13.2450728873       -4.6074330134  W2        2159            0.0000000000
      6476      2159  TIP3      H1            -12.8248196295       14.0996328873       -4.8409930134  W2        2159            0.0000000000
      6477      2159  TIP3      H2            -12.6557696295       12.9532328873       -3.8668030134  W2        2159            0.0000000000
      6478      2160  TIP3      OH2           -15.0188696295       14.1174728873      -11.3773230134  W2        2160            0.0000000000
      6479      2160  TIP3      H1            -15.9688196295       14.2232128873      -11.3259930134  W2        2160            0.0000000000
      6480      2160  TIP3      H2            -14.6670596295       14.9382128873      -11.0325730134  W2        2160            0.0000000000
      6481      2161  TIP3      OH2            -9.6432096295        9.3441428873       -4.9068730134  W2        2161            0.0000000000
      6482      2161  TIP3      H1            -10.0690796295        9.1163128873       -4.0804730134  W2        2161            0.0000000000
      6483      2161  TIP3      H2             -9.0626296295        8.6053228873       -5.0893430134  W2        2161            0.0000000000
      6484      2162  TIP3      OH2            -7.4403196295       10.2731928873      -15.8329730134  W2        2162            0.0000000000
      6485      2162  TIP3      H1             -7.0870096295        9.8931728873      -15.0286230134  W2        2162            0.0000000000
      6486      2162  TIP3      H2             -8.3889696295       10.1796728873      -15.7460430134  W2        2162            0.0000000000
      6487      2163  TIP3      OH2            -6.9847896295       13.8960928873       -2.4373930134  W2        2163            0.0000000000
      6488      2163  TIP3      H1             -7.5864696295       13.3403828873       -2.9327630134  W2        2163            0.0000000000
      6489      2163  TIP3      H2             -6.7034196295       14.5630728873       -3.0636530134  W2        2163            0.0000000000
      6490      2164  TIP3      OH2            -2.9368796295       14.7524428873      -15.6319530134  W2        2164            0.0000000000
      6491      2164  TIP3      H1             -2.1930896295       15.3384928873      -15.7717930134  W2        2164            0.0000000000
      6492      2164  TIP3      H2             -3.6310696295       15.3210228873      -15.2987130134  W2        2164            0.0000000000
      6493      2165  TIP3      OH2           -18.8621996295        1.1288628873       -3.0301330134  W2        2165            0.0000000000
      6494      2165  TIP3      H1            -19.7549696295        1.4674028873       -3.0977330134  W2        2165            0.0000000000
      6495      2165  TIP3      H2            -18.9609196295        0.2734728873       -2.6120530134  W2        2165            0.0000000000
      6496      2166  TIP3      OH2            -6.5743896295        8.9453928873      -13.6061830134  W2        2166            0.0000000000
      6497      2166  TIP3      H1             -6.8516296295        8.2173228873      -13.0500730134  W2        2166            0.0000000000
      6498      2166  TIP3      H2             -5.6470896295        9.0645928873      -13.4009230134  W2        2166            0.0000000000
      6499      2167  TIP3      OH2           -19.2109996295       12.9333028873       -4.5951930134  W2        2167            0.0000000000
      6500      2167  TIP3      H1            -18.9939696295       12.0015428873       -4.6262230134  W2        2167            0.0000000000
      6501      2167  TIP3      H2            -18.9646496295       13.2078028873       -3.7119130134  W2        2167            0.0000000000
      6502      2168  TIP3      OH2           -13.3495396295       11.3848028873      -17.3859730134  W2        2168            0.0000000000
      6503      2168  TIP3      H1            -13.1105596295       10.6366128873      -17.9330830134  W2        2168            0.0000000000
      6504      2168  TIP3      H2            -13.6184096295       10.9969728873      -16.5531930134  W2        2168            0.0000000000
      6505      2169  TIP3      OH2           -14.4124796295       10.9551828873      -14.9297130134  W2        2169            0.0000000000
      6506      2169  TIP3      H1            -14.2656796295       10.4351628873      -14.1396230134  W2        2169            0.0000000000
      6507      2169  TIP3      H2            -14.4153096295       11.8619428873      -14.6231230134  W2        2169            0.0000000000
      6508      2170  TIP3      OH2           -17.9593696295        8.2075128873      -14.4191730134  W2        2170            0.0000000000
      6509      2170  TIP3      H1            -18.6454396295        8.5597628873      -13.8522030134  W2        2170            0.0000000000
      6510      2170  TIP3      H2            -17.4365796295        8.9704728873      -14.6657430134  W2        2170            0.0000000000
      6511      2171  TIP3      OH2           -10.1278596295        0.8698928873       -4.1402730134  W2        2171            0.0000000000
      6512      2171  TIP3      H1             -9.4290696295        0.9437628873       -3.4903030134  W2        2171            0.0000000000
      6513      2171  TIP3      H2            -10.5087196295        0.0053928873       -3.9859830134  W2        2171            0.0000000000
      6514      2172  TIP3      OH2            -9.3433696295        0.5220628873      -13.0430430134  W2        2172            0.0000000000
      6515      2172  TIP3      H1             -9.1235396295        0.9936028873      -13.8465030134  W2        2172            0.0000000000
      6516      2172  TIP3      H2             -8.7849696295        0.9163228873      -12.3729830134  W2        2172            0.0000000000
      6517      2173  TIP3      OH2           -11.6747596295       12.6525428873      -14.1802930134  W2        2173            0.0000000000
      6518      2173  TIP3      H1            -12.4911496295       13.1495128873      -14.1278630134  W2        2173            0.0000000000
      6519      2173  TIP3      H2            -11.1451296295       13.1278928873      -14.8204130134  W2        2173            0.0000000000
      6520      2174  TIP3      OH2           -12.1433796295        2.2499428873      -12.2082030134  W2        2174            0.0000000000
      6521      2174  TIP3      H1            -11.3311196295        2.7542628873      -12.1620330134  W2        2174            0.0000000000
      6522      2174  TIP3      H2            -12.3880796295        2.1049128873      -11.2942430134  W2        2174            0.0000000000
      6523      2175  TIP3      OH2           -11.6077396295        3.2362128873       -3.0235430134  W2        2175            0.0000000000
      6524      2175  TIP3      H1            -11.4887096295        3.8097528873       -2.2665030134  W2        2175            0.0000000000
      6525      2175  TIP3      H2            -10.9522796295        2.5481528873       -2.9087630134  W2        2175            0.0000000000
      6526      2176  TIP3      OH2           -11.2597096295       -0.6687571127      -11.2700930134  W2        2176            0.0000000000
      6527      2176  TIP3      H1            -11.6063596295       -0.0516971127      -10.6256630134  W2        2176            0.0000000000
      6528      2176  TIP3      H2            -10.6010196295       -0.1681871127      -11.7515430134  W2        2176            0.0000000000
      6529      2177  TIP3      OH2           -14.3364496295       13.6962628873      -14.1986030134  W2        2177            0.0000000000
      6530      2177  TIP3      H1            -14.1755796295       14.4960128873      -14.6993430134  W2        2177            0.0000000000
      6531      2177  TIP3      H2            -14.5336696295       14.0028628873      -13.3135430134  W2        2177            0.0000000000
      6532      2178  TIP3      OH2           -15.6020096295        0.3941828873      -14.5828430134  W2        2178            0.0000000000
      6533      2178  TIP3      H1            -15.6855296295        1.2824928873      -14.2362030134  W2        2178            0.0000000000
      6534      2178  TIP3      H2            -14.7119796295        0.1288528873      -14.3511630134  W2        2178            0.0000000000
      6535      2179  TIP3      OH2            -5.4031596295        1.1432428873       -2.1885730134  W2        2179            0.0000000000
      6536      2179  TIP3      H1             -6.3195796295        1.4054128873       -2.2762030134  W2        2179            0.0000000000
      6537      2179  TIP3      H2             -5.0676596295        1.1401428873       -3.0850430134  W2        2179            0.0000000000
      6538      2180  TIP3      OH2            -6.8010596295        4.8933428873       -8.0928430134  W2        2180            0.0000000000
      6539      2180  TIP3      H1             -7.5986196295        4.4783628873       -8.4213430134  W2        2180            0.0000000000
      6540      2180  TIP3      H2             -6.3559496295        4.2027128873       -7.6017930134  W2        2180            0.0000000000
      6541      2181  TIP3      OH2           -17.3434796295       10.8214028873      -15.5223930134  W2        2181            0.0000000000
      6542      2181  TIP3      H1            -16.7513296295       11.5208828873      -15.2461530134  W2        2181            0.0000000000
      6543      2181  TIP3      H2            -16.8841796295       10.3883528873      -16.2419330134  W2        2181            0.0000000000
      6544      2182  TIP3      OH2           -19.0275596295        3.4857028873      -16.4064530134  W2        2182            0.0000000000
      6545      2182  TIP3      H1            -19.0722996295        4.4250128873      -16.2277530134  W2        2182            0.0000000000
      6546      2182  TIP3      H2            -19.9152396295        3.2501928873      -16.6762430134  W2        2182            0.0000000000
      6547      2183  TIP3      OH2            -5.7145996295       14.1495928873       -6.4704930134  W2        2183            0.0000000000
      6548      2183  TIP3      H1             -5.8701696295       14.8280328873       -7.1275630134  W2        2183            0.0000000000
      6549      2183  TIP3      H2             -4.7819596295       14.2215228873       -6.2674330134  W2        2183            0.0000000000
      6550      2184  TIP3      OH2           -18.2193596295       -1.7326371127       -7.7333530134  W2        2184            0.0000000000
      6551      2184  TIP3      H1            -18.4483796295       -1.6733871127       -8.6608530134  W2        2184            0.0000000000
      6552      2184  TIP3      H2            -18.6620196295       -2.5240871127       -7.4269430134  W2        2184            0.0000000000
      6553      2185  TIP3      OH2           -19.2890296295       12.2080728873      -11.5727730134  W2        2185            0.0000000000
      6554      2185  TIP3      H1            -20.1211696295       12.6803428873      -11.5456330134  W2        2185            0.0000000000
      6555      2185  TIP3      H2            -18.7431996295       12.7178328873      -12.1714630134  W2        2185            0.0000000000
      6556      2186  TIP3      OH2           -20.0006596295       14.8204428873       -0.2429730134  W2        2186            0.0000000000
      6557      2186  TIP3      H1            -19.4604396295       14.6038428873        0.5169469866  W2        2186            0.0000000000
      6558      2186  TIP3      H2            -20.4818596295       14.0150428873       -0.4327230134  W2        2186            0.0000000000
      6559      2187  TIP3      OH2           -15.4033196295       13.7398828873        1.3774469866  W2        2187            0.0000000000
      6560      2187  TIP3      H1            -14.6355996295       13.2809628873        1.7183669866  W2        2187            0.0000000000
      6561      2187  TIP3      H2            -15.4246996295       13.5138628873        0.4475669866  W2        2187            0.0000000000
      6562      2188  TIP3      OH2           -11.3113596295       13.2479428873      -17.2473730134  W2        2188            0.0000000000
      6563      2188  TIP3      H1            -11.9552596295       12.6168028873      -16.9260030134  W2        2188            0.0000000000
      6564      2188  TIP3      H2            -10.5495296295       12.7167428873      -17.4790230134  W2        2188            0.0000000000
      6565      2189  TIP3      OH2            -8.8264496295       12.1199928873        0.1065969866  W2        2189            0.0000000000
      6566      2189  TIP3      H1             -9.1774996295       11.2632928873        0.3496369866  W2        2189            0.0000000000
      6567      2189  TIP3      H2             -8.1001296295       12.2626628873        0.7134969866  W2        2189            0.0000000000
      6568      2190  TIP3      OH2            -6.7070696295       13.0649328873      -17.0135730134  W2        2190            0.0000000000
      6569      2190  TIP3      H1             -6.4240296295       12.2704528873      -16.5608830134  W2        2190            0.0000000000
      6570      2190  TIP3      H2             -5.9672796295       13.2980328873      -17.5744630134  W2        2190            0.0000000000
      6571      2191  TIP3      OH2           -20.0937096295        8.6308528873        0.7114569866  W2        2191            0.0000000000
      6572      2191  TIP3      H1            -19.9496596295        7.7289228873        0.4251269866  W2        2191            0.0000000000
      6573      2191  TIP3      H2            -20.8659696295        8.9170628873        0.2236869866  W2        2191            0.0000000000
      6574      2192  TIP3      OH2           -15.7523396295        8.9744228873      -17.1560830134  W2        2192            0.0000000000
      6575      2192  TIP3      H1            -15.6879296295        8.1803828873      -16.6254430134  W2        2192            0.0000000000
      6576      2192  TIP3      H2            -15.0994196295        8.8557028873      -17.8458830134  W2        2192            0.0000000000
      6577      2193  TIP3      OH2           -13.4380996295        8.6006628873        0.1440969866  W2        2193            0.0000000000
      6578      2193  TIP3      H1            -13.7667196295        8.8714728873       -0.7131630134  W2        2193            0.0000000000
      6579      2193  TIP3      H2            -13.2862796295        7.6596428873        0.0565969866  W2        2193            0.0000000000
      6580      2194  TIP3      OH2           -10.3999996295       10.0215928873      -17.4202830134  W2        2194            0.0000000000
      6581      2194  TIP3      H1            -10.6685896295       10.2018028873      -16.5193930134  W2        2194            0.0000000000
      6582      2194  TIP3      H2            -10.6064396295        9.0962128873      -17.5517030134  W2        2194            0.0000000000
      6583      2195  TIP3      OH2            -7.7035796295        8.5163928873       -2.4726730134  W2        2195            0.0000000000
      6584      2195  TIP3      H1             -6.9580996295        9.1047628873       -2.5922730134  W2        2195            0.0000000000
      6585      2195  TIP3      H2             -8.4608996295        9.0983628873       -2.4093630134  W2        2195            0.0000000000
      6586      2196  TIP3      OH2           -19.2610596295        5.8311828873        0.1313869866  W2        2196            0.0000000000
      6587      2196  TIP3      H1            -18.8529396295        4.9738428873        0.0104469866  W2        2196            0.0000000000
      6588      2196  TIP3      H2            -19.5212996295        5.8453128873        1.0524169866  W2        2196            0.0000000000
      6589      2197  TIP3      OH2           -14.6029596295        6.9470428873      -14.8502830134  W2        2197            0.0000000000
      6590      2197  TIP3      H1            -15.0627596295        6.4628728873      -14.1644330134  W2        2197            0.0000000000
      6591      2197  TIP3      H2            -14.3480896295        6.2785828873      -15.4862330134  W2        2197            0.0000000000
      6592      2198  TIP3      OH2           -15.3140296295        4.8397528873       -2.4943230134  W2        2198            0.0000000000
      6593      2198  TIP3      H1            -15.9324196295        5.5144128873       -2.2138530134  W2        2198            0.0000000000
      6594      2198  TIP3      H2            -14.9699096295        5.1611428873       -3.3277030134  W2        2198            0.0000000000
      6595      2199  TIP3      OH2           -13.5319196295        5.1902228873      -16.5879630134  W2        2199            0.0000000000
      6596      2199  TIP3      H1            -13.7124196295        5.0353428873      -17.5151330134  W2        2199            0.0000000000
      6597      2199  TIP3      H2            -12.5818696295        5.2980928873      -16.5431730134  W2        2199            0.0000000000
      6598      2200  TIP3      OH2           -10.2942096295        7.3112828873        0.7831569866  W2        2200            0.0000000000
      6599      2200  TIP3      H1             -9.3410896295        7.3951928873        0.7557569866  W2        2200            0.0000000000
      6600      2200  TIP3      H2            -10.4547496295        6.5994628873        1.4026469866  W2        2200            0.0000000000
      6601      2201  TIP3      OH2            -4.1420896295        7.5446428873      -17.1421530134  W2        2201            0.0000000000
      6602      2201  TIP3      H1             -4.4156096295        7.1201928873      -17.9553230134  W2        2201            0.0000000000
      6603      2201  TIP3      H2             -4.1026796295        8.4760928873      -17.3591130134  W2        2201            0.0000000000
      6604      2202  TIP3      OH2           -14.9746596295        2.1948328873       -1.4120130134  W2        2202            0.0000000000
      6605      2202  TIP3      H1            -14.8245696295        1.4659628873       -2.0140430134  W2        2202            0.0000000000
      6606      2202  TIP3      H2            -14.9724196295        2.9720028873       -1.9707930134  W2        2202            0.0000000000
      6607      2203  TIP3      OH2           -14.5620896295        0.5644128873       -3.9192730134  W2        2203            0.0000000000
      6608      2203  TIP3      H1            -14.0263396295        1.0160828873       -4.5713430134  W2        2203            0.0000000000
      6609      2203  TIP3      H2            -15.4141296295        0.4563928873       -4.3418630134  W2        2203            0.0000000000
      6610      2204  TIP3      OH2           -12.9802496295        6.0040328873       -3.6797530134  W2        2204            0.0000000000
      6611      2204  TIP3      H1            -12.2297696295        5.8477828873       -4.2529730134  W2        2204            0.0000000000
      6612      2204  TIP3      H2            -13.3194196295        6.8556928873       -3.9552030134  W2        2204            0.0000000000
      6613      2205  TIP3      OH2            -8.5646296295        3.8192128873        1.3487769866  W2        2205            0.0000000000
      6614      2205  TIP3      H1             -8.3724996295        2.8881528873        1.2372269866  W2        2205            0.0000000000
      6615      2205  TIP3      H2             -7.7069996295        4.2441628873        1.3383169866  W2        2205            0.0000000000
      6616      2206  TIP3      OH2            -7.2479096295        6.6077328873       -0.5739530134  W2        2206            0.0000000000
      6617      2206  TIP3      H1             -7.5294096295        7.3171928873       -1.1515730134  W2        2206            0.0000000000
      6618      2206  TIP3      H2             -6.3054796295        6.5350328873       -0.7248330134  W2        2206            0.0000000000
      6619      2207  TIP3      OH2           -16.4960296295        3.3931828873        0.4995469866  W2        2207            0.0000000000
      6620      2207  TIP3      H1            -17.2631296295        2.8606628873        0.2893069866  W2        2207            0.0000000000
      6621      2207  TIP3      H2            -15.8171296295        3.0832228873       -0.0998230134  W2        2207            0.0000000000
      6622      2208  TIP3      OH2           -13.7565396295       -1.9790171127       -3.4879130134  W2        2208            0.0000000000
      6623      2208  TIP3      H1            -13.8545796295       -1.0326971127       -3.5932930134  W2        2208            0.0000000000
      6624      2208  TIP3      H2            -14.4989196295       -2.3516371127       -3.9635630134  W2        2208            0.0000000000
      6625      2209  TIP3      OH2           -12.4924896295        2.3425228873        0.0759269866  W2        2209            0.0000000000
      6626      2209  TIP3      H1            -12.7279496295        2.1231928873        0.9774169866  W2        2209            0.0000000000
      6627      2209  TIP3      H2            -13.2757996295        2.1356428873       -0.4338230134  W2        2209            0.0000000000
      6628      2210  TIP3      OH2            -9.7768296295        1.4698728873       -0.8487230134  W2        2210            0.0000000000
      6629      2210  TIP3      H1            -10.7242896295        1.5018428873       -0.7163930134  W2        2210            0.0000000000
      6630      2210  TIP3      H2             -9.4641596295        0.8445828873       -0.1949030134  W2        2210            0.0000000000
      6631      2211  TIP3      OH2            -8.1426796295        0.1039828873        1.1564669866  W2        2211            0.0000000000
      6632      2211  TIP3      H1             -8.2394996295       -0.8482871127        1.1506569866  W2        2211            0.0000000000
      6633      2211  TIP3      H2             -8.4643696295        0.3726628873        2.0170169866  W2        2211            0.0000000000
      6634      2212  TIP3      OH2           -18.3157496295        1.3135628873        0.2040169866  W2        2212            0.0000000000
      6635      2212  TIP3      H1            -18.1040096295        0.6071728873       -0.4062330134  W2        2212            0.0000000000
      6636      2212  TIP3      H2            -18.4269996295        0.8761628873        1.0481369866  W2        2212            0.0000000000
      6637      2213  TIP3      OH2           -13.5347296295       -2.6852771127       -0.8166330134  W2        2213            0.0000000000
      6638      2213  TIP3      H1            -12.8228896295       -3.3250571127       -0.8307230134  W2        2213            0.0000000000
      6639      2213  TIP3      H2            -13.6356896295       -2.4184471127       -1.7303230134  W2        2213            0.0000000000
      6640      2214  TIP3      OH2           -13.1809796295       -1.0024371127        1.2369969866  W2        2214            0.0000000000
      6641      2214  TIP3      H1            -13.3127596295       -1.4780571127        0.4168469866  W2        2214            0.0000000000
      6642      2214  TIP3      H2            -13.7802396295       -0.2580771127        1.1817069866  W2        2214            0.0000000000
      6643      2215  TIP3      OH2           -13.6347496295       15.8805928873      -15.5866030134  W2        2215            0.0000000000
      6644      2215  TIP3      H1            -12.7016796295       16.0384628873      -15.4427630134  W2        2215            0.0000000000
      6645      2215  TIP3      H2            -13.8988696295       16.5558928873      -16.2114530134  W2        2215            0.0000000000
      6646      2216  TIP3      OH2           -20.0662596295       10.5169728873      -16.1037930134  W2        2216            0.0000000000
      6647      2216  TIP3      H1            -19.1523396295       10.5958628873      -15.8304030134  W2        2216            0.0000000000
      6648      2216  TIP3      H2            -20.0589496295        9.8299328873      -16.7702330134  W2        2216            0.0000000000
      6649      2217  TIP3      OH2           -21.4171996295       15.9098228873      -11.0264030134  W2        2217            0.0000000000
      6650      2217  TIP3      H1            -22.0644896295       15.4479928873      -11.5592830134  W2        2217            0.0000000000
      6651      2217  TIP3      H2            -21.0627396295       15.2381528873      -10.4437830134  W2        2217            0.0000000000
      6652      2218  TIP3      OH2           -20.5472796295       13.9905228873       -9.2217830134  W2        2218            0.0000000000
      6653      2218  TIP3      H1            -20.8815996295       13.1102528873       -9.0497630134  W2        2218            0.0000000000
      6654      2218  TIP3      H2            -20.3250396295       14.3360228873       -8.3572230134  W2        2218            0.0000000000
      6655      2219  TIP3      OH2            -2.9987996295       14.8001628873       -6.2413030134  W2        2219            0.0000000000
      6656      2219  TIP3      H1             -3.0201296295       14.9850028873       -5.3023630134  W2        2219            0.0000000000
      6657      2219  TIP3      H2             -2.3081796295       15.3685628873       -6.5821630134  W2        2219            0.0000000000
      6658      2220  TIP3      OH2            -3.4355096295       14.3672728873       -3.3193930134  W2        2220            0.0000000000
      6659      2220  TIP3      H1             -3.9226396295       13.6316828873       -3.6906530134  W2        2220            0.0000000000
      6660      2220  TIP3      H2             -2.8862396295       13.9736628873       -2.6414530134  W2        2220            0.0000000000
      6661      2221  TIP3      OH2            -4.9847796295       10.1570828873        1.3186369866  W2        2221            0.0000000000
      6662      2221  TIP3      H1             -5.8506696295       10.0520528873        1.7128669866  W2        2221            0.0000000000
      6663      2221  TIP3      H2             -4.6081896295       10.9154128873        1.7651069866  W2        2221            0.0000000000
      6664      2222  TIP3      OH2            -3.6838096295        8.4134528873      -13.1671130134  W2        2222            0.0000000000
      6665      2222  TIP3      H1             -2.8336696295        8.8345428873      -13.0399530134  W2        2222            0.0000000000
      6666      2222  TIP3      H2             -3.6782996295        7.6734628873      -12.5599730134  W2        2222            0.0000000000
      6667      2223  TIP3      OH2            -3.2892496295        6.4671928873      -11.3435430134  W2        2223            0.0000000000
      6668      2223  TIP3      H1             -4.0157896295        5.9874528873      -10.9457830134  W2        2223            0.0000000000
      6669      2223  TIP3      H2             -2.7079196295        6.6726628873      -10.6113830134  W2        2223            0.0000000000
      6670      2224  TIP3      OH2            -3.5301296295        9.2519428873       -6.3957830134  W2        2224            0.0000000000
      6671      2224  TIP3      H1             -2.6967096295        8.8739428873       -6.6764230134  W2        2224            0.0000000000
      6672      2224  TIP3      H2             -3.4180996295       10.1950628873       -6.5148730134  W2        2224            0.0000000000
      6673      2225  TIP3      OH2            -5.0438996295       12.1296928873       -4.0889430134  W2        2225            0.0000000000
      6674      2225  TIP3      H1             -5.6913696295       12.4548428873       -3.4634230134  W2        2225            0.0000000000
      6675      2225  TIP3      H2             -5.5614996295       11.6894628873       -4.7631130134  W2        2225            0.0000000000
      6676      2226  TIP3      OH2            -3.0209396295        6.3680428873      -14.9524130134  W2        2226            0.0000000000
      6677      2226  TIP3      H1             -3.5428296295        6.7244528873      -15.6713230134  W2        2226            0.0000000000
      6678      2226  TIP3      H2             -3.0540196295        7.0428228873      -14.2743230134  W2        2226            0.0000000000
      6679      2227  TIP3      OH2            -4.6720396295        3.6076028873      -16.4017030134  W2        2227            0.0000000000
      6680      2227  TIP3      H1             -4.5755996295        4.2743028873      -17.0817330134  W2        2227            0.0000000000
      6681      2227  TIP3      H2             -4.8120796295        2.7922328873      -16.8831530134  W2        2227            0.0000000000
      6682      2228  TIP3      OH2            -5.5025696295        4.9878428873      -10.7806730134  W2        2228            0.0000000000
      6683      2228  TIP3      H1             -5.6526896295        4.0427028873      -10.8008930134  W2        2228            0.0000000000
      6684      2228  TIP3      H2             -5.8561196295        5.2689828873       -9.9367630134  W2        2228            0.0000000000
      6685      2229  TIP3      OH2           -20.4673296295        7.0660628873       -6.7702930134  W2        2229            0.0000000000
      6686      2229  TIP3      H1            -20.2830396295        6.9842328873       -7.7060030134  W2        2229            0.0000000000
      6687      2229  TIP3      H2            -19.6180396295        6.9417628873       -6.3466530134  W2        2229            0.0000000000
      6688      2230  TIP3      OH2            -4.6462796295        6.9581728873       -1.1418430134  W2        2230            0.0000000000
      6689      2230  TIP3      H1             -4.0635496295        6.2234028873       -0.9501230134  W2        2230            0.0000000000
      6690      2230  TIP3      H2             -4.0823496295        7.7302028873       -1.0952630134  W2        2230            0.0000000000
      6691      2231  TIP3      OH2            -3.1495696295        4.8607528873       -0.4573030134  W2        2231            0.0000000000
      6692      2231  TIP3      H1             -4.0128996295        4.4819628873       -0.6228330134  W2        2231            0.0000000000
      6693      2231  TIP3      H2             -2.5451996295        4.1222328873       -0.5317230134  W2        2231            0.0000000000
      6694      2232  TIP3      OH2            -5.4246596295        1.0155828873      -17.2841530134  W2        2232            0.0000000000
      6695      2232  TIP3      H1             -4.8140796295        0.6442628873      -16.6473330134  W2        2232            0.0000000000
      6696      2232  TIP3      H2             -6.2615096295        0.5942728873      -17.0881530134  W2        2232            0.0000000000
      6697      2233  TIP3      OH2            -5.7920896295        2.5704228873      -12.3181630134  W2        2233            0.0000000000
      6698      2233  TIP3      H1             -5.5123796295        1.6634628873      -12.1939930134  W2        2233            0.0000000000
      6699      2233  TIP3      H2             -5.0329196295        3.0045728873      -12.7072430134  W2        2233            0.0000000000
      6700      2234  TIP3      OH2            -5.1802596295        3.1521628873       -6.8822730134  W2        2234            0.0000000000
      6701      2234  TIP3      H1             -4.2474596295        3.3641528873       -6.9166730134  W2        2234            0.0000000000
      6702      2234  TIP3      H2             -5.4155096295        3.2533728873       -5.9599730134  W2        2234            0.0000000000
      6703      2235  TIP3      OH2            -5.1510696295        3.8886928873       -4.1063330134  W2        2235            0.0000000000
      6704      2235  TIP3      H1             -5.9939396295        4.1567328873       -3.7403530134  W2        2235            0.0000000000
      6705      2235  TIP3      H2             -4.7086396295        4.7108828873       -4.3172230134  W2        2235            0.0000000000
      6706      2236  TIP3      OH2           -20.8698496295        2.3365628873       -0.6294130134  W2        2236            0.0000000000
      6707      2236  TIP3      H1            -19.9503596295        2.2143928873       -0.3931030134  W2        2236            0.0000000000
      6708      2236  TIP3      H2            -21.3193996295        1.5865328873       -0.2400630134  W2        2236            0.0000000000
      6709      2237  TIP3      OH2            -2.8679096295       -2.1312871127        1.2471669866  W2        2237            0.0000000000
      6710      2237  TIP3      H1             -2.5182096295       -2.7849371127        0.6416369866  W2        2237            0.0000000000
      6711      2237  TIP3      H2             -2.7209596295       -1.2938771127        0.8074269866  W2        2237            0.0000000000
      6712      2238  TIP3      OH2            -5.1786096295       -0.1666471127      -12.2699630134  W2        2238            0.0000000000
      6713      2238  TIP3      H1             -4.9961096295       -0.6154971127      -11.4444630134  W2        2238            0.0000000000
      6714      2238  TIP3      H2             -5.7783196295       -0.7512071127      -12.7335030134  W2        2238            0.0000000000
      6715      2239  TIP3      OH2           -19.6485996295        0.6487228873       -7.7381230134  W2        2239            0.0000000000
      6716      2239  TIP3      H1            -19.2034396295       -0.1430271127       -7.4361530134  W2        2239            0.0000000000
      6717      2239  TIP3      H2            -19.1822996295        1.3652428873       -7.3075630134  W2        2239            0.0000000000
      6718      2240  TIP3      OH2           -21.3445696295        3.6480228873       -6.6691030134  W2        2240            0.0000000000
      6719      2240  TIP3      H1            -20.8525896295        3.4270728873       -7.4599030134  W2        2240            0.0000000000
      6720      2240  TIP3      H2            -20.9824796295        4.4883628873       -6.3881530134  W2        2240            0.0000000000
      6721      2241  TIP3      OH2            -3.3481896295       -0.0218271127       -0.4037030134  W2        2241            0.0000000000
      6722      2241  TIP3      H1             -4.2656196295        0.2488828873       -0.4393530134  W2        2241            0.0000000000
      6723      2241  TIP3      H2             -3.2252496295       -0.5569871127       -1.1877330134  W2        2241            0.0000000000
      6724      2242  TIP3      OH2            -3.3119896295       -0.0988371127      -15.7419330134  W2        2242            0.0000000000
      6725      2242  TIP3      H1             -2.8997296295       -0.8202671127      -16.2171330134  W2        2242            0.0000000000
      6726      2242  TIP3      H2             -2.6303396295        0.5706228873      -15.6835030134  W2        2242            0.0000000000
      6727      2243  TIP3      OH2           -21.0309196295       -0.0940671127      -12.6148630134  W2        2243            0.0000000000
      6728      2243  TIP3      H1            -21.9560796295        0.1145928873      -12.7443130134  W2        2243            0.0000000000
      6729      2243  TIP3      H2            -20.5769296295        0.3900128873      -13.3046330134  W2        2243            0.0000000000
      6730      2244  TIP3      OH2            -6.2601996295       14.8901028873      -10.6691230134  W2        2244            0.0000000000
      6731      2244  TIP3      H1             -5.6079096295       14.5423128873      -11.2772130134  W2        2244            0.0000000000
      6732      2244  TIP3      H2             -5.7498196295       15.3784228873      -10.0231530134  W2        2244            0.0000000000
      6733      2245  TIP3      OH2           -21.0673796295       -1.3561671127       -4.2706130134  W2        2245            0.0000000000
      6734      2245  TIP3      H1            -21.7323296295       -1.6021371127       -3.6275230134  W2        2245            0.0000000000
      6735      2245  TIP3      H2            -21.5102496295       -0.7341271127       -4.8478130134  W2        2245            0.0000000000
      6736      2246  TIP3      OH2           -18.8754496295       11.8192428873       -0.1260330134  W2        2246            0.0000000000
      6737      2246  TIP3      H1            -19.6961996295       11.9938928873       -0.5865630134  W2        2246            0.0000000000
      6738      2246  TIP3      H2            -19.1276696295       11.7457128873        0.7944069866  W2        2246            0.0000000000
      6739      2247  TIP3      OH2           -15.9211596295       12.7933628873       -3.8676330134  W2        2247            0.0000000000
      6740      2247  TIP3      H1            -16.3460496295       13.6032128873       -4.1501730134  W2        2247            0.0000000000
      6741      2247  TIP3      H2            -15.0168796295       12.8787728873       -4.1696530134  W2        2247            0.0000000000
      6742      2248  TIP3      OH2           -11.6100196295       14.1923628873       -0.9082630134  W2        2248            0.0000000000
      6743      2248  TIP3      H1            -11.4252696295       13.8589728873       -0.0302330134  W2        2248            0.0000000000
      6744      2248  TIP3      H2            -10.7635696295       14.5022228873       -1.2303430134  W2        2248            0.0000000000
      6745      2249  TIP3      OH2            -9.2649796295       15.4782528873       -1.6641230134  W2        2249            0.0000000000
      6746      2249  TIP3      H1             -8.5880896295       14.8454828873       -1.9042030134  W2        2249            0.0000000000
      6747      2249  TIP3      H2             -8.9430996295       15.8793028873       -0.8567930134  W2        2249            0.0000000000
      6748      2250  TIP3      OH2            -4.3475996295       -1.9321971127       -2.5846230134  W2        2250            0.0000000000
      6749      2250  TIP3      H1             -5.1602496295       -1.6071671127       -2.9721530134  W2        2250            0.0000000000
      6750      2250  TIP3      H2             -4.1147496295       -2.6923471127       -3.1177130134  W2        2250            0.0000000000
      6751      2251  TIP3      OH2           -18.5194896295       16.0497528873       -3.8201030134  W2        2251            0.0000000000
      6752      2251  TIP3      H1            -19.2398496295       16.4898528873       -4.2713330134  W2        2251            0.0000000000
      6753      2251  TIP3      H2            -18.8850896295       15.7992228873       -2.9717030134  W2        2251            0.0000000000
      6754      2252  TIP3      OH2           -16.0522296295       15.6501428873       -4.7903830134  W2        2252            0.0000000000
      6755      2252  TIP3      H1            -16.9170096295       15.7219928873       -4.3863730134  W2        2252            0.0000000000
      6756      2252  TIP3      H2            -16.1073296295       16.1968728873       -5.5741330134  W2        2252            0.0000000000
      6757      2253  TIP3      OH2           -11.3416696295       15.5380328873       -5.6147830134  W2        2253            0.0000000000
      6758      2253  TIP3      H1            -11.7982696295       16.0670028873       -6.2689430134  W2        2253            0.0000000000
      6759      2253  TIP3      H2            -11.1788696295       16.1411728873       -4.8895530134  W2        2253            0.0000000000
      6760      2254  TIP3      OH2            -9.0140396295       14.4159928873       -4.6697530134  W2        2254            0.0000000000
      6761      2254  TIP3      H1             -9.9186696295       14.5810128873       -4.9355430134  W2        2254            0.0000000000
      6762      2254  TIP3      H2             -8.5851796295       15.2692128873       -4.7354130134  W2        2254            0.0000000000
      6763      2255  TIP3      OH2            -6.4098496295       15.9859028873       -4.3749730134  W2        2255            0.0000000000
      6764      2255  TIP3      H1             -6.5916496295       16.9017928873       -4.5854830134  W2        2255            0.0000000000
      6765      2255  TIP3      H2             -6.2330696295       15.5756128873       -5.2215130134  W2        2255            0.0000000000
      6766      2256  TIP3      OH2           -19.1046796295       14.6730028873       -6.9099230134  W2        2256            0.0000000000
      6767      2256  TIP3      H1            -19.1230796295       14.2475128873       -6.0526930134  W2        2256            0.0000000000
      6768      2256  TIP3      H2            -18.2998896295       14.3545028873       -7.3187030134  W2        2256            0.0000000000
      6769      2257  TIP3      OH2           -16.9633696295       13.3828728873       -8.2549330134  W2        2257            0.0000000000
      6770      2257  TIP3      H1            -17.1822996295       12.4666128873       -8.0853330134  W2        2257            0.0000000000
      6771      2257  TIP3      H2            -16.1391496295       13.5229128873       -7.7887930134  W2        2257            0.0000000000
      6772      2258  TIP3      OH2           -14.4261196295       13.8528028873       -7.4061330134  W2        2258            0.0000000000
      6773      2258  TIP3      H1            -14.2135496295       12.9647028873       -7.6930430134  W2        2258            0.0000000000
      6774      2258  TIP3      H2            -14.3616096295       13.8185728873       -6.4517330134  W2        2258            0.0000000000
      6775      2259  TIP3      OH2           -10.9177496295       -0.4831371127       -8.2618030134  W2        2259            0.0000000000
      6776      2259  TIP3      H1            -11.5920696295       -1.1125771127       -8.0062230134  W2        2259            0.0000000000
      6777      2259  TIP3      H2            -10.3538296295       -0.9672471127       -8.8650130134  W2        2259            0.0000000000
      6778      2260  TIP3      OH2            -5.7750296295       -2.3757371127       -8.1490930134  W2        2260            0.0000000000
      6779      2260  TIP3      H1             -5.1712696295       -1.8281971127       -8.6509930134  W2        2260            0.0000000000
      6780      2260  TIP3      H2             -6.6448296295       -2.0566971127       -8.3896830134  W2        2260            0.0000000000
      6781      2261  TIP3      OH2            -4.0479896295       -1.2368671127       -9.8160030134  W2        2261            0.0000000000
      6782      2261  TIP3      H1             -3.4362396295       -1.7512971127      -10.3426430134  W2        2261            0.0000000000
      6783      2261  TIP3      H2             -3.6656496295       -0.3596571127       -9.7925630134  W2        2261            0.0000000000
      6784      2262  TIP3      OH2           -18.5909996295       -1.8491071127      -10.4398130134  W2        2262            0.0000000000
      6785      2262  TIP3      H1            -19.3680196295       -2.0836171127      -10.9472230134  W2        2262            0.0000000000
      6786      2262  TIP3      H2            -18.0606396295       -2.6458971127      -10.4310130134  W2        2262            0.0000000000
      6787      2263  TIP3      OH2           -19.7546596295       -2.0512971127      -14.6362030134  W2        2263            0.0000000000
      6788      2263  TIP3      H1            -19.3155896295       -1.4402471127      -15.2278530134  W2        2263            0.0000000000
      6789      2263  TIP3      H2            -20.3884196295       -1.5128871127      -14.1622030134  W2        2263            0.0000000000
      6790      2264  TIP3      OH2           -14.0117396295       -1.9223971127      -10.6265030134  W2        2264            0.0000000000
      6791      2264  TIP3      H1            -13.1373996295       -1.5339671127      -10.6560730134  W2        2264            0.0000000000
      6792      2264  TIP3      H2            -14.1476596295       -2.1376171127       -9.7037830134  W2        2264            0.0000000000
      6793      2265  TIP3      OH2            -8.4548996295       -1.8924171127       -8.9773330134  W2        2265            0.0000000000
      6794      2265  TIP3      H1             -8.3787396295       -1.7972571127       -9.9267330134  W2        2265            0.0000000000
      6795      2265  TIP3      H2             -8.7299796295       -2.8001271127       -8.8484230134  W2        2265            0.0000000000
      6796      2266  TIP3      OH2            -7.1016396295       -1.8666371127      -13.2848330134  W2        2266            0.0000000000
      6797      2266  TIP3      H1             -7.8045296295       -1.2517171127      -13.4946930134  W2        2266            0.0000000000
      6798      2266  TIP3      H2             -7.5464996295       -2.7039671127      -13.1537430134  W2        2266            0.0000000000
      6799      2267  TIP3      OH2           -19.8537096295       13.8969228873      -13.7386930134  W2        2267            0.0000000000
      6800      2267  TIP3      H1            -20.5387196295       13.8588128873      -14.4061830134  W2        2267            0.0000000000
      6801      2267  TIP3      H2            -19.8499896295       14.8096828873      -13.4504830134  W2        2267            0.0000000000
      6802      2268  TIP3      OH2           -17.8937496295       -0.1351471127      -16.1937930134  W2        2268            0.0000000000
      6803      2268  TIP3      H1            -17.4024096295       -0.7649071127      -16.7212430134  W2        2268            0.0000000000
      6804      2268  TIP3      H2            -17.2701196295        0.1607928873      -15.5306730134  W2        2268            0.0000000000
      6805      2269  TIP3      OH2           -12.8677396295        0.1580028873      -13.7367430134  W2        2269            0.0000000000
      6806      2269  TIP3      H1            -12.6896096295       -0.4886771127      -13.0538830134  W2        2269            0.0000000000
      6807      2269  TIP3      H2            -12.9211196295        0.9917728873      -13.2696330134  W2        2269            0.0000000000
      6808      2270  TIP3      OH2           -10.9893596295       15.1064128873      -15.3410730134  W2        2270            0.0000000000
      6809      2270  TIP3      H1            -10.1233396295       15.4731528873      -15.5192530134  W2        2270            0.0000000000
      6810      2270  TIP3      H2            -11.2360796295       14.6672128873      -16.1549930134  W2        2270            0.0000000000
      6811      2271  TIP3      OH2            -4.2803996295       14.6694428873      -12.6619630134  W2        2271            0.0000000000
      6812      2271  TIP3      H1             -4.4746896295       13.9216528873      -13.2270030134  W2        2271            0.0000000000
      6813      2271  TIP3      H2             -4.3193896295       15.4274528873      -13.2451730134  W2        2271            0.0000000000
      6814      2272  TIP3      OH2           -18.6331996295       -1.3349171127       -0.9221930134  W2        2272            0.0000000000
      6815      2272  TIP3      H1            -18.9993796295       -2.1006571127       -0.4797230134  W2        2272            0.0000000000
      6816      2272  TIP3      H2            -17.7203496295       -1.3058971127       -0.6356830134  W2        2272            0.0000000000
      6817      2273  TIP3      OH2           -16.6601196295       -1.9844771127        0.6135169866  W2        2273            0.0000000000
      6818      2273  TIP3      H1            -15.7617596295       -2.2584571127        0.4288569866  W2        2273            0.0000000000
      6819      2273  TIP3      H2            -17.0468096295       -2.7268771127        1.0777769866  W2        2273            0.0000000000
      6820      2274  TIP3      OH2           -18.0355896295       14.8170028873      -16.7134830134  W2        2274            0.0000000000
      6821      2274  TIP3      H1            -18.3031296295       15.1032928873      -15.8401730134  W2        2274            0.0000000000
      6822      2274  TIP3      H2            -17.2643296295       14.2709228873      -16.5612330134  W2        2274            0.0000000000
      6823      2275  TIP3      OH2            -8.2388896295       -2.6519471127        0.7957969866  W2        2275            0.0000000000
      6824      2275  TIP3      H1             -8.1621696295       -3.0778771127        1.6495669866  W2        2275            0.0000000000
      6825      2275  TIP3      H2             -7.3452296295       -2.6384771127        0.4531469866  W2        2275            0.0000000000
      6826      2276  TIP3      OH2            -5.0627796295       13.4206828873       -0.5117830134  W2        2276            0.0000000000
      6827      2276  TIP3      H1             -5.8445896295       13.2344828873       -1.0317230134  W2        2276            0.0000000000
      6828      2276  TIP3      H2             -5.1347896295       14.3501128873       -0.2945330134  W2        2276            0.0000000000
      6829      2277  TIP3      OH2             9.3432603705        7.3071228873      -10.4810630134  W2        2277            0.0000000000
      6830      2277  TIP3      H1              9.4323703705        8.2509428873      -10.6133530134  W2        2277            0.0000000000
      6831      2277  TIP3      H2              8.7050203705        7.0317628873      -11.1391230134  W2        2277            0.0000000000
      6832      2278  TIP3      OH2             8.2763903705        6.5621928873       -7.0622430134  W2        2278            0.0000000000
      6833      2278  TIP3      H1              8.2381403705        5.9158228873       -6.3572830134  W2        2278            0.0000000000
      6834      2278  TIP3      H2              7.9540403705        6.0956328873       -7.8333730134  W2        2278            0.0000000000
      6835      2279  TIP3      OH2             0.6448903705        6.1764028873       -5.4692530134  W2        2279            0.0000000000
      6836      2279  TIP3      H1              0.6861003705        5.5507328873       -4.7460130134  W2        2279            0.0000000000
      6837      2279  TIP3      H2              1.3476603705        6.8002628873       -5.2872130134  W2        2279            0.0000000000
      6838      2280  TIP3      OH2            11.9824103705        9.5012328873       -8.7607330134  W2        2280            0.0000000000
      6839      2280  TIP3      H1             11.5416803705        8.7808328873       -8.3101730134  W2        2280            0.0000000000
      6840      2280  TIP3      H2             11.9693803705       10.2219528873       -8.1309630134  W2        2280            0.0000000000
      6841      2281  TIP3      OH2             1.5682003705       10.6262928873       -6.9343430134  W2        2281            0.0000000000
      6842      2281  TIP3      H1              1.1987203705        9.8243428873       -7.3039130134  W2        2281            0.0000000000
      6843      2281  TIP3      H2              2.5093103705       10.4577828873       -6.8880030134  W2        2281            0.0000000000
      6844      2282  TIP3      OH2            -1.8217496295        4.2865528873      -11.5414630134  W2        2282            0.0000000000
      6845      2282  TIP3      H1             -2.2694096295        5.1324228873      -11.5598130134  W2        2282            0.0000000000
      6846      2282  TIP3      H2             -2.3826296295        3.7069728873      -12.0569530134  W2        2282            0.0000000000
      6847      2283  TIP3      OH2            -1.1111396295        6.4485128873       -9.4156630134  W2        2283            0.0000000000
      6848      2283  TIP3      H1             -0.8977896295        5.6786728873       -8.8883630134  W2        2283            0.0000000000
      6849      2283  TIP3      H2             -0.3733796295        6.5381828873      -10.0189030134  W2        2283            0.0000000000
      6850      2284  TIP3      OH2             9.0939603705       14.6054028873       -8.5486930134  W2        2284            0.0000000000
      6851      2284  TIP3      H1              9.7136003705       13.9288728873       -8.8217730134  W2        2284            0.0000000000
      6852      2284  TIP3      H2              8.8857003705       14.3874828873       -7.6402030134  W2        2284            0.0000000000
      6853      2285  TIP3      OH2             6.6658303705        8.9943328873       -6.6561430134  W2        2285            0.0000000000
      6854      2285  TIP3      H1              6.9696203705        8.3084728873       -7.2507330134  W2        2285            0.0000000000
      6855      2285  TIP3      H2              7.3872303705        9.1132028873       -6.0383430134  W2        2285            0.0000000000
      6856      2286  TIP3      OH2            15.3288103705        0.5958628873       -5.7955230134  W2        2286            0.0000000000
      6857      2286  TIP3      H1             15.3780303705        1.2059828873       -5.0596130134  W2        2286            0.0000000000
      6858      2286  TIP3      H2             15.7543203705        1.0569528873       -6.5184130134  W2        2286            0.0000000000
      6859      2287  TIP3      OH2             9.8065303705        3.3885728873       -6.3286630134  W2        2287            0.0000000000
      6860      2287  TIP3      H1              9.9491203705        2.4422728873       -6.3085030134  W2        2287            0.0000000000
      6861      2287  TIP3      H2              9.7004303705        3.5955528873       -7.2571730134  W2        2287            0.0000000000
      6862      2288  TIP3      OH2             2.9613603705        1.4902128873       -9.0561830134  W2        2288            0.0000000000
      6863      2288  TIP3      H1              3.0044703705        2.3500628873       -9.4745530134  W2        2288            0.0000000000
      6864      2288  TIP3      H2              2.5037703705        0.9376828873       -9.6898630134  W2        2288            0.0000000000
      6865      2289  TIP3      OH2            10.6836303705        1.6207728873      -10.6553530134  W2        2289            0.0000000000
      6866      2289  TIP3      H1             11.3300603705        1.2920928873      -10.0305930134  W2        2289            0.0000000000
      6867      2289  TIP3      H2             11.1935703705        2.1386728873      -11.2782130134  W2        2289            0.0000000000
      6868      2290  TIP3      OH2            -0.4184896295        3.8867928873       -8.2940430134  W2        2290            0.0000000000
      6869      2290  TIP3      H1              0.2351703705        3.3369628873       -7.8620330134  W2        2290            0.0000000000
      6870      2290  TIP3      H2             -0.3945596295        3.6126928873       -9.2108430134  W2        2290            0.0000000000
      6871      2291  TIP3      OH2             4.7379603705        5.4369228873       -9.0788930134  W2        2291            0.0000000000
      6872      2291  TIP3      H1              5.3540603705        4.9104628873       -8.5694930134  W2        2291            0.0000000000
      6873      2291  TIP3      H2              4.1518403705        4.7967928873       -9.4825330134  W2        2291            0.0000000000
      6874      2292  TIP3      OH2            15.7202703705        2.0737828873       -3.5595430134  W2        2292            0.0000000000
      6875      2292  TIP3      H1             15.0317303705        2.7318528873       -3.6548830134  W2        2292            0.0000000000
      6876      2292  TIP3      H2             15.7357303705        1.8765728873       -2.6230030134  W2        2292            0.0000000000
      6877      2293  TIP3      OH2             1.7715503705        0.4080528873       -4.9821030134  W2        2293            0.0000000000
      6878      2293  TIP3      H1              1.5527203705        0.9381128873       -5.7485030134  W2        2293            0.0000000000
      6879      2293  TIP3      H2              1.1036403705        0.6346028873       -4.3349630134  W2        2293            0.0000000000
      6880      2294  TIP3      OH2             9.1405303705        9.9081628873      -11.4381930134  W2        2294            0.0000000000
      6881      2294  TIP3      H1              8.8450403705        9.5853928873      -12.2895030134  W2        2294            0.0000000000
      6882      2294  TIP3      H2              8.8163103705       10.8078328873      -11.3969330134  W2        2294            0.0000000000
      6883      2295  TIP3      OH2             4.3406903705        8.0836228873       -4.6947330134  W2        2295            0.0000000000
      6884      2295  TIP3      H1              3.6006003705        8.6817728873       -4.5912130134  W2        2295            0.0000000000
      6885      2295  TIP3      H2              5.0546403705        8.6375828873       -5.0103730134  W2        2295            0.0000000000
      6886      2296  TIP3      OH2            12.4474703705        0.9117028873       -8.6747630134  W2        2296            0.0000000000
      6887      2296  TIP3      H1             12.2322703705        0.1460428873       -8.1421630134  W2        2296            0.0000000000
      6888      2296  TIP3      H2             13.1032103705        1.3841628873       -8.1619130134  W2        2296            0.0000000000
      6889      2297  TIP3      OH2             1.3652803705        2.3002328873       -7.0298830134  W2        2297            0.0000000000
      6890      2297  TIP3      H1              1.9789103705        2.9329928873       -6.6566430134  W2        2297            0.0000000000
      6891      2297  TIP3      H2              1.8773503705        1.8277328873       -7.6861930134  W2        2297            0.0000000000
      6892      2298  TIP3      OH2             2.7481203705       10.0479228873       -3.9075830134  W2        2298            0.0000000000
      6893      2298  TIP3      H1              2.7428803705       10.9272728873       -4.2856530134  W2        2298            0.0000000000
      6894      2298  TIP3      H2              1.8945303705        9.9643328873       -3.4825930134  W2        2298            0.0000000000
      6895      2299  TIP3      OH2            -1.1307896295        9.7187128873      -13.1256530134  W2        2299            0.0000000000
      6896      2299  TIP3      H1             -1.4026996295        9.9478128873      -14.0143630134  W2        2299            0.0000000000
      6897      2299  TIP3      H2             -1.0852196295       10.5565928873      -12.6651230134  W2        2299            0.0000000000
      6898      2300  TIP3      OH2            12.4941803705       11.3403028873       -6.4128030134  W2        2300            0.0000000000
      6899      2300  TIP3      H1             11.5525503705       11.3986928873       -6.2511130134  W2        2300            0.0000000000
      6900      2300  TIP3      H2             12.7707903705       12.2463528873       -6.5498330134  W2        2300            0.0000000000
      6901      2301  TIP3      OH2            12.7948803705       -0.3731671127       -4.9954130134  W2        2301            0.0000000000
      6902      2301  TIP3      H1             12.0588003705        0.2375428873       -5.0332830134  W2        2301            0.0000000000
      6903      2301  TIP3      H2             13.4782803705        0.0417328873       -5.5217730134  W2        2301            0.0000000000
      6904      2302  TIP3      OH2             5.7980203705       -2.2864371127       -7.5296130134  W2        2302            0.0000000000
      6905      2302  TIP3      H1              5.6804403705       -3.2348371127       -7.5837830134  W2        2302            0.0000000000
      6906      2302  TIP3      H2              4.9430303705       -1.9538271127       -7.2565030134  W2        2302            0.0000000000
      6907      2303  TIP3      OH2            10.7463003705       13.1216528873       -9.7876430134  W2        2303            0.0000000000
      6908      2303  TIP3      H1             11.1715303705       12.4144428873      -10.2726830134  W2        2303            0.0000000000
      6909      2303  TIP3      H2             11.0633003705       13.9229228873      -10.2044230134  W2        2303            0.0000000000
      6910      2304  TIP3      OH2            11.9059503705       11.0225028873      -11.2789830134  W2        2304            0.0000000000
      6911      2304  TIP3      H1             11.6484303705       10.3325128873      -11.8903930134  W2        2304            0.0000000000
      6912      2304  TIP3      H2             11.9770303705       10.5796228873      -10.4333930134  W2        2304            0.0000000000
      6913      2305  TIP3      OH2            13.5919703705        9.5891728873       -2.8016330134  W2        2305            0.0000000000
      6914      2305  TIP3      H1             13.7316003705        8.9974228873       -3.5409330134  W2        2305            0.0000000000
      6915      2305  TIP3      H2             13.7592503705       10.4617628873       -3.1577530134  W2        2305            0.0000000000
      6916      2306  TIP3      OH2             8.0645103705        6.5511228873      -13.0290330134  W2        2306            0.0000000000
      6917      2306  TIP3      H1              7.3530603705        7.0860928873      -13.3809830134  W2        2306            0.0000000000
      6918      2306  TIP3      H2              8.7554703705        6.6063328873      -13.6891430134  W2        2306            0.0000000000
      6919      2307  TIP3      OH2             8.1184303705        5.0085528873      -15.9905330134  W2        2307            0.0000000000
      6920      2307  TIP3      H1              8.8194203705        5.0312428873      -15.3391330134  W2        2307            0.0000000000
      6921      2307  TIP3      H2              8.4207203705        4.3805228873      -16.6466030134  W2        2307            0.0000000000
      6922      2308  TIP3      OH2            15.4339003705        5.9289728873       -4.7355930134  W2        2308            0.0000000000
      6923      2308  TIP3      H1             14.7813103705        6.6235328873       -4.6465030134  W2        2308            0.0000000000
      6924      2308  TIP3      H2             15.8989303705        6.1390628873       -5.5454330134  W2        2308            0.0000000000
      6925      2309  TIP3      OH2            11.4702803705        6.7604528873      -12.0774430134  W2        2309            0.0000000000
      6926      2309  TIP3      H1             10.7383803705        6.9888228873      -11.5043830134  W2        2309            0.0000000000
      6927      2309  TIP3      H2             11.9175003705        6.0467228873      -11.6226930134  W2        2309            0.0000000000
      6928      2310  TIP3      OH2            11.3676303705        4.9347128873       -3.0097430134  W2        2310            0.0000000000
      6929      2310  TIP3      H1             11.4475403705        5.6981528873       -2.4378930134  W2        2310            0.0000000000
      6930      2310  TIP3      H2             10.7664003705        5.2139528873       -3.7002330134  W2        2310            0.0000000000
      6931      2311  TIP3      OH2             3.1156503705        7.3910728873      -10.1949430134  W2        2311            0.0000000000
      6932      2311  TIP3      H1              2.7851703705        7.0204128873      -11.0132430134  W2        2311            0.0000000000
      6933      2311  TIP3      H2              3.7040603705        6.7204728873       -9.8481130134  W2        2311            0.0000000000
      6934      2312  TIP3      OH2             4.4824003705       10.8191328873       -7.5137230134  W2        2312            0.0000000000
      6935      2312  TIP3      H1              4.3875303705       10.2404428873       -8.2702630134  W2        2312            0.0000000000
      6936      2312  TIP3      H2              5.2117603705       10.4477028873       -7.0174430134  W2        2312            0.0000000000
      6937      2313  TIP3      OH2             3.4822003705        6.1596328873       -6.5614430134  W2        2313            0.0000000000
      6938      2313  TIP3      H1              4.0474503705        6.2810528873       -7.3243230134  W2        2313            0.0000000000
      6939      2313  TIP3      H2              3.8010903705        6.7971328873       -5.9225930134  W2        2313            0.0000000000
      6940      2314  TIP3      OH2             9.7914203705       11.6628228873       -5.8273930134  W2        2314            0.0000000000
      6941      2314  TIP3      H1              9.5510803705       12.3251328873       -5.1794730134  W2        2314            0.0000000000
      6942      2314  TIP3      H2              9.5932403705       10.8283428873       -5.4024330134  W2        2314            0.0000000000
      6943      2315  TIP3      OH2             4.3622703705       10.5589028873       -1.8442530134  W2        2315            0.0000000000
      6944      2315  TIP3      H1              4.0510203705       11.3412228873       -1.3889330134  W2        2315            0.0000000000
      6945      2315  TIP3      H2              3.7122903705       10.4058128873       -2.5300530134  W2        2315            0.0000000000
      6946      2316  TIP3      OH2            10.3412303705        5.9227428873      -14.3923230134  W2        2316            0.0000000000
      6947      2316  TIP3      H1             10.9207803705        6.0727728873      -13.6454330134  W2        2316            0.0000000000
      6948      2316  TIP3      H2             10.7552303705        6.3934828873      -15.1156830134  W2        2316            0.0000000000
      6949      2317  TIP3      OH2             1.2822603705        6.7570128873       -2.6156830134  W2        2317            0.0000000000
      6950      2317  TIP3      H1              1.3525803705        7.4076928873       -1.9171830134  W2        2317            0.0000000000
      6951      2317  TIP3      H2              0.3914803705        6.8597628873       -2.9505930134  W2        2317            0.0000000000
      6952      2318  TIP3      OH2             8.0677203705       12.6595928873      -10.9570130134  W2        2318            0.0000000000
      6953      2318  TIP3      H1              8.5414803705       12.9552228873      -10.1795930134  W2        2318            0.0000000000
      6954      2318  TIP3      H2              7.5046503705       13.3977528873      -11.1900530134  W2        2318            0.0000000000
      6955      2319  TIP3      OH2             2.6018603705       12.6304028873       -1.0808730134  W2        2319            0.0000000000
      6956      2319  TIP3      H1              2.6093903705       12.4943728873       -2.0283230134  W2        2319            0.0000000000
      6957      2319  TIP3      H2              1.6859003705       12.5132128873       -0.8288730134  W2        2319            0.0000000000
      6958      2320  TIP3      OH2            14.0400703705       -2.3272171127      -14.5793530134  W2        2320            0.0000000000
      6959      2320  TIP3      H1             13.1401403705       -2.1883171127      -14.2842930134  W2        2320            0.0000000000
      6960      2320  TIP3      H2             14.2919103705       -1.4957571127      -14.9811830134  W2        2320            0.0000000000
      6961      2321  TIP3      OH2             2.1059203705        6.4605028873      -12.6056630134  W2        2321            0.0000000000
      6962      2321  TIP3      H1              1.8140503705        7.2286728873      -13.0965330134  W2        2321            0.0000000000
      6963      2321  TIP3      H2              1.4314403705        5.8011228873      -12.7685230134  W2        2321            0.0000000000
      6964      2322  TIP3      OH2            15.2292103705       12.0390228873      -16.2029630134  W2        2322            0.0000000000
      6965      2322  TIP3      H1             15.3025603705       12.9780428873      -16.0324330134  W2        2322            0.0000000000
      6966      2322  TIP3      H2             16.1347203705       11.7338828873      -16.2592330134  W2        2322            0.0000000000
      6967      2323  TIP3      OH2            -1.8010696295        8.8234228873       -3.7906830134  W2        2323            0.0000000000
      6968      2323  TIP3      H1             -2.3022296295        8.7953628873       -4.6057130134  W2        2323            0.0000000000
      6969      2323  TIP3      H2             -1.7956996295        7.9177428873       -3.4809530134  W2        2323            0.0000000000
      6970      2324  TIP3      OH2            -2.0507996295       11.6038028873       -6.9066630134  W2        2324            0.0000000000
      6971      2324  TIP3      H1             -1.1047396295       11.4595028873       -6.9257130134  W2        2324            0.0000000000
      6972      2324  TIP3      H2             -2.1631696295       12.3880828873       -6.3695430134  W2        2324            0.0000000000
      6973      2325  TIP3      OH2            16.1470503705       12.2697728873       -1.2242930134  W2        2325            0.0000000000
      6974      2325  TIP3      H1             16.0977303705       11.3145828873       -1.2615330134  W2        2325            0.0000000000
      6975      2325  TIP3      H2             15.3202803705       12.5373028873       -0.8229130134  W2        2325            0.0000000000
      6976      2326  TIP3      OH2             7.1254503705       11.8436928873       -2.3481530134  W2        2326            0.0000000000
      6977      2326  TIP3      H1              7.2129103705       12.6701528873       -1.8732430134  W2        2326            0.0000000000
      6978      2326  TIP3      H2              6.2619603705       11.5140728873       -2.0992230134  W2        2326            0.0000000000
      6979      2327  TIP3      OH2             7.5400303705       15.6160628873      -12.5420930134  W2        2327            0.0000000000
      6980      2327  TIP3      H1              7.4646303705       15.4947828873      -13.4885730134  W2        2327            0.0000000000
      6981      2327  TIP3      H2              7.5729003705       16.5653328873      -12.4236330134  W2        2327            0.0000000000
      6982      2328  TIP3      OH2             1.1934103705       14.4047628873      -10.7611930134  W2        2328            0.0000000000
      6983      2328  TIP3      H1              1.3454503705       14.0568028873       -9.8825430134  W2        2328            0.0000000000
      6984      2328  TIP3      H2              0.3424503705       14.0484928873      -11.0164730134  W2        2328            0.0000000000
      6985      2329  TIP3      OH2            10.6416303705       14.7700828873      -15.5398530134  W2        2329            0.0000000000
      6986      2329  TIP3      H1             11.0164703705       14.0256928873      -16.0105930134  W2        2329            0.0000000000
      6987      2329  TIP3      H2             10.6460003705       14.5001428873      -14.6215230134  W2        2329            0.0000000000
      6988      2330  TIP3      OH2            10.3104403705       14.6957928873      -12.7906330134  W2        2330            0.0000000000
      6989      2330  TIP3      H1              9.3754203705       14.7959828873      -12.6119330134  W2        2330            0.0000000000
      6990      2330  TIP3      H2             10.5906303705       13.9863928873      -12.2123130134  W2        2330            0.0000000000
      6991      2331  TIP3      OH2            13.2990303705        3.7630228873       -0.7440730134  W2        2331            0.0000000000
      6992      2331  TIP3      H1             12.8917103705        4.2435828873       -1.4647430134  W2        2331            0.0000000000
      6993      2331  TIP3      H2             13.3396003705        2.8576228873       -1.0519930134  W2        2331            0.0000000000
      6994      2332  TIP3      OH2             0.4479803705       10.1469628873       -2.7474030134  W2        2332            0.0000000000
      6995      2332  TIP3      H1              0.6641103705        9.7855228873       -1.8878230134  W2        2332            0.0000000000
      6996      2332  TIP3      H2             -0.4075496295        9.7723428873       -2.9570530134  W2        2332            0.0000000000
      6997      2333  TIP3      OH2             3.0667803705       -1.3829871127       -6.7519830134  W2        2333            0.0000000000
      6998      2333  TIP3      H1              2.2051503705       -1.4701671127       -7.1596930134  W2        2333            0.0000000000
      6999      2333  TIP3      H2              3.0443503705       -0.5269771127       -6.3242230134  W2        2333            0.0000000000
      7000      2334  TIP3      OH2             7.7295603705       -1.6609471127       -3.3772830134  W2        2334            0.0000000000
      7001      2334  TIP3      H1              8.1498703705       -2.0762371127       -2.6242230134  W2        2334            0.0000000000
      7002      2334  TIP3      H2              6.7965203705       -1.8396171127       -3.2600830134  W2        2334            0.0000000000
      7003      2335  TIP3      OH2            11.0560503705        2.0945728873       -2.5238330134  W2        2335            0.0000000000
      7004      2335  TIP3      H1             10.5420003705        1.9687928873       -1.7262330134  W2        2335            0.0000000000
      7005      2335  TIP3      H2             10.9005203705        3.0068828873       -2.7682130134  W2        2335            0.0000000000
      7006      2336  TIP3      OH2            11.8185403705        6.9555728873      -16.7625330134  W2        2336            0.0000000000
      7007      2336  TIP3      H1             11.8606203705        6.7329628873      -17.6925330134  W2        2336            0.0000000000
      7008      2336  TIP3      H2             12.6677503705        7.3542828873      -16.5725430134  W2        2336            0.0000000000
      7009      2337  TIP3      OH2             7.3912903705        0.8313928873      -16.0922030134  W2        2337            0.0000000000
      7010      2337  TIP3      H1              7.1377703705        0.8505528873      -15.1693930134  W2        2337            0.0000000000
      7011      2337  TIP3      H2              7.1345003705       -0.0400671127      -16.3935830134  W2        2337            0.0000000000
      7012      2338  TIP3      OH2             3.1577903705        3.5824628873       -5.6569630134  W2        2338            0.0000000000
      7013      2338  TIP3      H1              2.5160003705        3.5421928873       -4.9479530134  W2        2338            0.0000000000
      7014      2338  TIP3      H2              3.1949903705        4.5089328873       -5.8946630134  W2        2338            0.0000000000
      7015      2339  TIP3      OH2             3.1547003705        3.8034728873      -10.7449630134  W2        2339            0.0000000000
      7016      2339  TIP3      H1              2.2619903705        3.4630828873      -10.8035830134  W2        2339            0.0000000000
      7017      2339  TIP3      H2              3.6053603705        3.4265628873      -11.5006430134  W2        2339            0.0000000000
      7018      2340  TIP3      OH2             8.6902503705        4.2195028873      -11.9278830134  W2        2340            0.0000000000
      7019      2340  TIP3      H1              8.2812803705        5.0343628873      -12.2194030134  W2        2340            0.0000000000
      7020      2340  TIP3      H2              9.4108703705        4.0795128873      -12.5421730134  W2        2340            0.0000000000
      7021      2341  TIP3      OH2             7.7924103705        4.3951428873       -0.4398130134  W2        2341            0.0000000000
      7022      2341  TIP3      H1              7.2297903705        3.6903028873       -0.1190330134  W2        2341            0.0000000000
      7023      2341  TIP3      H2              8.6187503705        4.2743328873        0.0279469866  W2        2341            0.0000000000
      7024      2342  TIP3      OH2             9.6950203705        3.6655428873       -9.1139130134  W2        2342            0.0000000000
      7025      2342  TIP3      H1              9.4994703705        4.2712228873       -9.8288530134  W2        2342            0.0000000000
      7026      2342  TIP3      H2              9.8762803705        2.8320628873       -9.5482830134  W2        2342            0.0000000000
      7027      2343  TIP3      OH2             0.9078403705        3.9028128873       -3.7897630134  W2        2343            0.0000000000
      7028      2343  TIP3      H1              0.8697803705        4.3029728873       -2.9210530134  W2        2343            0.0000000000
      7029      2343  TIP3      H2              0.4169503705        3.0860528873       -3.6994730134  W2        2343            0.0000000000
      7030      2344  TIP3      OH2             4.2735803705        1.2770428873      -16.9911630134  W2        2344            0.0000000000
      7031      2344  TIP3      H1              3.8426503705        0.8320528873      -16.2614230134  W2        2344            0.0000000000
      7032      2344  TIP3      H2              3.5554503705        1.6486728873      -17.5034130134  W2        2344            0.0000000000
      7033      2345  TIP3      OH2            -2.4840796295        1.0189928873       -9.9392930134  W2        2345            0.0000000000
      7034      2345  TIP3      H1             -1.8533096295        0.9902028873       -9.2199030134  W2        2345            0.0000000000
      7035      2345  TIP3      H2             -2.0346496295        0.5938628873      -10.6697030134  W2        2345            0.0000000000
      7036      2346  TIP3      OH2            -1.2098696295        1.7651928873      -14.5152530134  W2        2346            0.0000000000
      7037      2346  TIP3      H1             -0.7356996295        2.3561828873      -15.1001630134  W2        2346            0.0000000000
      7038      2346  TIP3      H2             -1.9272296295        2.2954828873      -14.1682430134  W2        2346            0.0000000000
      7039      2347  TIP3      OH2             8.9589403705        5.3036728873       -4.4426730134  W2        2347            0.0000000000
      7040      2347  TIP3      H1              9.2824203705        4.6726428873       -5.0856230134  W2        2347            0.0000000000
      7041      2347  TIP3      H2              8.5188703705        4.7688928873       -3.7819330134  W2        2347            0.0000000000
      7042      2348  TIP3      OH2             5.7362303705        1.2312228873       -9.6585530134  W2        2348            0.0000000000
      7043      2348  TIP3      H1              4.8253403705        1.2879028873       -9.3699530134  W2        2348            0.0000000000
      7044      2348  TIP3      H2              6.2415203705        1.1707728873       -8.8478330134  W2        2348            0.0000000000
      7045      2349  TIP3      OH2             0.5645703705        2.8598528873      -10.8317930134  W2        2349            0.0000000000
      7046      2349  TIP3      H1             -0.3246296295        2.9594028873      -11.1718330134  W2        2349            0.0000000000
      7047      2349  TIP3      H2              0.8610603705        2.0181528873      -11.1780030134  W2        2349            0.0000000000
      7048      2350  TIP3      OH2             4.2177503705        2.8601128873      -13.1753330134  W2        2350            0.0000000000
      7049      2350  TIP3      H1              5.1493003705        2.9891128873      -12.9970230134  W2        2350            0.0000000000
      7050      2350  TIP3      H2              4.0027803705        3.5295428873      -13.8248630134  W2        2350            0.0000000000
      7051      2351  TIP3      OH2            10.1414203705        0.4658528873       -6.3943730134  W2        2351            0.0000000000
      7052      2351  TIP3      H1              9.4645803705        0.5971628873       -5.7304030134  W2        2351            0.0000000000
      7053      2351  TIP3      H2              9.6559103705        0.3108028873       -7.2046030134  W2        2351            0.0000000000
      7054      2352  TIP3      OH2             2.8917703705        4.0543328873      -15.6087230134  W2        2352            0.0000000000
      7055      2352  TIP3      H1              2.3492803705        3.6747128873      -16.2999630134  W2        2352            0.0000000000
      7056      2352  TIP3      H2              3.7252603705        4.2488028873      -16.0373130134  W2        2352            0.0000000000
      7057      2353  TIP3      OH2            13.4289303705       16.1373928873       -0.1176130134  W2        2353            0.0000000000
      7058      2353  TIP3      H1             13.6288003705       16.5615828873       -0.9520830134  W2        2353            0.0000000000
      7059      2353  TIP3      H2             14.0843003705       16.4812128873        0.4894269866  W2        2353            0.0000000000
      7060      2354  TIP3      OH2             1.0269103705        8.6115228873       -0.5095630134  W2        2354            0.0000000000
      7061      2354  TIP3      H1              1.7591503705        8.8661128873        0.0518869866  W2        2354            0.0000000000
      7062      2354  TIP3      H2              0.2467803705        8.8160628873        0.0059769866  W2        2354            0.0000000000
      7063      2355  TIP3      OH2             7.0562003705        4.0185228873       -7.7715930134  W2        2355            0.0000000000
      7064      2355  TIP3      H1              7.6205403705        3.4721828873       -8.3186330134  W2        2355            0.0000000000
      7065      2355  TIP3      H2              6.9085403705        3.4967128873       -6.9828330134  W2        2355            0.0000000000
      7066      2356  TIP3      OH2             2.0581703705        0.1551328873      -11.3531130134  W2        2356            0.0000000000
      7067      2356  TIP3      H1              1.7411203705       -0.7473371127      -11.3885730134  W2        2356            0.0000000000
      7068      2356  TIP3      H2              2.8395803705        0.1568728873      -11.9059530134  W2        2356            0.0000000000
      7069      2357  TIP3      OH2             5.6827903705        2.4071328873       -5.3575530134  W2        2357            0.0000000000
      7070      2357  TIP3      H1              4.8473203705        2.8610828873       -5.2473130134  W2        2357            0.0000000000
      7071      2357  TIP3      H2              6.2068503705        2.6829828873       -4.6055630134  W2        2357            0.0000000000
      7072      2358  TIP3      OH2             6.2270503705        8.6199028873      -13.6729130134  W2        2358            0.0000000000
      7073      2358  TIP3      H1              5.4821503705        8.1124328873      -13.9951230134  W2        2358            0.0000000000
      7074      2358  TIP3      H2              6.0927703705        8.6687028873      -12.7264330134  W2        2358            0.0000000000
      7075      2359  TIP3      OH2            13.3769403705        7.7527228873       -4.8861530134  W2        2359            0.0000000000
      7076      2359  TIP3      H1             14.0188203705        8.2093528873       -5.4299330134  W2        2359            0.0000000000
      7077      2359  TIP3      H2             12.5466303705        7.8659628873       -5.3487430134  W2        2359            0.0000000000
      7078      2360  TIP3      OH2            10.1247303705        1.4338928873      -15.4736530134  W2        2360            0.0000000000
      7079      2360  TIP3      H1              9.1861503705        1.5454528873      -15.6247730134  W2        2360            0.0000000000
      7080      2360  TIP3      H2             10.4219403705        2.2905828873      -15.1670830134  W2        2360            0.0000000000
      7081      2361  TIP3      OH2             7.7462603705        8.8042328873       -2.4360030134  W2        2361            0.0000000000
      7082      2361  TIP3      H1              7.4008703705        8.4224728873       -1.6290430134  W2        2361            0.0000000000
      7083      2361  TIP3      H2              7.5462703705        9.7375928873       -2.3647130134  W2        2361            0.0000000000
      7084      2362  TIP3      OH2            10.8430803705        3.3011628873      -13.8129130134  W2        2362            0.0000000000
      7085      2362  TIP3      H1             11.7349803705        3.1636628873      -13.4937930134  W2        2362            0.0000000000
      7086      2362  TIP3      H2             10.8994403705        4.0917728873      -14.3495630134  W2        2362            0.0000000000
      7087      2363  TIP3      OH2             1.3518803705        7.9149028873       -7.9031230134  W2        2363            0.0000000000
      7088      2363  TIP3      H1              2.0966003705        7.9124728873       -8.5044730134  W2        2363            0.0000000000
      7089      2363  TIP3      H2              1.4295403705        7.0912828873       -7.4216130134  W2        2363            0.0000000000
      7090      2364  TIP3      OH2             8.3524603705       10.0783328873      -14.6474530134  W2        2364            0.0000000000
      7091      2364  TIP3      H1              8.0573003705       10.9051228873      -14.2659730134  W2        2364            0.0000000000
      7092      2364  TIP3      H2              7.6494603705        9.4590228873      -14.4513130134  W2        2364            0.0000000000
      7093      2365  TIP3      OH2            -1.6401496295        6.3755928873       -2.5882730134  W2        2365            0.0000000000
      7094      2365  TIP3      H1             -1.4172896295        5.9575528873       -1.7565230134  W2        2365            0.0000000000
      7095      2365  TIP3      H2             -2.2421396295        5.7630928873       -3.0109930134  W2        2365            0.0000000000
      7096      2366  TIP3      OH2             5.3763403705        5.8925828873       -0.3753030134  W2        2366            0.0000000000
      7097      2366  TIP3      H1              5.0804203705        5.7268828873       -1.2703930134  W2        2366            0.0000000000
      7098      2366  TIP3      H2              6.3078603705        5.6726128873       -0.3859130134  W2        2366            0.0000000000
      7099      2367  TIP3      OH2             9.9966203705       11.2657828873       -2.4855030134  W2        2367            0.0000000000
      7100      2367  TIP3      H1              9.0960503705       11.4490428873       -2.7531130134  W2        2367            0.0000000000
      7101      2367  TIP3      H2             10.0307303705       11.5247128873       -1.5646230134  W2        2367            0.0000000000
      7102      2368  TIP3      OH2            15.7279503705        3.5105728873      -14.1182430134  W2        2368            0.0000000000
      7103      2368  TIP3      H1             15.1735803705        3.1143728873      -14.7904930134  W2        2368            0.0000000000
      7104      2368  TIP3      H2             15.8283103705        4.4210928873      -14.3959130134  W2        2368            0.0000000000
      7105      2369  TIP3      OH2            15.6911503705        9.3107428873       -1.2810930134  W2        2369            0.0000000000
      7106      2369  TIP3      H1             14.8400003705        9.5491228873       -1.6484530134  W2        2369            0.0000000000
      7107      2369  TIP3      H2             16.2814903705        9.2940628873       -2.0343830134  W2        2369            0.0000000000
      7108      2370  TIP3      OH2            14.0231203705       12.2966128873      -13.6530330134  W2        2370            0.0000000000
      7109      2370  TIP3      H1             13.6502303705       11.4709928873      -13.3439730134  W2        2370            0.0000000000
      7110      2370  TIP3      H2             14.3004703705       12.1135528873      -14.5506930134  W2        2370            0.0000000000
      7111      2371  TIP3      OH2            11.1835103705        7.1045628873       -6.6318430134  W2        2371            0.0000000000
      7112      2371  TIP3      H1             10.2552003705        6.8727528873       -6.6589130134  W2        2371            0.0000000000
      7113      2371  TIP3      H2             11.6346203705        6.3275428873       -6.9619630134  W2        2371            0.0000000000
      7114      2372  TIP3      OH2             3.7268203705       11.4327228873      -10.4989730134  W2        2372            0.0000000000
      7115      2372  TIP3      H1              4.2540403705       12.2061628873      -10.6990930134  W2        2372            0.0000000000
      7116      2372  TIP3      H2              2.8466703705       11.6576428873      -10.8005730134  W2        2372            0.0000000000
      7117      2373  TIP3      OH2            -0.5184096295        6.2951328873      -15.9117330134  W2        2373            0.0000000000
      7118      2373  TIP3      H1              0.0975803705        6.9218528873      -15.5322530134  W2        2373            0.0000000000
      7119      2373  TIP3      H2             -1.3801496295        6.6111128873      -15.6400830134  W2        2373            0.0000000000
      7120      2374  TIP3      OH2             5.1540503705        9.0957128873      -10.9225430134  W2        2374            0.0000000000
      7121      2374  TIP3      H1              4.9130503705       10.0211528873      -10.8810130134  W2        2374            0.0000000000
      7122      2374  TIP3      H2              4.4134103705        8.6368428873      -10.5261530134  W2        2374            0.0000000000
      7123      2375  TIP3      OH2             5.6687103705       13.2450728873       -4.6074330134  W2        2375            0.0000000000
      7124      2375  TIP3      H1              6.0311803705       14.0996328873       -4.8409930134  W2        2375            0.0000000000
      7125      2375  TIP3      H2              6.2002303705       12.9532328873       -3.8668030134  W2        2375            0.0000000000
      7126      2376  TIP3      OH2             3.8371303705       14.1174728873      -11.3773230134  W2        2376            0.0000000000
      7127      2376  TIP3      H1              2.8871803705       14.2232128873      -11.3259930134  W2        2376            0.0000000000
      7128      2376  TIP3      H2              4.1889403705       14.9382128873      -11.0325730134  W2        2376            0.0000000000
      7129      2377  TIP3      OH2             9.2127903705        9.3441428873       -4.9068730134  W2        2377            0.0000000000
      7130      2377  TIP3      H1              8.7869203705        9.1163128873       -4.0804730134  W2        2377            0.0000000000
      7131      2377  TIP3      H2              9.7933703705        8.6053228873       -5.0893430134  W2        2377            0.0000000000
      7132      2378  TIP3      OH2            11.4156803705       10.2731928873      -15.8329730134  W2        2378            0.0000000000
      7133      2378  TIP3      H1             11.7689903705        9.8931728873      -15.0286230134  W2        2378            0.0000000000
      7134      2378  TIP3      H2             10.4670303705       10.1796728873      -15.7460430134  W2        2378            0.0000000000
      7135      2379  TIP3      OH2            11.8712103705       13.8960928873       -2.4373930134  W2        2379            0.0000000000
      7136      2379  TIP3      H1             11.2695303705       13.3403828873       -2.9327630134  W2        2379            0.0000000000
      7137      2379  TIP3      H2             12.1525803705       14.5630728873       -3.0636530134  W2        2379            0.0000000000
      7138      2380  TIP3      OH2            15.9191203705       14.7524428873      -15.6319530134  W2        2380            0.0000000000
      7139      2380  TIP3      H1             16.6629103705       15.3384928873      -15.7717930134  W2        2380            0.0000000000
      7140      2380  TIP3      H2             15.2249303705       15.3210228873      -15.2987130134  W2        2380            0.0000000000
      7141      2381  TIP3      OH2            -0.0061996295        1.1288628873       -3.0301330134  W2        2381            0.0000000000
      7142      2381  TIP3      H1             -0.8989696295        1.4674028873       -3.0977330134  W2        2381            0.0000000000
      7143      2381  TIP3      H2             -0.1049196295        0.2734728873       -2.6120530134  W2        2381            0.0000000000
      7144      2382  TIP3      OH2            12.2816103705        8.9453928873      -13.6061830134  W2        2382            0.0000000000
      7145      2382  TIP3      H1             12.0043703705        8.2173228873      -13.0500730134  W2        2382            0.0000000000
      7146      2382  TIP3      H2             13.2089103705        9.0645928873      -13.4009230134  W2        2382            0.0000000000
      7147      2383  TIP3      OH2            -0.3549996295       12.9333028873       -4.5951930134  W2        2383            0.0000000000
      7148      2383  TIP3      H1             -0.1379696295       12.0015428873       -4.6262230134  W2        2383            0.0000000000
      7149      2383  TIP3      H2             -0.1086496295       13.2078028873       -3.7119130134  W2        2383            0.0000000000
      7150      2384  TIP3      OH2             5.5064603705       11.3848028873      -17.3859730134  W2        2384            0.0000000000
      7151      2384  TIP3      H1              5.7454403705       10.6366128873      -17.9330830134  W2        2384            0.0000000000
      7152      2384  TIP3      H2              5.2375903705       10.9969728873      -16.5531930134  W2        2384            0.0000000000
      7153      2385  TIP3      OH2             4.4435203705       10.9551828873      -14.9297130134  W2        2385            0.0000000000
      7154      2385  TIP3      H1              4.5903203705       10.4351628873      -14.1396230134  W2        2385            0.0000000000
      7155      2385  TIP3      H2              4.4406903705       11.8619428873      -14.6231230134  W2        2385            0.0000000000
      7156      2386  TIP3      OH2             0.8966303705        8.2075128873      -14.4191730134  W2        2386            0.0000000000
      7157      2386  TIP3      H1              0.2105603705        8.5597628873      -13.8522030134  W2        2386            0.0000000000
      7158      2386  TIP3      H2              1.4194203705        8.9704728873      -14.6657430134  W2        2386            0.0000000000
      7159      2387  TIP3      OH2             8.7281403705        0.8698928873       -4.1402730134  W2        2387            0.0000000000
      7160      2387  TIP3      H1              9.4269303705        0.9437628873       -3.4903030134  W2        2387            0.0000000000
      7161      2387  TIP3      H2              8.3472803705        0.0053928873       -3.9859830134  W2        2387            0.0000000000
      7162      2388  TIP3      OH2             9.5126303705        0.5220628873      -13.0430430134  W2        2388            0.0000000000
      7163      2388  TIP3      H1              9.7324603705        0.9936028873      -13.8465030134  W2        2388            0.0000000000
      7164      2388  TIP3      H2             10.0710303705        0.9163228873      -12.3729830134  W2        2388            0.0000000000
      7165      2389  TIP3      OH2             7.1812403705       12.6525428873      -14.1802930134  W2        2389            0.0000000000
      7166      2389  TIP3      H1              6.3648503705       13.1495128873      -14.1278630134  W2        2389            0.0000000000
      7167      2389  TIP3      H2              7.7108703705       13.1278928873      -14.8204130134  W2        2389            0.0000000000
      7168      2390  TIP3      OH2             6.7126203705        2.2499428873      -12.2082030134  W2        2390            0.0000000000
      7169      2390  TIP3      H1              7.5248803705        2.7542628873      -12.1620330134  W2        2390            0.0000000000
      7170      2390  TIP3      H2              6.4679203705        2.1049128873      -11.2942430134  W2        2390            0.0000000000
      7171      2391  TIP3      OH2             7.2482603705        3.2362128873       -3.0235430134  W2        2391            0.0000000000
      7172      2391  TIP3      H1              7.3672903705        3.8097528873       -2.2665030134  W2        2391            0.0000000000
      7173      2391  TIP3      H2              7.9037203705        2.5481528873       -2.9087630134  W2        2391            0.0000000000
      7174      2392  TIP3      OH2             7.5962903705       -0.6687571127      -11.2700930134  W2        2392            0.0000000000
      7175      2392  TIP3      H1              7.2496403705       -0.0516971127      -10.6256630134  W2        2392            0.0000000000
      7176      2392  TIP3      H2              8.2549803705       -0.1681871127      -11.7515430134  W2        2392            0.0000000000
      7177      2393  TIP3      OH2             4.5195503705       13.6962628873      -14.1986030134  W2        2393            0.0000000000
      7178      2393  TIP3      H1              4.6804203705       14.4960128873      -14.6993430134  W2        2393            0.0000000000
      7179      2393  TIP3      H2              4.3223303705       14.0028628873      -13.3135430134  W2        2393            0.0000000000
      7180      2394  TIP3      OH2             3.2539903705        0.3941828873      -14.5828430134  W2        2394            0.0000000000
      7181      2394  TIP3      H1              3.1704703705        1.2824928873      -14.2362030134  W2        2394            0.0000000000
      7182      2394  TIP3      H2              4.1440203705        0.1288528873      -14.3511630134  W2        2394            0.0000000000
      7183      2395  TIP3      OH2            13.4528403705        1.1432428873       -2.1885730134  W2        2395            0.0000000000
      7184      2395  TIP3      H1             12.5364203705        1.4054128873       -2.2762030134  W2        2395            0.0000000000
      7185      2395  TIP3      H2             13.7883403705        1.1401428873       -3.0850430134  W2        2395            0.0000000000
      7186      2396  TIP3      OH2            12.0549403705        4.8933428873       -8.0928430134  W2        2396            0.0000000000
      7187      2396  TIP3      H1             11.2573803705        4.4783628873       -8.4213430134  W2        2396            0.0000000000
      7188      2396  TIP3      H2             12.5000503705        4.2027128873       -7.6017930134  W2        2396            0.0000000000
      7189      2397  TIP3      OH2             1.5125203705       10.8214028873      -15.5223930134  W2        2397            0.0000000000
      7190      2397  TIP3      H1              2.1046703705       11.5208828873      -15.2461530134  W2        2397            0.0000000000
      7191      2397  TIP3      H2              1.9718203705       10.3883528873      -16.2419330134  W2        2397            0.0000000000
      7192      2398  TIP3      OH2            -0.1715596295        3.4857028873      -16.4064530134  W2        2398            0.0000000000
      7193      2398  TIP3      H1             -0.2162996295        4.4250128873      -16.2277530134  W2        2398            0.0000000000
      7194      2398  TIP3      H2             -1.0592396295        3.2501928873      -16.6762430134  W2        2398            0.0000000000
      7195      2399  TIP3      OH2            13.1414003705       14.1495928873       -6.4704930134  W2        2399            0.0000000000
      7196      2399  TIP3      H1             12.9858303705       14.8280328873       -7.1275630134  W2        2399            0.0000000000
      7197      2399  TIP3      H2             14.0740403705       14.2215228873       -6.2674330134  W2        2399            0.0000000000
      7198      2400  TIP3      OH2             0.6366403705       -1.7326371127       -7.7333530134  W2        2400            0.0000000000
      7199      2400  TIP3      H1              0.4076203705       -1.6733871127       -8.6608530134  W2        2400            0.0000000000
      7200      2400  TIP3      H2              0.1939803705       -2.5240871127       -7.4269430134  W2        2400            0.0000000000
      7201      2401  TIP3      OH2            -0.4330296295       12.2080728873      -11.5727730134  W2        2401            0.0000000000
      7202      2401  TIP3      H1             -1.2651696295       12.6803428873      -11.5456330134  W2        2401            0.0000000000
      7203      2401  TIP3      H2              0.1128003705       12.7178328873      -12.1714630134  W2        2401            0.0000000000
      7204      2402  TIP3      OH2            -1.1446596295       14.8204428873       -0.2429730134  W2        2402            0.0000000000
      7205      2402  TIP3      H1             -0.6044396295       14.6038428873        0.5169469866  W2        2402            0.0000000000
      7206      2402  TIP3      H2             -1.6258596295       14.0150428873       -0.4327230134  W2        2402            0.0000000000
      7207      2403  TIP3      OH2             3.4526803705       13.7398828873        1.3774469866  W2        2403            0.0000000000
      7208      2403  TIP3      H1              4.2204003705       13.2809628873        1.7183669866  W2        2403            0.0000000000
      7209      2403  TIP3      H2              3.4313003705       13.5138628873        0.4475669866  W2        2403            0.0000000000
      7210      2404  TIP3      OH2             7.5446403705       13.2479428873      -17.2473730134  W2        2404            0.0000000000
      7211      2404  TIP3      H1              6.9007403705       12.6168028873      -16.9260030134  W2        2404            0.0000000000
      7212      2404  TIP3      H2              8.3064703705       12.7167428873      -17.4790230134  W2        2404            0.0000000000
      7213      2405  TIP3      OH2            10.0295503705       12.1199928873        0.1065969866  W2        2405            0.0000000000
      7214      2405  TIP3      H1              9.6785003705       11.2632928873        0.3496369866  W2        2405            0.0000000000
      7215      2405  TIP3      H2             10.7558703705       12.2626628873        0.7134969866  W2        2405            0.0000000000
      7216      2406  TIP3      OH2            12.1489303705       13.0649328873      -17.0135730134  W2        2406            0.0000000000
      7217      2406  TIP3      H1             12.4319703705       12.2704528873      -16.5608830134  W2        2406            0.0000000000
      7218      2406  TIP3      H2             12.8887203705       13.2980328873      -17.5744630134  W2        2406            0.0000000000
      7219      2407  TIP3      OH2            -1.2377096295        8.6308528873        0.7114569866  W2        2407            0.0000000000
      7220      2407  TIP3      H1             -1.0936596295        7.7289228873        0.4251269866  W2        2407            0.0000000000
      7221      2407  TIP3      H2             -2.0099696295        8.9170628873        0.2236869866  W2        2407            0.0000000000
      7222      2408  TIP3      OH2             3.1036603705        8.9744228873      -17.1560830134  W2        2408            0.0000000000
      7223      2408  TIP3      H1              3.1680703705        8.1803828873      -16.6254430134  W2        2408            0.0000000000
      7224      2408  TIP3      H2              3.7565803705        8.8557028873      -17.8458830134  W2        2408            0.0000000000
      7225      2409  TIP3      OH2             5.4179003705        8.6006628873        0.1440969866  W2        2409            0.0000000000
      7226      2409  TIP3      H1              5.0892803705        8.8714728873       -0.7131630134  W2        2409            0.0000000000
      7227      2409  TIP3      H2              5.5697203705        7.6596428873        0.0565969866  W2        2409            0.0000000000
      7228      2410  TIP3      OH2             8.4560003705       10.0215928873      -17.4202830134  W2        2410            0.0000000000
      7229      2410  TIP3      H1              8.1874103705       10.2018028873      -16.5193930134  W2        2410            0.0000000000
      7230      2410  TIP3      H2              8.2495603705        9.0962128873      -17.5517030134  W2        2410            0.0000000000
      7231      2411  TIP3      OH2            11.1524203705        8.5163928873       -2.4726730134  W2        2411            0.0000000000
      7232      2411  TIP3      H1             11.8979003705        9.1047628873       -2.5922730134  W2        2411            0.0000000000
      7233      2411  TIP3      H2             10.3951003705        9.0983628873       -2.4093630134  W2        2411            0.0000000000
      7234      2412  TIP3      OH2            -0.4050596295        5.8311828873        0.1313869866  W2        2412            0.0000000000
      7235      2412  TIP3      H1              0.0030603705        4.9738428873        0.0104469866  W2        2412            0.0000000000
      7236      2412  TIP3      H2             -0.6652996295        5.8453128873        1.0524169866  W2        2412            0.0000000000
      7237      2413  TIP3      OH2             4.2530403705        6.9470428873      -14.8502830134  W2        2413            0.0000000000
      7238      2413  TIP3      H1              3.7932403705        6.4628728873      -14.1644330134  W2        2413            0.0000000000
      7239      2413  TIP3      H2              4.5079103705        6.2785828873      -15.4862330134  W2        2413            0.0000000000
      7240      2414  TIP3      OH2             3.5419703705        4.8397528873       -2.4943230134  W2        2414            0.0000000000
      7241      2414  TIP3      H1              2.9235803705        5.5144128873       -2.2138530134  W2        2414            0.0000000000
      7242      2414  TIP3      H2              3.8860903705        5.1611428873       -3.3277030134  W2        2414            0.0000000000
      7243      2415  TIP3      OH2             5.3240803705        5.1902228873      -16.5879630134  W2        2415            0.0000000000
      7244      2415  TIP3      H1              5.1435803705        5.0353428873      -17.5151330134  W2        2415            0.0000000000
      7245      2415  TIP3      H2              6.2741303705        5.2980928873      -16.5431730134  W2        2415            0.0000000000
      7246      2416  TIP3      OH2             8.5617903705        7.3112828873        0.7831569866  W2        2416            0.0000000000
      7247      2416  TIP3      H1              9.5149103705        7.3951928873        0.7557569866  W2        2416            0.0000000000
      7248      2416  TIP3      H2              8.4012503705        6.5994628873        1.4026469866  W2        2416            0.0000000000
      7249      2417  TIP3      OH2            14.7139103705        7.5446428873      -17.1421530134  W2        2417            0.0000000000
      7250      2417  TIP3      H1             14.4403903705        7.1201928873      -17.9553230134  W2        2417            0.0000000000
      7251      2417  TIP3      H2             14.7533203705        8.4760928873      -17.3591130134  W2        2417            0.0000000000
      7252      2418  TIP3      OH2             3.8813403705        2.1948328873       -1.4120130134  W2        2418            0.0000000000
      7253      2418  TIP3      H1              4.0314303705        1.4659628873       -2.0140430134  W2        2418            0.0000000000
      7254      2418  TIP3      H2              3.8835803705        2.9720028873       -1.9707930134  W2        2418            0.0000000000
      7255      2419  TIP3      OH2             4.2939103705        0.5644128873       -3.9192730134  W2        2419            0.0000000000
      7256      2419  TIP3      H1              4.8296603705        1.0160828873       -4.5713430134  W2        2419            0.0000000000
      7257      2419  TIP3      H2              3.4418703705        0.4563928873       -4.3418630134  W2        2419            0.0000000000
      7258      2420  TIP3      OH2             5.8757503705        6.0040328873       -3.6797530134  W2        2420            0.0000000000
      7259      2420  TIP3      H1              6.6262303705        5.8477828873       -4.2529730134  W2        2420            0.0000000000
      7260      2420  TIP3      H2              5.5365803705        6.8556928873       -3.9552030134  W2        2420            0.0000000000
      7261      2421  TIP3      OH2            10.2913703705        3.8192128873        1.3487769866  W2        2421            0.0000000000
      7262      2421  TIP3      H1             10.4835003705        2.8881528873        1.2372269866  W2        2421            0.0000000000
      7263      2421  TIP3      H2             11.1490003705        4.2441628873        1.3383169866  W2        2421            0.0000000000
      7264      2422  TIP3      OH2            11.6080903705        6.6077328873       -0.5739530134  W2        2422            0.0000000000
      7265      2422  TIP3      H1             11.3265903705        7.3171928873       -1.1515730134  W2        2422            0.0000000000
      7266      2422  TIP3      H2             12.5505203705        6.5350328873       -0.7248330134  W2        2422            0.0000000000
      7267      2423  TIP3      OH2             2.3599703705        3.3931828873        0.4995469866  W2        2423            0.0000000000
      7268      2423  TIP3      H1              1.5928703705        2.8606628873        0.2893069866  W2        2423            0.0000000000
      7269      2423  TIP3      H2              3.0388703705        3.0832228873       -0.0998230134  W2        2423            0.0000000000
      7270      2424  TIP3      OH2             5.0994603705       -1.9790171127       -3.4879130134  W2        2424            0.0000000000
      7271      2424  TIP3      H1              5.0014203705       -1.0326971127       -3.5932930134  W2        2424            0.0000000000
      7272      2424  TIP3      H2              4.3570803705       -2.3516371127       -3.9635630134  W2        2424            0.0000000000
      7273      2425  TIP3      OH2             6.3635103705        2.3425228873        0.0759269866  W2        2425            0.0000000000
      7274      2425  TIP3      H1              6.1280503705        2.1231928873        0.9774169866  W2        2425            0.0000000000
      7275      2425  TIP3      H2              5.5802003705        2.1356428873       -0.4338230134  W2        2425            0.0000000000
      7276      2426  TIP3      OH2             9.0791703705        1.4698728873       -0.8487230134  W2        2426            0.0000000000
      7277      2426  TIP3      H1              8.1317103705        1.5018428873       -0.7163930134  W2        2426            0.0000000000
      7278      2426  TIP3      H2              9.3918403705        0.8445828873       -0.1949030134  W2        2426            0.0000000000
      7279      2427  TIP3      OH2            10.7133203705        0.1039828873        1.1564669866  W2        2427            0.0000000000
      7280      2427  TIP3      H1             10.6165003705       -0.8482871127        1.1506569866  W2        2427            0.0000000000
      7281      2427  TIP3      H2             10.3916303705        0.3726628873        2.0170169866  W2        2427            0.0000000000
      7282      2428  TIP3      OH2             0.5402503705        1.3135628873        0.2040169866  W2        2428            0.0000000000
      7283      2428  TIP3      H1              0.7519903705        0.6071728873       -0.4062330134  W2        2428            0.0000000000
      7284      2428  TIP3      H2              0.4290003705        0.8761628873        1.0481369866  W2        2428            0.0000000000
      7285      2429  TIP3      OH2             5.3212703705       -2.6852771127       -0.8166330134  W2        2429            0.0000000000
      7286      2429  TIP3      H1              6.0331103705       -3.3250571127       -0.8307230134  W2        2429            0.0000000000
      7287      2429  TIP3      H2              5.2203103705       -2.4184471127       -1.7303230134  W2        2429            0.0000000000
      7288      2430  TIP3      OH2             5.6750203705       -1.0024371127        1.2369969866  W2        2430            0.0000000000
      7289      2430  TIP3      H1              5.5432403705       -1.4780571127        0.4168469866  W2        2430            0.0000000000
      7290      2430  TIP3      H2              5.0757603705       -0.2580771127        1.1817069866  W2        2430            0.0000000000
      7291      2431  TIP3      OH2             5.2212503705       15.8805928873      -15.5866030134  W2        2431            0.0000000000
      7292      2431  TIP3      H1              6.1543203705       16.0384628873      -15.4427630134  W2        2431            0.0000000000
      7293      2431  TIP3      H2              4.9571303705       16.5558928873      -16.2114530134  W2        2431            0.0000000000
      7294      2432  TIP3      OH2            -1.2102596295       10.5169728873      -16.1037930134  W2        2432            0.0000000000
      7295      2432  TIP3      H1             -0.2963396295       10.5958628873      -15.8304030134  W2        2432            0.0000000000
      7296      2432  TIP3      H2             -1.2029496295        9.8299328873      -16.7702330134  W2        2432            0.0000000000
      7297      2433  TIP3      OH2            -2.5611996295       15.9098228873      -11.0264030134  W2        2433            0.0000000000
      7298      2433  TIP3      H1             -3.2084896295       15.4479928873      -11.5592830134  W2        2433            0.0000000000
      7299      2433  TIP3      H2             -2.2067396295       15.2381528873      -10.4437830134  W2        2433            0.0000000000
      7300      2434  TIP3      OH2            -1.6912796295       13.9905228873       -9.2217830134  W2        2434            0.0000000000
      7301      2434  TIP3      H1             -2.0255996295       13.1102528873       -9.0497630134  W2        2434            0.0000000000
      7302      2434  TIP3      H2             -1.4690396295       14.3360228873       -8.3572230134  W2        2434            0.0000000000
      7303      2435  TIP3      OH2            15.8572003705       14.8001628873       -6.2413030134  W2        2435            0.0000000000
      7304      2435  TIP3      H1             15.8358703705       14.9850028873       -5.3023630134  W2        2435            0.0000000000
      7305      2435  TIP3      H2             16.5478203705       15.3685628873       -6.5821630134  W2        2435            0.0000000000
      7306      2436  TIP3      OH2            15.4204903705       14.3672728873       -3.3193930134  W2        2436            0.0000000000
      7307      2436  TIP3      H1             14.9333603705       13.6316828873       -3.6906530134  W2        2436            0.0000000000
      7308      2436  TIP3      H2             15.9697603705       13.9736628873       -2.6414530134  W2        2436            0.0000000000
      7309      2437  TIP3      OH2            13.8712203705       10.1570828873        1.3186369866  W2        2437            0.0000000000
      7310      2437  TIP3      H1             13.0053303705       10.0520528873        1.7128669866  W2        2437            0.0000000000
      7311      2437  TIP3      H2             14.2478103705       10.9154128873        1.7651069866  W2        2437            0.0000000000
      7312      2438  TIP3      OH2            15.1721903705        8.4134528873      -13.1671130134  W2        2438            0.0000000000
      7313      2438  TIP3      H1             16.0223303705        8.8345428873      -13.0399530134  W2        2438            0.0000000000
      7314      2438  TIP3      H2             15.1777003705        7.6734628873      -12.5599730134  W2        2438            0.0000000000
      7315      2439  TIP3      OH2            15.5667503705        6.4671928873      -11.3435430134  W2        2439            0.0000000000
      7316      2439  TIP3      H1             14.8402103705        5.9874528873      -10.9457830134  W2        2439            0.0000000000
      7317      2439  TIP3      H2             16.1480803705        6.6726628873      -10.6113830134  W2        2439            0.0000000000
      7318      2440  TIP3      OH2            15.3258703705        9.2519428873       -6.3957830134  W2        2440            0.0000000000
      7319      2440  TIP3      H1             16.1592903705        8.8739428873       -6.6764230134  W2        2440            0.0000000000
      7320      2440  TIP3      H2             15.4379003705       10.1950628873       -6.5148730134  W2        2440            0.0000000000
      7321      2441  TIP3      OH2            13.8121003705       12.1296928873       -4.0889430134  W2        2441            0.0000000000
      7322      2441  TIP3      H1             13.1646303705       12.4548428873       -3.4634230134  W2        2441            0.0000000000
      7323      2441  TIP3      H2             13.2945003705       11.6894628873       -4.7631130134  W2        2441            0.0000000000
      7324      2442  TIP3      OH2            15.8350603705        6.3680428873      -14.9524130134  W2        2442            0.0000000000
      7325      2442  TIP3      H1             15.3131703705        6.7244528873      -15.6713230134  W2        2442            0.0000000000
      7326      2442  TIP3      H2             15.8019803705        7.0428228873      -14.2743230134  W2        2442            0.0000000000
      7327      2443  TIP3      OH2            14.1839603705        3.6076028873      -16.4017030134  W2        2443            0.0000000000
      7328      2443  TIP3      H1             14.2804003705        4.2743028873      -17.0817330134  W2        2443            0.0000000000
      7329      2443  TIP3      H2             14.0439203705        2.7922328873      -16.8831530134  W2        2443            0.0000000000
      7330      2444  TIP3      OH2            13.3534303705        4.9878428873      -10.7806730134  W2        2444            0.0000000000
      7331      2444  TIP3      H1             13.2033103705        4.0427028873      -10.8008930134  W2        2444            0.0000000000
      7332      2444  TIP3      H2             12.9998803705        5.2689828873       -9.9367630134  W2        2444            0.0000000000
      7333      2445  TIP3      OH2            -1.6113296295        7.0660628873       -6.7702930134  W2        2445            0.0000000000
      7334      2445  TIP3      H1             -1.4270396295        6.9842328873       -7.7060030134  W2        2445            0.0000000000
      7335      2445  TIP3      H2             -0.7620396295        6.9417628873       -6.3466530134  W2        2445            0.0000000000
      7336      2446  TIP3      OH2            14.2097203705        6.9581728873       -1.1418430134  W2        2446            0.0000000000
      7337      2446  TIP3      H1             14.7924503705        6.2234028873       -0.9501230134  W2        2446            0.0000000000
      7338      2446  TIP3      H2             14.7736503705        7.7302028873       -1.0952630134  W2        2446            0.0000000000
      7339      2447  TIP3      OH2            15.7064303705        4.8607528873       -0.4573030134  W2        2447            0.0000000000
      7340      2447  TIP3      H1             14.8431003705        4.4819628873       -0.6228330134  W2        2447            0.0000000000
      7341      2447  TIP3      H2             16.3108003705        4.1222328873       -0.5317230134  W2        2447            0.0000000000
      7342      2448  TIP3      OH2            13.4313403705        1.0155828873      -17.2841530134  W2        2448            0.0000000000
      7343      2448  TIP3      H1             14.0419203705        0.6442628873      -16.6473330134  W2        2448            0.0000000000
      7344      2448  TIP3      H2             12.5944903705        0.5942728873      -17.0881530134  W2        2448            0.0000000000
      7345      2449  TIP3      OH2            13.0639103705        2.5704228873      -12.3181630134  W2        2449            0.0000000000
      7346      2449  TIP3      H1             13.3436203705        1.6634628873      -12.1939930134  W2        2449            0.0000000000
      7347      2449  TIP3      H2             13.8230803705        3.0045728873      -12.7072430134  W2        2449            0.0000000000
      7348      2450  TIP3      OH2            13.6757403705        3.1521628873       -6.8822730134  W2        2450            0.0000000000
      7349      2450  TIP3      H1             14.6085403705        3.3641528873       -6.9166730134  W2        2450            0.0000000000
      7350      2450  TIP3      H2             13.4404903705        3.2533728873       -5.9599730134  W2        2450            0.0000000000
      7351      2451  TIP3      OH2            13.7049303705        3.8886928873       -4.1063330134  W2        2451            0.0000000000
      7352      2451  TIP3      H1             12.8620603705        4.1567328873       -3.7403530134  W2        2451            0.0000000000
      7353      2451  TIP3      H2             14.1473603705        4.7108828873       -4.3172230134  W2        2451            0.0000000000
      7354      2452  TIP3      OH2            -2.0138496295        2.3365628873       -0.6294130134  W2        2452            0.0000000000
      7355      2452  TIP3      H1             -1.0943596295        2.2143928873       -0.3931030134  W2        2452            0.0000000000
      7356      2452  TIP3      H2             -2.4633996295        1.5865328873       -0.2400630134  W2        2452            0.0000000000
      7357      2453  TIP3      OH2            15.9880903705       -2.1312871127        1.2471669866  W2        2453            0.0000000000
      7358      2453  TIP3      H1             16.3377903705       -2.7849371127        0.6416369866  W2        2453            0.0000000000
      7359      2453  TIP3      H2             16.1350403705       -1.2938771127        0.8074269866  W2        2453            0.0000000000
      7360      2454  TIP3      OH2            13.6773903705       -0.1666471127      -12.2699630134  W2        2454            0.0000000000
      7361      2454  TIP3      H1             13.8598903705       -0.6154971127      -11.4444630134  W2        2454            0.0000000000
      7362      2454  TIP3      H2             13.0776803705       -0.7512071127      -12.7335030134  W2        2454            0.0000000000
      7363      2455  TIP3      OH2            -0.7925996295        0.6487228873       -7.7381230134  W2        2455            0.0000000000
      7364      2455  TIP3      H1             -0.3474396295       -0.1430271127       -7.4361530134  W2        2455            0.0000000000
      7365      2455  TIP3      H2             -0.3262996295        1.3652428873       -7.3075630134  W2        2455            0.0000000000
      7366      2456  TIP3      OH2            -2.4885696295        3.6480228873       -6.6691030134  W2        2456            0.0000000000
      7367      2456  TIP3      H1             -1.9965896295        3.4270728873       -7.4599030134  W2        2456            0.0000000000
      7368      2456  TIP3      H2             -2.1264796295        4.4883628873       -6.3881530134  W2        2456            0.0000000000
      7369      2457  TIP3      OH2            15.5078103705       -0.0218271127       -0.4037030134  W2        2457            0.0000000000
      7370      2457  TIP3      H1             14.5903803705        0.2488828873       -0.4393530134  W2        2457            0.0000000000
      7371      2457  TIP3      H2             15.6307503705       -0.5569871127       -1.1877330134  W2        2457            0.0000000000
      7372      2458  TIP3      OH2            15.5440103705       -0.0988371127      -15.7419330134  W2        2458            0.0000000000
      7373      2458  TIP3      H1             15.9562703705       -0.8202671127      -16.2171330134  W2        2458            0.0000000000
      7374      2458  TIP3      H2             16.2256603705        0.5706228873      -15.6835030134  W2        2458            0.0000000000
      7375      2459  TIP3      OH2            -2.1749196295       -0.0940671127      -12.6148630134  W2        2459            0.0000000000
      7376      2459  TIP3      H1             -3.1000796295        0.1145928873      -12.7443130134  W2        2459            0.0000000000
      7377      2459  TIP3      H2             -1.7209296295        0.3900128873      -13.3046330134  W2        2459            0.0000000000
      7378      2460  TIP3      OH2            12.5958003705       14.8901028873      -10.6691230134  W2        2460            0.0000000000
      7379      2460  TIP3      H1             13.2480903705       14.5423128873      -11.2772130134  W2        2460            0.0000000000
      7380      2460  TIP3      H2             13.1061803705       15.3784228873      -10.0231530134  W2        2460            0.0000000000
      7381      2461  TIP3      OH2            -2.2113796295       -1.3561671127       -4.2706130134  W2        2461            0.0000000000
      7382      2461  TIP3      H1             -2.8763296295       -1.6021371127       -3.6275230134  W2        2461            0.0000000000
      7383      2461  TIP3      H2             -2.6542496295       -0.7341271127       -4.8478130134  W2        2461            0.0000000000
      7384      2462  TIP3      OH2            -0.0194496295       11.8192428873       -0.1260330134  W2        2462            0.0000000000
      7385      2462  TIP3      H1             -0.8401996295       11.9938928873       -0.5865630134  W2        2462            0.0000000000
      7386      2462  TIP3      H2             -0.2716696295       11.7457128873        0.7944069866  W2        2462            0.0000000000
      7387      2463  TIP3      OH2             2.9348403705       12.7933628873       -3.8676330134  W2        2463            0.0000000000
      7388      2463  TIP3      H1              2.5099503705       13.6032128873       -4.1501730134  W2        2463            0.0000000000
      7389      2463  TIP3      H2              3.8391203705       12.8787728873       -4.1696530134  W2        2463            0.0000000000
      7390      2464  TIP3      OH2             7.2459803705       14.1923628873       -0.9082630134  W2        2464            0.0000000000
      7391      2464  TIP3      H1              7.4307303705       13.8589728873       -0.0302330134  W2        2464            0.0000000000
      7392      2464  TIP3      H2              8.0924303705       14.5022228873       -1.2303430134  W2        2464            0.0000000000
      7393      2465  TIP3      OH2             9.5910203705       15.4782528873       -1.6641230134  W2        2465            0.0000000000
      7394      2465  TIP3      H1             10.2679103705       14.8454828873       -1.9042030134  W2        2465            0.0000000000
      7395      2465  TIP3      H2              9.9129003705       15.8793028873       -0.8567930134  W2        2465            0.0000000000
      7396      2466  TIP3      OH2            14.5084003705       -1.9321971127       -2.5846230134  W2        2466            0.0000000000
      7397      2466  TIP3      H1             13.6957503705       -1.6071671127       -2.9721530134  W2        2466            0.0000000000
      7398      2466  TIP3      H2             14.7412503705       -2.6923471127       -3.1177130134  W2        2466            0.0000000000
      7399      2467  TIP3      OH2             0.3365103705       16.0497528873       -3.8201030134  W2        2467            0.0000000000
      7400      2467  TIP3      H1             -0.3838496295       16.4898528873       -4.2713330134  W2        2467            0.0000000000
      7401      2467  TIP3      H2             -0.0290896295       15.7992228873       -2.9717030134  W2        2467            0.0000000000
      7402      2468  TIP3      OH2             2.8037703705       15.6501428873       -4.7903830134  W2        2468            0.0000000000
      7403      2468  TIP3      H1              1.9389903705       15.7219928873       -4.3863730134  W2        2468            0.0000000000
      7404      2468  TIP3      H2              2.7486703705       16.1968728873       -5.5741330134  W2        2468            0.0000000000
      7405      2469  TIP3      OH2             7.5143303705       15.5380328873       -5.6147830134  W2        2469            0.0000000000
      7406      2469  TIP3      H1              7.0577303705       16.0670028873       -6.2689430134  W2        2469            0.0000000000
      7407      2469  TIP3      H2              7.6771303705       16.1411728873       -4.8895530134  W2        2469            0.0000000000
      7408      2470  TIP3      OH2             9.8419603705       14.4159928873       -4.6697530134  W2        2470            0.0000000000
      7409      2470  TIP3      H1              8.9373303705       14.5810128873       -4.9355430134  W2        2470            0.0000000000
      7410      2470  TIP3      H2             10.2708203705       15.2692128873       -4.7354130134  W2        2470            0.0000000000
      7411      2471  TIP3      OH2            12.4461503705       15.9859028873       -4.3749730134  W2        2471            0.0000000000
      7412      2471  TIP3      H1             12.2643503705       16.9017928873       -4.5854830134  W2        2471            0.0000000000
      7413      2471  TIP3      H2             12.6229303705       15.5756128873       -5.2215130134  W2        2471            0.0000000000
      7414      2472  TIP3      OH2            -0.2486796295       14.6730028873       -6.9099230134  W2        2472            0.0000000000
      7415      2472  TIP3      H1             -0.2670796295       14.2475128873       -6.0526930134  W2        2472            0.0000000000
      7416      2472  TIP3      H2              0.5561103705       14.3545028873       -7.3187030134  W2        2472            0.0000000000
      7417      2473  TIP3      OH2             1.8926303705       13.3828728873       -8.2549330134  W2        2473            0.0000000000
      7418      2473  TIP3      H1              1.6737003705       12.4666128873       -8.0853330134  W2        2473            0.0000000000
      7419      2473  TIP3      H2              2.7168503705       13.5229128873       -7.7887930134  W2        2473            0.0000000000
      7420      2474  TIP3      OH2             4.4298803705       13.8528028873       -7.4061330134  W2        2474            0.0000000000
      7421      2474  TIP3      H1              4.6424503705       12.9647028873       -7.6930430134  W2        2474            0.0000000000
      7422      2474  TIP3      H2              4.4943903705       13.8185728873       -6.4517330134  W2        2474            0.0000000000
      7423      2475  TIP3      OH2             7.9382503705       -0.4831371127       -8.2618030134  W2        2475            0.0000000000
      7424      2475  TIP3      H1              7.2639303705       -1.1125771127       -8.0062230134  W2        2475            0.0000000000
      7425      2475  TIP3      H2              8.5021703705       -0.9672471127       -8.8650130134  W2        2475            0.0000000000
      7426      2476  TIP3      OH2            13.0809703705       -2.3757371127       -8.1490930134  W2        2476            0.0000000000
      7427      2476  TIP3      H1             13.6847303705       -1.8281971127       -8.6509930134  W2        2476            0.0000000000
      7428      2476  TIP3      H2             12.2111703705       -2.0566971127       -8.3896830134  W2        2476            0.0000000000
      7429      2477  TIP3      OH2            14.8080103705       -1.2368671127       -9.8160030134  W2        2477            0.0000000000
      7430      2477  TIP3      H1             15.4197603705       -1.7512971127      -10.3426430134  W2        2477            0.0000000000
      7431      2477  TIP3      H2             15.1903503705       -0.3596571127       -9.7925630134  W2        2477            0.0000000000
      7432      2478  TIP3      OH2             0.2650003705       -1.8491071127      -10.4398130134  W2        2478            0.0000000000
      7433      2478  TIP3      H1             -0.5120196295       -2.0836171127      -10.9472230134  W2        2478            0.0000000000
      7434      2478  TIP3      H2              0.7953603705       -2.6458971127      -10.4310130134  W2        2478            0.0000000000
      7435      2479  TIP3      OH2            -0.8986596295       -2.0512971127      -14.6362030134  W2        2479            0.0000000000
      7436      2479  TIP3      H1             -0.4595896295       -1.4402471127      -15.2278530134  W2        2479            0.0000000000
      7437      2479  TIP3      H2             -1.5324196295       -1.5128871127      -14.1622030134  W2        2479            0.0000000000
      7438      2480  TIP3      OH2             4.8442603705       -1.9223971127      -10.6265030134  W2        2480            0.0000000000
      7439      2480  TIP3      H1              5.7186003705       -1.5339671127      -10.6560730134  W2        2480            0.0000000000
      7440      2480  TIP3      H2              4.7083403705       -2.1376171127       -9.7037830134  W2        2480            0.0000000000
      7441      2481  TIP3      OH2            10.4011003705       -1.8924171127       -8.9773330134  W2        2481            0.0000000000
      7442      2481  TIP3      H1             10.4772603705       -1.7972571127       -9.9267330134  W2        2481            0.0000000000
      7443      2481  TIP3      H2             10.1260203705       -2.8001271127       -8.8484230134  W2        2481            0.0000000000
      7444      2482  TIP3      OH2            11.7543603705       -1.8666371127      -13.2848330134  W2        2482            0.0000000000
      7445      2482  TIP3      H1             11.0514703705       -1.2517171127      -13.4946930134  W2        2482            0.0000000000
      7446      2482  TIP3      H2             11.3095003705       -2.7039671127      -13.1537430134  W2        2482            0.0000000000
      7447      2483  TIP3      OH2            -0.9977096295       13.8969228873      -13.7386930134  W2        2483            0.0000000000
      7448      2483  TIP3      H1             -1.6827196295       13.8588128873      -14.4061830134  W2        2483            0.0000000000
      7449      2483  TIP3      H2             -0.9939896295       14.8096828873      -13.4504830134  W2        2483            0.0000000000
      7450      2484  TIP3      OH2             0.9622503705       -0.1351471127      -16.1937930134  W2        2484            0.0000000000
      7451      2484  TIP3      H1              1.4535903705       -0.7649071127      -16.7212430134  W2        2484            0.0000000000
      7452      2484  TIP3      H2              1.5858803705        0.1607928873      -15.5306730134  W2        2484            0.0000000000
      7453      2485  TIP3      OH2             5.9882603705        0.1580028873      -13.7367430134  W2        2485            0.0000000000
      7454      2485  TIP3      H1              6.1663903705       -0.4886771127      -13.0538830134  W2        2485            0.0000000000
      7455      2485  TIP3      H2              5.9348803705        0.9917728873      -13.2696330134  W2        2485            0.0000000000
      7456      2486  TIP3      OH2             7.8666403705       15.1064128873      -15.3410730134  W2        2486            0.0000000000
      7457      2486  TIP3      H1              8.7326603705       15.4731528873      -15.5192530134  W2        2486            0.0000000000
      7458      2486  TIP3      H2              7.6199203705       14.6672128873      -16.1549930134  W2        2486            0.0000000000
      7459      2487  TIP3      OH2            14.5756003705       14.6694428873      -12.6619630134  W2        2487            0.0000000000
      7460      2487  TIP3      H1             14.3813103705       13.9216528873      -13.2270030134  W2        2487            0.0000000000
      7461      2487  TIP3      H2             14.5366103705       15.4274528873      -13.2451730134  W2        2487            0.0000000000
      7462      2488  TIP3      OH2             0.2228003705       -1.3349171127       -0.9221930134  W2        2488            0.0000000000
      7463      2488  TIP3      H1             -0.1433796295       -2.1006571127       -0.4797230134  W2        2488            0.0000000000
      7464      2488  TIP3      H2              1.1356503705       -1.3058971127       -0.6356830134  W2        2488            0.0000000000
      7465      2489  TIP3      OH2             2.1958803705       -1.9844771127        0.6135169866  W2        2489            0.0000000000
      7466      2489  TIP3      H1              3.0942403705       -2.2584571127        0.4288569866  W2        2489            0.0000000000
      7467      2489  TIP3      H2              1.8091903705       -2.7268771127        1.0777769866  W2        2489            0.0000000000
      7468      2490  TIP3      OH2             0.8204103705       14.8170028873      -16.7134830134  W2        2490            0.0000000000
      7469      2490  TIP3      H1              0.5528703705       15.1032928873      -15.8401730134  W2        2490            0.0000000000
      7470      2490  TIP3      H2              1.5916703705       14.2709228873      -16.5612330134  W2        2490            0.0000000000
      7471      2491  TIP3      OH2            10.6171103705       -2.6519471127        0.7957969866  W2        2491            0.0000000000
      7472      2491  TIP3      H1             10.6938303705       -3.0778771127        1.6495669866  W2        2491            0.0000000000
      7473      2491  TIP3      H2             11.5107703705       -2.6384771127        0.4531469866  W2        2491            0.0000000000
      7474      2492  TIP3      OH2            13.7932203705       13.4206828873       -0.5117830134  W2        2492            0.0000000000
      7475      2492  TIP3      H1             13.0114103705       13.2344828873       -1.0317230134  W2        2492            0.0000000000
      7476      2492  TIP3      H2             13.7212103705       14.3501128873       -0.2945330134  W2        2492            0.0000000000
      7477      2493  TIP3      OH2            28.1992603705        7.3071228873      -10.4810630134  W2        2493            0.0000000000
      7478      2493  TIP3      H1             28.2883703705        8.2509428873      -10.6133530134  W2        2493            0.0000000000
      7479      2493  TIP3      H2             27.5610203705        7.0317628873      -11.1391230134  W2        2493            0.0000000000
      7480      2494  TIP3      OH2            27.1323903705        6.5621928873       -7.0622430134  W2        2494            0.0000000000
      7481      2494  TIP3      H1             27.0941403705        5.9158228873       -6.3572830134  W2        2494            0.0000000000
      7482      2494  TIP3      H2             26.8100403705        6.0956328873       -7.8333730134  W2        2494            0.0000000000
      7483      2495  TIP3      OH2            19.5008903705        6.1764028873       -5.4692530134  W2        2495            0.0000000000
      7484      2495  TIP3      H1             19.5421003705        5.5507328873       -4.7460130134  W2        2495            0.0000000000
      7485      2495  TIP3      H2             20.2036603705        6.8002628873       -5.2872130134  W2        2495            0.0000000000
      7486      2496  TIP3      OH2            30.8384103705        9.5012328873       -8.7607330134  W2        2496            0.0000000000
      7487      2496  TIP3      H1             30.3976803705        8.7808328873       -8.3101730134  W2        2496            0.0000000000
      7488      2496  TIP3      H2             30.8253803705       10.2219528873       -8.1309630134  W2        2496            0.0000000000
      7489      2497  TIP3      OH2            20.4242003705       10.6262928873       -6.9343430134  W2        2497            0.0000000000
      7490      2497  TIP3      H1             20.0547203705        9.8243428873       -7.3039130134  W2        2497            0.0000000000
      7491      2497  TIP3      H2             21.3653103705       10.4577828873       -6.8880030134  W2        2497            0.0000000000
      7492      2498  TIP3      OH2            17.0342503705        4.2865528873      -11.5414630134  W2        2498            0.0000000000
      7493      2498  TIP3      H1             16.5865903705        5.1324228873      -11.5598130134  W2        2498            0.0000000000
      7494      2498  TIP3      H2             16.4733703705        3.7069728873      -12.0569530134  W2        2498            0.0000000000
      7495      2499  TIP3      OH2            17.7448603705        6.4485128873       -9.4156630134  W2        2499            0.0000000000
      7496      2499  TIP3      H1             17.9582103705        5.6786728873       -8.8883630134  W2        2499            0.0000000000
      7497      2499  TIP3      H2             18.4826203705        6.5381828873      -10.0189030134  W2        2499            0.0000000000
      7498      2500  TIP3      OH2            27.9499603705       14.6054028873       -8.5486930134  W2        2500            0.0000000000
      7499      2500  TIP3      H1             28.5696003705       13.9288728873       -8.8217730134  W2        2500            0.0000000000
      7500      2500  TIP3      H2             27.7417003705       14.3874828873       -7.6402030134  W2        2500            0.0000000000
      7501      2501  TIP3      OH2            25.5218303705        8.9943328873       -6.6561430134  W2        2501            0.0000000000
      7502      2501  TIP3      H1             25.8256203705        8.3084728873       -7.2507330134  W2        2501            0.0000000000
      7503      2501  TIP3      H2             26.2432303705        9.1132028873       -6.0383430134  W2        2501            0.0000000000
      7504      2502  TIP3      OH2            34.1848103705        0.5958628873       -5.7955230134  W2        2502            0.0000000000
      7505      2502  TIP3      H1             34.2340303705        1.2059828873       -5.0596130134  W2        2502            0.0000000000
      7506      2502  TIP3      H2             34.6103203705        1.0569528873       -6.5184130134  W2        2502            0.0000000000
      7507      2503  TIP3      OH2            28.6625303705        3.3885728873       -6.3286630134  W2        2503            0.0000000000
      7508      2503  TIP3      H1             28.8051203705        2.4422728873       -6.3085030134  W2        2503            0.0000000000
      7509      2503  TIP3      H2             28.5564303705        3.5955528873       -7.2571730134  W2        2503            0.0000000000
      7510      2504  TIP3      OH2            21.8173603705        1.4902128873       -9.0561830134  W2        2504            0.0000000000
      7511      2504  TIP3      H1             21.8604703705        2.3500628873       -9.4745530134  W2        2504            0.0000000000
      7512      2504  TIP3      H2             21.3597703705        0.9376828873       -9.6898630134  W2        2504            0.0000000000
      7513      2505  TIP3      OH2            29.5396303705        1.6207728873      -10.6553530134  W2        2505            0.0000000000
      7514      2505  TIP3      H1             30.1860603705        1.2920928873      -10.0305930134  W2        2505            0.0000000000
      7515      2505  TIP3      H2             30.0495703705        2.1386728873      -11.2782130134  W2        2505            0.0000000000
      7516      2506  TIP3      OH2            18.4375103705        3.8867928873       -8.2940430134  W2        2506            0.0000000000
      7517      2506  TIP3      H1             19.0911703705        3.3369628873       -7.8620330134  W2        2506            0.0000000000
      7518      2506  TIP3      H2             18.4614403705        3.6126928873       -9.2108430134  W2        2506            0.0000000000
      7519      2507  TIP3      OH2            23.5939603705        5.4369228873       -9.0788930134  W2        2507            0.0000000000
      7520      2507  TIP3      H1             24.2100603705        4.9104628873       -8.5694930134  W2        2507            0.0000000000
      7521      2507  TIP3      H2             23.0078403705        4.7967928873       -9.4825330134  W2        2507            0.0000000000
      7522      2508  TIP3      OH2            34.5762703705        2.0737828873       -3.5595430134  W2        2508            0.0000000000
      7523      2508  TIP3      H1             33.8877303705        2.7318528873       -3.6548830134  W2        2508            0.0000000000
      7524      2508  TIP3      H2             34.5917303705        1.8765728873       -2.6230030134  W2        2508            0.0000000000
      7525      2509  TIP3      OH2            20.6275503705        0.4080528873       -4.9821030134  W2        2509            0.0000000000
      7526      2509  TIP3      H1             20.4087203705        0.9381128873       -5.7485030134  W2        2509            0.0000000000
      7527      2509  TIP3      H2             19.9596403705        0.6346028873       -4.3349630134  W2        2509            0.0000000000
      7528      2510  TIP3      OH2            27.9965303705        9.9081628873      -11.4381930134  W2        2510            0.0000000000
      7529      2510  TIP3      H1             27.7010403705        9.5853928873      -12.2895030134  W2        2510            0.0000000000
      7530      2510  TIP3      H2             27.6723103705       10.8078328873      -11.3969330134  W2        2510            0.0000000000
      7531      2511  TIP3      OH2            23.1966903705        8.0836228873       -4.6947330134  W2        2511            0.0000000000
      7532      2511  TIP3      H1             22.4566003705        8.6817728873       -4.5912130134  W2        2511            0.0000000000
      7533      2511  TIP3      H2             23.9106403705        8.6375828873       -5.0103730134  W2        2511            0.0000000000
      7534      2512  TIP3      OH2            31.3034703705        0.9117028873       -8.6747630134  W2        2512            0.0000000000
      7535      2512  TIP3      H1             31.0882703705        0.1460428873       -8.1421630134  W2        2512            0.0000000000
      7536      2512  TIP3      H2             31.9592103705        1.3841628873       -8.1619130134  W2        2512            0.0000000000
      7537      2513  TIP3      OH2            20.2212803705        2.3002328873       -7.0298830134  W2        2513            0.0000000000
      7538      2513  TIP3      H1             20.8349103705        2.9329928873       -6.6566430134  W2        2513            0.0000000000
      7539      2513  TIP3      H2             20.7333503705        1.8277328873       -7.6861930134  W2        2513            0.0000000000
      7540      2514  TIP3      OH2            21.6041203705       10.0479228873       -3.9075830134  W2        2514            0.0000000000
      7541      2514  TIP3      H1             21.5988803705       10.9272728873       -4.2856530134  W2        2514            0.0000000000
      7542      2514  TIP3      H2             20.7505303705        9.9643328873       -3.4825930134  W2        2514            0.0000000000
      7543      2515  TIP3      OH2            17.7252103705        9.7187128873      -13.1256530134  W2        2515            0.0000000000
      7544      2515  TIP3      H1             17.4533003705        9.9478128873      -14.0143630134  W2        2515            0.0000000000
      7545      2515  TIP3      H2             17.7707803705       10.5565928873      -12.6651230134  W2        2515            0.0000000000
      7546      2516  TIP3      OH2            31.3501803705       11.3403028873       -6.4128030134  W2        2516            0.0000000000
      7547      2516  TIP3      H1             30.4085503705       11.3986928873       -6.2511130134  W2        2516            0.0000000000
      7548      2516  TIP3      H2             31.6267903705       12.2463528873       -6.5498330134  W2        2516            0.0000000000
      7549      2517  TIP3      OH2            31.6508803705       -0.3731671127       -4.9954130134  W2        2517            0.0000000000
      7550      2517  TIP3      H1             30.9148003705        0.2375428873       -5.0332830134  W2        2517            0.0000000000
      7551      2517  TIP3      H2             32.3342803705        0.0417328873       -5.5217730134  W2        2517            0.0000000000
      7552      2518  TIP3      OH2            24.6540203705       -2.2864371127       -7.5296130134  W2        2518            0.0000000000
      7553      2518  TIP3      H1             24.5364403705       -3.2348371127       -7.5837830134  W2        2518            0.0000000000
      7554      2518  TIP3      H2             23.7990303705       -1.9538271127       -7.2565030134  W2        2518            0.0000000000
      7555      2519  TIP3      OH2            29.6023003705       13.1216528873       -9.7876430134  W2        2519            0.0000000000
      7556      2519  TIP3      H1             30.0275303705       12.4144428873      -10.2726830134  W2        2519            0.0000000000
      7557      2519  TIP3      H2             29.9193003705       13.9229228873      -10.2044230134  W2        2519            0.0000000000
      7558      2520  TIP3      OH2            30.7619503705       11.0225028873      -11.2789830134  W2        2520            0.0000000000
      7559      2520  TIP3      H1             30.5044303705       10.3325128873      -11.8903930134  W2        2520            0.0000000000
      7560      2520  TIP3      H2             30.8330303705       10.5796228873      -10.4333930134  W2        2520            0.0000000000
      7561      2521  TIP3      OH2            32.4479703705        9.5891728873       -2.8016330134  W2        2521            0.0000000000
      7562      2521  TIP3      H1             32.5876003705        8.9974228873       -3.5409330134  W2        2521            0.0000000000
      7563      2521  TIP3      H2             32.6152503705       10.4617628873       -3.1577530134  W2        2521            0.0000000000
      7564      2522  TIP3      OH2            26.9205103705        6.5511228873      -13.0290330134  W2        2522            0.0000000000
      7565      2522  TIP3      H1             26.2090603705        7.0860928873      -13.3809830134  W2        2522            0.0000000000
      7566      2522  TIP3      H2             27.6114703705        6.6063328873      -13.6891430134  W2        2522            0.0000000000
      7567      2523  TIP3      OH2            26.9744303705        5.0085528873      -15.9905330134  W2        2523            0.0000000000
      7568      2523  TIP3      H1             27.6754203705        5.0312428873      -15.3391330134  W2        2523            0.0000000000
      7569      2523  TIP3      H2             27.2767203705        4.3805228873      -16.6466030134  W2        2523            0.0000000000
      7570      2524  TIP3      OH2            34.2899003705        5.9289728873       -4.7355930134  W2        2524            0.0000000000
      7571      2524  TIP3      H1             33.6373103705        6.6235328873       -4.6465030134  W2        2524            0.0000000000
      7572      2524  TIP3      H2             34.7549303705        6.1390628873       -5.5454330134  W2        2524            0.0000000000
      7573      2525  TIP3      OH2            30.3262803705        6.7604528873      -12.0774430134  W2        2525            0.0000000000
      7574      2525  TIP3      H1             29.5943803705        6.9888228873      -11.5043830134  W2        2525            0.0000000000
      7575      2525  TIP3      H2             30.7735003705        6.0467228873      -11.6226930134  W2        2525            0.0000000000
      7576      2526  TIP3      OH2            30.2236303705        4.9347128873       -3.0097430134  W2        2526            0.0000000000
      7577      2526  TIP3      H1             30.3035403705        5.6981528873       -2.4378930134  W2        2526            0.0000000000
      7578      2526  TIP3      H2             29.6224003705        5.2139528873       -3.7002330134  W2        2526            0.0000000000
      7579      2527  TIP3      OH2            21.9716503705        7.3910728873      -10.1949430134  W2        2527            0.0000000000
      7580      2527  TIP3      H1             21.6411703705        7.0204128873      -11.0132430134  W2        2527            0.0000000000
      7581      2527  TIP3      H2             22.5600603705        6.7204728873       -9.8481130134  W2        2527            0.0000000000
      7582      2528  TIP3      OH2            23.3384003705       10.8191328873       -7.5137230134  W2        2528            0.0000000000
      7583      2528  TIP3      H1             23.2435303705       10.2404428873       -8.2702630134  W2        2528            0.0000000000
      7584      2528  TIP3      H2             24.0677603705       10.4477028873       -7.0174430134  W2        2528            0.0000000000
      7585      2529  TIP3      OH2            22.3382003705        6.1596328873       -6.5614430134  W2        2529            0.0000000000
      7586      2529  TIP3      H1             22.9034503705        6.2810528873       -7.3243230134  W2        2529            0.0000000000
      7587      2529  TIP3      H2             22.6570903705        6.7971328873       -5.9225930134  W2        2529            0.0000000000
      7588      2530  TIP3      OH2            28.6474203705       11.6628228873       -5.8273930134  W2        2530            0.0000000000
      7589      2530  TIP3      H1             28.4070803705       12.3251328873       -5.1794730134  W2        2530            0.0000000000
      7590      2530  TIP3      H2             28.4492403705       10.8283428873       -5.4024330134  W2        2530            0.0000000000
      7591      2531  TIP3      OH2            23.2182703705       10.5589028873       -1.8442530134  W2        2531            0.0000000000
      7592      2531  TIP3      H1             22.9070203705       11.3412228873       -1.3889330134  W2        2531            0.0000000000
      7593      2531  TIP3      H2             22.5682903705       10.4058128873       -2.5300530134  W2        2531            0.0000000000
      7594      2532  TIP3      OH2            29.1972303705        5.9227428873      -14.3923230134  W2        2532            0.0000000000
      7595      2532  TIP3      H1             29.7767803705        6.0727728873      -13.6454330134  W2        2532            0.0000000000
      7596      2532  TIP3      H2             29.6112303705        6.3934828873      -15.1156830134  W2        2532            0.0000000000
      7597      2533  TIP3      OH2            20.1382603705        6.7570128873       -2.6156830134  W2        2533            0.0000000000
      7598      2533  TIP3      H1             20.2085803705        7.4076928873       -1.9171830134  W2        2533            0.0000000000
      7599      2533  TIP3      H2             19.2474803705        6.8597628873       -2.9505930134  W2        2533            0.0000000000
      7600      2534  TIP3      OH2            26.9237203705       12.6595928873      -10.9570130134  W2        2534            0.0000000000
      7601      2534  TIP3      H1             27.3974803705       12.9552228873      -10.1795930134  W2        2534            0.0000000000
      7602      2534  TIP3      H2             26.3606503705       13.3977528873      -11.1900530134  W2        2534            0.0000000000
      7603      2535  TIP3      OH2            21.4578603705       12.6304028873       -1.0808730134  W2        2535            0.0000000000
      7604      2535  TIP3      H1             21.4653903705       12.4943728873       -2.0283230134  W2        2535            0.0000000000
      7605      2535  TIP3      H2             20.5419003705       12.5132128873       -0.8288730134  W2        2535            0.0000000000
      7606      2536  TIP3      OH2            32.8960703705       -2.3272171127      -14.5793530134  W2        2536            0.0000000000
      7607      2536  TIP3      H1             31.9961403705       -2.1883171127      -14.2842930134  W2        2536            0.0000000000
      7608      2536  TIP3      H2             33.1479103705       -1.4957571127      -14.9811830134  W2        2536            0.0000000000
      7609      2537  TIP3      OH2            20.9619203705        6.4605028873      -12.6056630134  W2        2537            0.0000000000
      7610      2537  TIP3      H1             20.6700503705        7.2286728873      -13.0965330134  W2        2537            0.0000000000
      7611      2537  TIP3      H2             20.2874403705        5.8011228873      -12.7685230134  W2        2537            0.0000000000
      7612      2538  TIP3      OH2            34.0852103705       12.0390228873      -16.2029630134  W2        2538            0.0000000000
      7613      2538  TIP3      H1             34.1585603705       12.9780428873      -16.0324330134  W2        2538            0.0000000000
      7614      2538  TIP3      H2             34.9907203705       11.7338828873      -16.2592330134  W2        2538            0.0000000000
      7615      2539  TIP3      OH2            17.0549303705        8.8234228873       -3.7906830134  W2        2539            0.0000000000
      7616      2539  TIP3      H1             16.5537703705        8.7953628873       -4.6057130134  W2        2539            0.0000000000
      7617      2539  TIP3      H2             17.0603003705        7.9177428873       -3.4809530134  W2        2539            0.0000000000
      7618      2540  TIP3      OH2            16.8052003705       11.6038028873       -6.9066630134  W2        2540            0.0000000000
      7619      2540  TIP3      H1             17.7512603705       11.4595028873       -6.9257130134  W2        2540            0.0000000000
      7620      2540  TIP3      H2             16.6928303705       12.3880828873       -6.3695430134  W2        2540            0.0000000000
      7621      2541  TIP3      OH2            35.0030503705       12.2697728873       -1.2242930134  W2        2541            0.0000000000
      7622      2541  TIP3      H1             34.9537303705       11.3145828873       -1.2615330134  W2        2541            0.0000000000
      7623      2541  TIP3      H2             34.1762803705       12.5373028873       -0.8229130134  W2        2541            0.0000000000
      7624      2542  TIP3      OH2            25.9814503705       11.8436928873       -2.3481530134  W2        2542            0.0000000000
      7625      2542  TIP3      H1             26.0689103705       12.6701528873       -1.8732430134  W2        2542            0.0000000000
      7626      2542  TIP3      H2             25.1179603705       11.5140728873       -2.0992230134  W2        2542            0.0000000000
      7627      2543  TIP3      OH2            26.3960303705       15.6160628873      -12.5420930134  W2        2543            0.0000000000
      7628      2543  TIP3      H1             26.3206303705       15.4947828873      -13.4885730134  W2        2543            0.0000000000
      7629      2543  TIP3      H2             26.4289003705       16.5653328873      -12.4236330134  W2        2543            0.0000000000
      7630      2544  TIP3      OH2            20.0494103705       14.4047628873      -10.7611930134  W2        2544            0.0000000000
      7631      2544  TIP3      H1             20.2014503705       14.0568028873       -9.8825430134  W2        2544            0.0000000000
      7632      2544  TIP3      H2             19.1984503705       14.0484928873      -11.0164730134  W2        2544            0.0000000000
      7633      2545  TIP3      OH2            29.4976303705       14.7700828873      -15.5398530134  W2        2545            0.0000000000
      7634      2545  TIP3      H1             29.8724703705       14.0256928873      -16.0105930134  W2        2545            0.0000000000
      7635      2545  TIP3      H2             29.5020003705       14.5001428873      -14.6215230134  W2        2545            0.0000000000
      7636      2546  TIP3      OH2            29.1664403705       14.6957928873      -12.7906330134  W2        2546            0.0000000000
      7637      2546  TIP3      H1             28.2314203705       14.7959828873      -12.6119330134  W2        2546            0.0000000000
      7638      2546  TIP3      H2             29.4466303705       13.9863928873      -12.2123130134  W2        2546            0.0000000000
      7639      2547  TIP3      OH2            32.1550303705        3.7630228873       -0.7440730134  W2        2547            0.0000000000
      7640      2547  TIP3      H1             31.7477103705        4.2435828873       -1.4647430134  W2        2547            0.0000000000
      7641      2547  TIP3      H2             32.1956003705        2.8576228873       -1.0519930134  W2        2547            0.0000000000
      7642      2548  TIP3      OH2            19.3039803705       10.1469628873       -2.7474030134  W2        2548            0.0000000000
      7643      2548  TIP3      H1             19.5201103705        9.7855228873       -1.8878230134  W2        2548            0.0000000000
      7644      2548  TIP3      H2             18.4484503705        9.7723428873       -2.9570530134  W2        2548            0.0000000000
      7645      2549  TIP3      OH2            21.9227803705       -1.3829871127       -6.7519830134  W2        2549            0.0000000000
      7646      2549  TIP3      H1             21.0611503705       -1.4701671127       -7.1596930134  W2        2549            0.0000000000
      7647      2549  TIP3      H2             21.9003503705       -0.5269771127       -6.3242230134  W2        2549            0.0000000000
      7648      2550  TIP3      OH2            26.5855603705       -1.6609471127       -3.3772830134  W2        2550            0.0000000000
      7649      2550  TIP3      H1             27.0058703705       -2.0762371127       -2.6242230134  W2        2550            0.0000000000
      7650      2550  TIP3      H2             25.6525203705       -1.8396171127       -3.2600830134  W2        2550            0.0000000000
      7651      2551  TIP3      OH2            29.9120503705        2.0945728873       -2.5238330134  W2        2551            0.0000000000
      7652      2551  TIP3      H1             29.3980003705        1.9687928873       -1.7262330134  W2        2551            0.0000000000
      7653      2551  TIP3      H2             29.7565203705        3.0068828873       -2.7682130134  W2        2551            0.0000000000
      7654      2552  TIP3      OH2            30.6745403705        6.9555728873      -16.7625330134  W2        2552            0.0000000000
      7655      2552  TIP3      H1             30.7166203705        6.7329628873      -17.6925330134  W2        2552            0.0000000000
      7656      2552  TIP3      H2             31.5237503705        7.3542828873      -16.5725430134  W2        2552            0.0000000000
      7657      2553  TIP3      OH2            26.2472903705        0.8313928873      -16.0922030134  W2        2553            0.0000000000
      7658      2553  TIP3      H1             25.9937703705        0.8505528873      -15.1693930134  W2        2553            0.0000000000
      7659      2553  TIP3      H2             25.9905003705       -0.0400671127      -16.3935830134  W2        2553            0.0000000000
      7660      2554  TIP3      OH2            22.0137903705        3.5824628873       -5.6569630134  W2        2554            0.0000000000
      7661      2554  TIP3      H1             21.3720003705        3.5421928873       -4.9479530134  W2        2554            0.0000000000
      7662      2554  TIP3      H2             22.0509903705        4.5089328873       -5.8946630134  W2        2554            0.0000000000
      7663      2555  TIP3      OH2            22.0107003705        3.8034728873      -10.7449630134  W2        2555            0.0000000000
      7664      2555  TIP3      H1             21.1179903705        3.4630828873      -10.8035830134  W2        2555            0.0000000000
      7665      2555  TIP3      H2             22.4613603705        3.4265628873      -11.5006430134  W2        2555            0.0000000000
      7666      2556  TIP3      OH2            27.5462503705        4.2195028873      -11.9278830134  W2        2556            0.0000000000
      7667      2556  TIP3      H1             27.1372803705        5.0343628873      -12.2194030134  W2        2556            0.0000000000
      7668      2556  TIP3      H2             28.2668703705        4.0795128873      -12.5421730134  W2        2556            0.0000000000
      7669      2557  TIP3      OH2            26.6484103705        4.3951428873       -0.4398130134  W2        2557            0.0000000000
      7670      2557  TIP3      H1             26.0857903705        3.6903028873       -0.1190330134  W2        2557            0.0000000000
      7671      2557  TIP3      H2             27.4747503705        4.2743328873        0.0279469866  W2        2557            0.0000000000
      7672      2558  TIP3      OH2            28.5510203705        3.6655428873       -9.1139130134  W2        2558            0.0000000000
      7673      2558  TIP3      H1             28.3554703705        4.2712228873       -9.8288530134  W2        2558            0.0000000000
      7674      2558  TIP3      H2             28.7322803705        2.8320628873       -9.5482830134  W2        2558            0.0000000000
      7675      2559  TIP3      OH2            19.7638403705        3.9028128873       -3.7897630134  W2        2559            0.0000000000
      7676      2559  TIP3      H1             19.7257803705        4.3029728873       -2.9210530134  W2        2559            0.0000000000
      7677      2559  TIP3      H2             19.2729503705        3.0860528873       -3.6994730134  W2        2559            0.0000000000
      7678      2560  TIP3      OH2            23.1295803705        1.2770428873      -16.9911630134  W2        2560            0.0000000000
      7679      2560  TIP3      H1             22.6986503705        0.8320528873      -16.2614230134  W2        2560            0.0000000000
      7680      2560  TIP3      H2             22.4114503705        1.6486728873      -17.5034130134  W2        2560            0.0000000000
      7681      2561  TIP3      OH2            16.3719203705        1.0189928873       -9.9392930134  W2        2561            0.0000000000
      7682      2561  TIP3      H1             17.0026903705        0.9902028873       -9.2199030134  W2        2561            0.0000000000
      7683      2561  TIP3      H2             16.8213503705        0.5938628873      -10.6697030134  W2        2561            0.0000000000
      7684      2562  TIP3      OH2            17.6461303705        1.7651928873      -14.5152530134  W2        2562            0.0000000000
      7685      2562  TIP3      H1             18.1203003705        2.3561828873      -15.1001630134  W2        2562            0.0000000000
      7686      2562  TIP3      H2             16.9287703705        2.2954828873      -14.1682430134  W2        2562            0.0000000000
      7687      2563  TIP3      OH2            27.8149403705        5.3036728873       -4.4426730134  W2        2563            0.0000000000
      7688      2563  TIP3      H1             28.1384203705        4.6726428873       -5.0856230134  W2        2563            0.0000000000
      7689      2563  TIP3      H2             27.3748703705        4.7688928873       -3.7819330134  W2        2563            0.0000000000
      7690      2564  TIP3      OH2            24.5922303705        1.2312228873       -9.6585530134  W2        2564            0.0000000000
      7691      2564  TIP3      H1             23.6813403705        1.2879028873       -9.3699530134  W2        2564            0.0000000000
      7692      2564  TIP3      H2             25.0975203705        1.1707728873       -8.8478330134  W2        2564            0.0000000000
      7693      2565  TIP3      OH2            19.4205703705        2.8598528873      -10.8317930134  W2        2565            0.0000000000
      7694      2565  TIP3      H1             18.5313703705        2.9594028873      -11.1718330134  W2        2565            0.0000000000
      7695      2565  TIP3      H2             19.7170603705        2.0181528873      -11.1780030134  W2        2565            0.0000000000
      7696      2566  TIP3      OH2            23.0737503705        2.8601128873      -13.1753330134  W2        2566            0.0000000000
      7697      2566  TIP3      H1             24.0053003705        2.9891128873      -12.9970230134  W2        2566            0.0000000000
      7698      2566  TIP3      H2             22.8587803705        3.5295428873      -13.8248630134  W2        2566            0.0000000000
      7699      2567  TIP3      OH2            28.9974203705        0.4658528873       -6.3943730134  W2        2567            0.0000000000
      7700      2567  TIP3      H1             28.3205803705        0.5971628873       -5.7304030134  W2        2567            0.0000000000
      7701      2567  TIP3      H2             28.5119103705        0.3108028873       -7.2046030134  W2        2567            0.0000000000
      7702      2568  TIP3      OH2            21.7477703705        4.0543328873      -15.6087230134  W2        2568            0.0000000000
      7703      2568  TIP3      H1             21.2052803705        3.6747128873      -16.2999630134  W2        2568            0.0000000000
      7704      2568  TIP3      H2             22.5812603705        4.2488028873      -16.0373130134  W2        2568            0.0000000000
      7705      2569  TIP3      OH2            32.2849303705       16.1373928873       -0.1176130134  W2        2569            0.0000000000
      7706      2569  TIP3      H1             32.4848003705       16.5615828873       -0.9520830134  W2        2569            0.0000000000
      7707      2569  TIP3      H2             32.9403003705       16.4812128873        0.4894269866  W2        2569            0.0000000000
      7708      2570  TIP3      OH2            19.8829103705        8.6115228873       -0.5095630134  W2        2570            0.0000000000
      7709      2570  TIP3      H1             20.6151503705        8.8661128873        0.0518869866  W2        2570            0.0000000000
      7710      2570  TIP3      H2             19.1027803705        8.8160628873        0.0059769866  W2        2570            0.0000000000
      7711      2571  TIP3      OH2            25.9122003705        4.0185228873       -7.7715930134  W2        2571            0.0000000000
      7712      2571  TIP3      H1             26.4765403705        3.4721828873       -8.3186330134  W2        2571            0.0000000000
      7713      2571  TIP3      H2             25.7645403705        3.4967128873       -6.9828330134  W2        2571            0.0000000000
      7714      2572  TIP3      OH2            20.9141703705        0.1551328873      -11.3531130134  W2        2572            0.0000000000
      7715      2572  TIP3      H1             20.5971203705       -0.7473371127      -11.3885730134  W2        2572            0.0000000000
      7716      2572  TIP3      H2             21.6955803705        0.1568728873      -11.9059530134  W2        2572            0.0000000000
      7717      2573  TIP3      OH2            24.5387903705        2.4071328873       -5.3575530134  W2        2573            0.0000000000
      7718      2573  TIP3      H1             23.7033203705        2.8610828873       -5.2473130134  W2        2573            0.0000000000
      7719      2573  TIP3      H2             25.0628503705        2.6829828873       -4.6055630134  W2        2573            0.0000000000
      7720      2574  TIP3      OH2            25.0830503705        8.6199028873      -13.6729130134  W2        2574            0.0000000000
      7721      2574  TIP3      H1             24.3381503705        8.1124328873      -13.9951230134  W2        2574            0.0000000000
      7722      2574  TIP3      H2             24.9487703705        8.6687028873      -12.7264330134  W2        2574            0.0000000000
      7723      2575  TIP3      OH2            32.2329403705        7.7527228873       -4.8861530134  W2        2575            0.0000000000
      7724      2575  TIP3      H1             32.8748203705        8.2093528873       -5.4299330134  W2        2575            0.0000000000
      7725      2575  TIP3      H2             31.4026303705        7.8659628873       -5.3487430134  W2        2575            0.0000000000
      7726      2576  TIP3      OH2            28.9807303705        1.4338928873      -15.4736530134  W2        2576            0.0000000000
      7727      2576  TIP3      H1             28.0421503705        1.5454528873      -15.6247730134  W2        2576            0.0000000000
      7728      2576  TIP3      H2             29.2779403705        2.2905828873      -15.1670830134  W2        2576            0.0000000000
      7729      2577  TIP3      OH2            26.6022603705        8.8042328873       -2.4360030134  W2        2577            0.0000000000
      7730      2577  TIP3      H1             26.2568703705        8.4224728873       -1.6290430134  W2        2577            0.0000000000
      7731      2577  TIP3      H2             26.4022703705        9.7375928873       -2.3647130134  W2        2577            0.0000000000
      7732      2578  TIP3      OH2            29.6990803705        3.3011628873      -13.8129130134  W2        2578            0.0000000000
      7733      2578  TIP3      H1             30.5909803705        3.1636628873      -13.4937930134  W2        2578            0.0000000000
      7734      2578  TIP3      H2             29.7554403705        4.0917728873      -14.3495630134  W2        2578            0.0000000000
      7735      2579  TIP3      OH2            20.2078803705        7.9149028873       -7.9031230134  W2        2579            0.0000000000
      7736      2579  TIP3      H1             20.9526003705        7.9124728873       -8.5044730134  W2        2579            0.0000000000
      7737      2579  TIP3      H2             20.2855403705        7.0912828873       -7.4216130134  W2        2579            0.0000000000
      7738      2580  TIP3      OH2            27.2084603705       10.0783328873      -14.6474530134  W2        2580            0.0000000000
      7739      2580  TIP3      H1             26.9133003705       10.9051228873      -14.2659730134  W2        2580            0.0000000000
      7740      2580  TIP3      H2             26.5054603705        9.4590228873      -14.4513130134  W2        2580            0.0000000000
      7741      2581  TIP3      OH2            17.2158503705        6.3755928873       -2.5882730134  W2        2581            0.0000000000
      7742      2581  TIP3      H1             17.4387103705        5.9575528873       -1.7565230134  W2        2581            0.0000000000
      7743      2581  TIP3      H2             16.6138603705        5.7630928873       -3.0109930134  W2        2581            0.0000000000
      7744      2582  TIP3      OH2            24.2323403705        5.8925828873       -0.3753030134  W2        2582            0.0000000000
      7745      2582  TIP3      H1             23.9364203705        5.7268828873       -1.2703930134  W2        2582            0.0000000000
      7746      2582  TIP3      H2             25.1638603705        5.6726128873       -0.3859130134  W2        2582            0.0000000000
      7747      2583  TIP3      OH2            28.8526203705       11.2657828873       -2.4855030134  W2        2583            0.0000000000
      7748      2583  TIP3      H1             27.9520503705       11.4490428873       -2.7531130134  W2        2583            0.0000000000
      7749      2583  TIP3      H2             28.8867303705       11.5247128873       -1.5646230134  W2        2583            0.0000000000
      7750      2584  TIP3      OH2            34.5839503705        3.5105728873      -14.1182430134  W2        2584            0.0000000000
      7751      2584  TIP3      H1             34.0295803705        3.1143728873      -14.7904930134  W2        2584            0.0000000000
      7752      2584  TIP3      H2             34.6843103705        4.4210928873      -14.3959130134  W2        2584            0.0000000000
      7753      2585  TIP3      OH2            34.5471503705        9.3107428873       -1.2810930134  W2        2585            0.0000000000
      7754      2585  TIP3      H1             33.6960003705        9.5491228873       -1.6484530134  W2        2585            0.0000000000
      7755      2585  TIP3      H2             35.1374903705        9.2940628873       -2.0343830134  W2        2585            0.0000000000
      7756      2586  TIP3      OH2            32.8791203705       12.2966128873      -13.6530330134  W2        2586            0.0000000000
      7757      2586  TIP3      H1             32.5062303705       11.4709928873      -13.3439730134  W2        2586            0.0000000000
      7758      2586  TIP3      H2             33.1564703705       12.1135528873      -14.5506930134  W2        2586            0.0000000000
      7759      2587  TIP3      OH2            30.0395103705        7.1045628873       -6.6318430134  W2        2587            0.0000000000
      7760      2587  TIP3      H1             29.1112003705        6.8727528873       -6.6589130134  W2        2587            0.0000000000
      7761      2587  TIP3      H2             30.4906203705        6.3275428873       -6.9619630134  W2        2587            0.0000000000
      7762      2588  TIP3      OH2            22.5828203705       11.4327228873      -10.4989730134  W2        2588            0.0000000000
      7763      2588  TIP3      H1             23.1100403705       12.2061628873      -10.6990930134  W2        2588            0.0000000000
      7764      2588  TIP3      H2             21.7026703705       11.6576428873      -10.8005730134  W2        2588            0.0000000000
      7765      2589  TIP3      OH2            18.3375903705        6.2951328873      -15.9117330134  W2        2589            0.0000000000
      7766      2589  TIP3      H1             18.9535803705        6.9218528873      -15.5322530134  W2        2589            0.0000000000
      7767      2589  TIP3      H2             17.4758503705        6.6111128873      -15.6400830134  W2        2589            0.0000000000
      7768      2590  TIP3      OH2            24.0100503705        9.0957128873      -10.9225430134  W2        2590            0.0000000000
      7769      2590  TIP3      H1             23.7690503705       10.0211528873      -10.8810130134  W2        2590            0.0000000000
      7770      2590  TIP3      H2             23.2694103705        8.6368428873      -10.5261530134  W2        2590            0.0000000000
      7771      2591  TIP3      OH2            24.5247103705       13.2450728873       -4.6074330134  W2        2591            0.0000000000
      7772      2591  TIP3      H1             24.8871803705       14.0996328873       -4.8409930134  W2        2591            0.0000000000
      7773      2591  TIP3      H2             25.0562303705       12.9532328873       -3.8668030134  W2        2591            0.0000000000
      7774      2592  TIP3      OH2            22.6931303705       14.1174728873      -11.3773230134  W2        2592            0.0000000000
      7775      2592  TIP3      H1             21.7431803705       14.2232128873      -11.3259930134  W2        2592            0.0000000000
      7776      2592  TIP3      H2             23.0449403705       14.9382128873      -11.0325730134  W2        2592            0.0000000000
      7777      2593  TIP3      OH2            28.0687903705        9.3441428873       -4.9068730134  W2        2593            0.0000000000
      7778      2593  TIP3      H1             27.6429203705        9.1163128873       -4.0804730134  W2        2593            0.0000000000
      7779      2593  TIP3      H2             28.6493703705        8.6053228873       -5.0893430134  W2        2593            0.0000000000
      7780      2594  TIP3      OH2            30.2716803705       10.2731928873      -15.8329730134  W2        2594            0.0000000000
      7781      2594  TIP3      H1             30.6249903705        9.8931728873      -15.0286230134  W2        2594            0.0000000000
      7782      2594  TIP3      H2             29.3230303705       10.1796728873      -15.7460430134  W2        2594            0.0000000000
      7783      2595  TIP3      OH2            30.7272103705       13.8960928873       -2.4373930134  W2        2595            0.0000000000
      7784      2595  TIP3      H1             30.1255303705       13.3403828873       -2.9327630134  W2        2595            0.0000000000
      7785      2595  TIP3      H2             31.0085803705       14.5630728873       -3.0636530134  W2        2595            0.0000000000
      7786      2596  TIP3      OH2            34.7751203705       14.7524428873      -15.6319530134  W2        2596            0.0000000000
      7787      2596  TIP3      H1             35.5189103705       15.3384928873      -15.7717930134  W2        2596            0.0000000000
      7788      2596  TIP3      H2             34.0809303705       15.3210228873      -15.2987130134  W2        2596            0.0000000000
      7789      2597  TIP3      OH2            18.8498003705        1.1288628873       -3.0301330134  W2        2597            0.0000000000
      7790      2597  TIP3      H1             17.9570303705        1.4674028873       -3.0977330134  W2        2597            0.0000000000
      7791      2597  TIP3      H2             18.7510803705        0.2734728873       -2.6120530134  W2        2597            0.0000000000
      7792      2598  TIP3      OH2            31.1376103705        8.9453928873      -13.6061830134  W2        2598            0.0000000000
      7793      2598  TIP3      H1             30.8603703705        8.2173228873      -13.0500730134  W2        2598            0.0000000000
      7794      2598  TIP3      H2             32.0649103705        9.0645928873      -13.4009230134  W2        2598            0.0000000000
      7795      2599  TIP3      OH2            18.5010003705       12.9333028873       -4.5951930134  W2        2599            0.0000000000
      7796      2599  TIP3      H1             18.7180303705       12.0015428873       -4.6262230134  W2        2599            0.0000000000
      7797      2599  TIP3      H2             18.7473503705       13.2078028873       -3.7119130134  W2        2599            0.0000000000
      7798      2600  TIP3      OH2            24.3624603705       11.3848028873      -17.3859730134  W2        2600            0.0000000000
      7799      2600  TIP3      H1             24.6014403705       10.6366128873      -17.9330830134  W2        2600            0.0000000000
      7800      2600  TIP3      H2             24.0935903705       10.9969728873      -16.5531930134  W2        2600            0.0000000000
      7801      2601  TIP3      OH2            23.2995203705       10.9551828873      -14.9297130134  W2        2601            0.0000000000
      7802      2601  TIP3      H1             23.4463203705       10.4351628873      -14.1396230134  W2        2601            0.0000000000
      7803      2601  TIP3      H2             23.2966903705       11.8619428873      -14.6231230134  W2        2601            0.0000000000
      7804      2602  TIP3      OH2            19.7526303705        8.2075128873      -14.4191730134  W2        2602            0.0000000000
      7805      2602  TIP3      H1             19.0665603705        8.5597628873      -13.8522030134  W2        2602            0.0000000000
      7806      2602  TIP3      H2             20.2754203705        8.9704728873      -14.6657430134  W2        2602            0.0000000000
      7807      2603  TIP3      OH2            27.5841403705        0.8698928873       -4.1402730134  W2        2603            0.0000000000
      7808      2603  TIP3      H1             28.2829303705        0.9437628873       -3.4903030134  W2        2603            0.0000000000
      7809      2603  TIP3      H2             27.2032803705        0.0053928873       -3.9859830134  W2        2603            0.0000000000
      7810      2604  TIP3      OH2            28.3686303705        0.5220628873      -13.0430430134  W2        2604            0.0000000000
      7811      2604  TIP3      H1             28.5884603705        0.9936028873      -13.8465030134  W2        2604            0.0000000000
      7812      2604  TIP3      H2             28.9270303705        0.9163228873      -12.3729830134  W2        2604            0.0000000000
      7813      2605  TIP3      OH2            26.0372403705       12.6525428873      -14.1802930134  W2        2605            0.0000000000
      7814      2605  TIP3      H1             25.2208503705       13.1495128873      -14.1278630134  W2        2605            0.0000000000
      7815      2605  TIP3      H2             26.5668703705       13.1278928873      -14.8204130134  W2        2605            0.0000000000
      7816      2606  TIP3      OH2            25.5686203705        2.2499428873      -12.2082030134  W2        2606            0.0000000000
      7817      2606  TIP3      H1             26.3808803705        2.7542628873      -12.1620330134  W2        2606            0.0000000000
      7818      2606  TIP3      H2             25.3239203705        2.1049128873      -11.2942430134  W2        2606            0.0000000000
      7819      2607  TIP3      OH2            26.1042603705        3.2362128873       -3.0235430134  W2        2607            0.0000000000
      7820      2607  TIP3      H1             26.2232903705        3.8097528873       -2.2665030134  W2        2607            0.0000000000
      7821      2607  TIP3      H2             26.7597203705        2.5481528873       -2.9087630134  W2        2607            0.0000000000
      7822      2608  TIP3      OH2            26.4522903705       -0.6687571127      -11.2700930134  W2        2608            0.0000000000
      7823      2608  TIP3      H1             26.1056403705       -0.0516971127      -10.6256630134  W2        2608            0.0000000000
      7824      2608  TIP3      H2             27.1109803705       -0.1681871127      -11.7515430134  W2        2608            0.0000000000
      7825      2609  TIP3      OH2            23.3755503705       13.6962628873      -14.1986030134  W2        2609            0.0000000000
      7826      2609  TIP3      H1             23.5364203705       14.4960128873      -14.6993430134  W2        2609            0.0000000000
      7827      2609  TIP3      H2             23.1783303705       14.0028628873      -13.3135430134  W2        2609            0.0000000000
      7828      2610  TIP3      OH2            22.1099903705        0.3941828873      -14.5828430134  W2        2610            0.0000000000
      7829      2610  TIP3      H1             22.0264703705        1.2824928873      -14.2362030134  W2        2610            0.0000000000
      7830      2610  TIP3      H2             23.0000203705        0.1288528873      -14.3511630134  W2        2610            0.0000000000
      7831      2611  TIP3      OH2            32.3088403705        1.1432428873       -2.1885730134  W2        2611            0.0000000000
      7832      2611  TIP3      H1             31.3924203705        1.4054128873       -2.2762030134  W2        2611            0.0000000000
      7833      2611  TIP3      H2             32.6443403705        1.1401428873       -3.0850430134  W2        2611            0.0000000000
      7834      2612  TIP3      OH2            30.9109403705        4.8933428873       -8.0928430134  W2        2612            0.0000000000
      7835      2612  TIP3      H1             30.1133803705        4.4783628873       -8.4213430134  W2        2612            0.0000000000
      7836      2612  TIP3      H2             31.3560503705        4.2027128873       -7.6017930134  W2        2612            0.0000000000
      7837      2613  TIP3      OH2            20.3685203705       10.8214028873      -15.5223930134  W2        2613            0.0000000000
      7838      2613  TIP3      H1             20.9606703705       11.5208828873      -15.2461530134  W2        2613            0.0000000000
      7839      2613  TIP3      H2             20.8278203705       10.3883528873      -16.2419330134  W2        2613            0.0000000000
      7840      2614  TIP3      OH2            18.6844403705        3.4857028873      -16.4064530134  W2        2614            0.0000000000
      7841      2614  TIP3      H1             18.6397003705        4.4250128873      -16.2277530134  W2        2614            0.0000000000
      7842      2614  TIP3      H2             17.7967603705        3.2501928873      -16.6762430134  W2        2614            0.0000000000
      7843      2615  TIP3      OH2            31.9974003705       14.1495928873       -6.4704930134  W2        2615            0.0000000000
      7844      2615  TIP3      H1             31.8418303705       14.8280328873       -7.1275630134  W2        2615            0.0000000000
      7845      2615  TIP3      H2             32.9300403705       14.2215228873       -6.2674330134  W2        2615            0.0000000000
      7846      2616  TIP3      OH2            19.4926403705       -1.7326371127       -7.7333530134  W2        2616            0.0000000000
      7847      2616  TIP3      H1             19.2636203705       -1.6733871127       -8.6608530134  W2        2616            0.0000000000
      7848      2616  TIP3      H2             19.0499803705       -2.5240871127       -7.4269430134  W2        2616            0.0000000000
      7849      2617  TIP3      OH2            18.4229703705       12.2080728873      -11.5727730134  W2        2617            0.0000000000
      7850      2617  TIP3      H1             17.5908303705       12.6803428873      -11.5456330134  W2        2617            0.0000000000
      7851      2617  TIP3      H2             18.9688003705       12.7178328873      -12.1714630134  W2        2617            0.0000000000
      7852      2618  TIP3      OH2            17.7113403705       14.8204428873       -0.2429730134  W2        2618            0.0000000000
      7853      2618  TIP3      H1             18.2515603705       14.6038428873        0.5169469866  W2        2618            0.0000000000
      7854      2618  TIP3      H2             17.2301403705       14.0150428873       -0.4327230134  W2        2618            0.0000000000
      7855      2619  TIP3      OH2            22.3086803705       13.7398828873        1.3774469866  W2        2619            0.0000000000
      7856      2619  TIP3      H1             23.0764003705       13.2809628873        1.7183669866  W2        2619            0.0000000000
      7857      2619  TIP3      H2             22.2873003705       13.5138628873        0.4475669866  W2        2619            0.0000000000
      7858      2620  TIP3      OH2            26.4006403705       13.2479428873      -17.2473730134  W2        2620            0.0000000000
      7859      2620  TIP3      H1             25.7567403705       12.6168028873      -16.9260030134  W2        2620            0.0000000000
      7860      2620  TIP3      H2             27.1624703705       12.7167428873      -17.4790230134  W2        2620            0.0000000000
      7861      2621  TIP3      OH2            28.8855503705       12.1199928873        0.1065969866  W2        2621            0.0000000000
      7862      2621  TIP3      H1             28.5345003705       11.2632928873        0.3496369866  W2        2621            0.0000000000
      7863      2621  TIP3      H2             29.6118703705       12.2626628873        0.7134969866  W2        2621            0.0000000000
      7864      2622  TIP3      OH2            31.0049303705       13.0649328873      -17.0135730134  W2        2622            0.0000000000
      7865      2622  TIP3      H1             31.2879703705       12.2704528873      -16.5608830134  W2        2622            0.0000000000
      7866      2622  TIP3      H2             31.7447203705       13.2980328873      -17.5744630134  W2        2622            0.0000000000
      7867      2623  TIP3      OH2            17.6182903705        8.6308528873        0.7114569866  W2        2623            0.0000000000
      7868      2623  TIP3      H1             17.7623403705        7.7289228873        0.4251269866  W2        2623            0.0000000000
      7869      2623  TIP3      H2             16.8460303705        8.9170628873        0.2236869866  W2        2623            0.0000000000
      7870      2624  TIP3      OH2            21.9596603705        8.9744228873      -17.1560830134  W2        2624            0.0000000000
      7871      2624  TIP3      H1             22.0240703705        8.1803828873      -16.6254430134  W2        2624            0.0000000000
      7872      2624  TIP3      H2             22.6125803705        8.8557028873      -17.8458830134  W2        2624            0.0000000000
      7873      2625  TIP3      OH2            24.2739003705        8.6006628873        0.1440969866  W2        2625            0.0000000000
      7874      2625  TIP3      H1             23.9452803705        8.8714728873       -0.7131630134  W2        2625            0.0000000000
      7875      2625  TIP3      H2             24.4257203705        7.6596428873        0.0565969866  W2        2625            0.0000000000
      7876      2626  TIP3      OH2            27.3120003705       10.0215928873      -17.4202830134  W2        2626            0.0000000000
      7877      2626  TIP3      H1             27.0434103705       10.2018028873      -16.5193930134  W2        2626            0.0000000000
      7878      2626  TIP3      H2             27.1055603705        9.0962128873      -17.5517030134  W2        2626            0.0000000000
      7879      2627  TIP3      OH2            30.0084203705        8.5163928873       -2.4726730134  W2        2627            0.0000000000
      7880      2627  TIP3      H1             30.7539003705        9.1047628873       -2.5922730134  W2        2627            0.0000000000
      7881      2627  TIP3      H2             29.2511003705        9.0983628873       -2.4093630134  W2        2627            0.0000000000
      7882      2628  TIP3      OH2            18.4509403705        5.8311828873        0.1313869866  W2        2628            0.0000000000
      7883      2628  TIP3      H1             18.8590603705        4.9738428873        0.0104469866  W2        2628            0.0000000000
      7884      2628  TIP3      H2             18.1907003705        5.8453128873        1.0524169866  W2        2628            0.0000000000
      7885      2629  TIP3      OH2            23.1090403705        6.9470428873      -14.8502830134  W2        2629            0.0000000000
      7886      2629  TIP3      H1             22.6492403705        6.4628728873      -14.1644330134  W2        2629            0.0000000000
      7887      2629  TIP3      H2             23.3639103705        6.2785828873      -15.4862330134  W2        2629            0.0000000000
      7888      2630  TIP3      OH2            22.3979703705        4.8397528873       -2.4943230134  W2        2630            0.0000000000
      7889      2630  TIP3      H1             21.7795803705        5.5144128873       -2.2138530134  W2        2630            0.0000000000
      7890      2630  TIP3      H2             22.7420903705        5.1611428873       -3.3277030134  W2        2630            0.0000000000
      7891      2631  TIP3      OH2            24.1800803705        5.1902228873      -16.5879630134  W2        2631            0.0000000000
      7892      2631  TIP3      H1             23.9995803705        5.0353428873      -17.5151330134  W2        2631            0.0000000000
      7893      2631  TIP3      H2             25.1301303705        5.2980928873      -16.5431730134  W2        2631            0.0000000000
      7894      2632  TIP3      OH2            27.4177903705        7.3112828873        0.7831569866  W2        2632            0.0000000000
      7895      2632  TIP3      H1             28.3709103705        7.3951928873        0.7557569866  W2        2632            0.0000000000
      7896      2632  TIP3      H2             27.2572503705        6.5994628873        1.4026469866  W2        2632            0.0000000000
      7897      2633  TIP3      OH2            33.5699103705        7.5446428873      -17.1421530134  W2        2633            0.0000000000
      7898      2633  TIP3      H1             33.2963903705        7.1201928873      -17.9553230134  W2        2633            0.0000000000
      7899      2633  TIP3      H2             33.6093203705        8.4760928873      -17.3591130134  W2        2633            0.0000000000
      7900      2634  TIP3      OH2            22.7373403705        2.1948328873       -1.4120130134  W2        2634            0.0000000000
      7901      2634  TIP3      H1             22.8874303705        1.4659628873       -2.0140430134  W2        2634            0.0000000000
      7902      2634  TIP3      H2             22.7395803705        2.9720028873       -1.9707930134  W2        2634            0.0000000000
      7903      2635  TIP3      OH2            23.1499103705        0.5644128873       -3.9192730134  W2        2635            0.0000000000
      7904      2635  TIP3      H1             23.6856603705        1.0160828873       -4.5713430134  W2        2635            0.0000000000
      7905      2635  TIP3      H2             22.2978703705        0.4563928873       -4.3418630134  W2        2635            0.0000000000
      7906      2636  TIP3      OH2            24.7317503705        6.0040328873       -3.6797530134  W2        2636            0.0000000000
      7907      2636  TIP3      H1             25.4822303705        5.8477828873       -4.2529730134  W2        2636            0.0000000000
      7908      2636  TIP3      H2             24.3925803705        6.8556928873       -3.9552030134  W2        2636            0.0000000000
      7909      2637  TIP3      OH2            29.1473703705        3.8192128873        1.3487769866  W2        2637            0.0000000000
      7910      2637  TIP3      H1             29.3395003705        2.8881528873        1.2372269866  W2        2637            0.0000000000
      7911      2637  TIP3      H2             30.0050003705        4.2441628873        1.3383169866  W2        2637            0.0000000000
      7912      2638  TIP3      OH2            30.4640903705        6.6077328873       -0.5739530134  W2        2638            0.0000000000
      7913      2638  TIP3      H1             30.1825903705        7.3171928873       -1.1515730134  W2        2638            0.0000000000
      7914      2638  TIP3      H2             31.4065203705        6.5350328873       -0.7248330134  W2        2638            0.0000000000
      7915      2639  TIP3      OH2            21.2159703705        3.3931828873        0.4995469866  W2        2639            0.0000000000
      7916      2639  TIP3      H1             20.4488703705        2.8606628873        0.2893069866  W2        2639            0.0000000000
      7917      2639  TIP3      H2             21.8948703705        3.0832228873       -0.0998230134  W2        2639            0.0000000000
      7918      2640  TIP3      OH2            23.9554603705       -1.9790171127       -3.4879130134  W2        2640            0.0000000000
      7919      2640  TIP3      H1             23.8574203705       -1.0326971127       -3.5932930134  W2        2640            0.0000000000
      7920      2640  TIP3      H2             23.2130803705       -2.3516371127       -3.9635630134  W2        2640            0.0000000000
      7921      2641  TIP3      OH2            25.2195103705        2.3425228873        0.0759269866  W2        2641            0.0000000000
      7922      2641  TIP3      H1             24.9840503705        2.1231928873        0.9774169866  W2        2641            0.0000000000
      7923      2641  TIP3      H2             24.4362003705        2.1356428873       -0.4338230134  W2        2641            0.0000000000
      7924      2642  TIP3      OH2            27.9351703705        1.4698728873       -0.8487230134  W2        2642            0.0000000000
      7925      2642  TIP3      H1             26.9877103705        1.5018428873       -0.7163930134  W2        2642            0.0000000000
      7926      2642  TIP3      H2             28.2478403705        0.8445828873       -0.1949030134  W2        2642            0.0000000000
      7927      2643  TIP3      OH2            29.5693203705        0.1039828873        1.1564669866  W2        2643            0.0000000000
      7928      2643  TIP3      H1             29.4725003705       -0.8482871127        1.1506569866  W2        2643            0.0000000000
      7929      2643  TIP3      H2             29.2476303705        0.3726628873        2.0170169866  W2        2643            0.0000000000
      7930      2644  TIP3      OH2            19.3962503705        1.3135628873        0.2040169866  W2        2644            0.0000000000
      7931      2644  TIP3      H1             19.6079903705        0.6071728873       -0.4062330134  W2        2644            0.0000000000
      7932      2644  TIP3      H2             19.2850003705        0.8761628873        1.0481369866  W2        2644            0.0000000000
      7933      2645  TIP3      OH2            24.1772703705       -2.6852771127       -0.8166330134  W2        2645            0.0000000000
      7934      2645  TIP3      H1             24.8891103705       -3.3250571127       -0.8307230134  W2        2645            0.0000000000
      7935      2645  TIP3      H2             24.0763103705       -2.4184471127       -1.7303230134  W2        2645            0.0000000000
      7936      2646  TIP3      OH2            24.5310203705       -1.0024371127        1.2369969866  W2        2646            0.0000000000
      7937      2646  TIP3      H1             24.3992403705       -1.4780571127        0.4168469866  W2        2646            0.0000000000
      7938      2646  TIP3      H2             23.9317603705       -0.2580771127        1.1817069866  W2        2646            0.0000000000
      7939      2647  TIP3      OH2            24.0772503705       15.8805928873      -15.5866030134  W2        2647            0.0000000000
      7940      2647  TIP3      H1             25.0103203705       16.0384628873      -15.4427630134  W2        2647            0.0000000000
      7941      2647  TIP3      H2             23.8131303705       16.5558928873      -16.2114530134  W2        2647            0.0000000000
      7942      2648  TIP3      OH2            17.6457403705       10.5169728873      -16.1037930134  W2        2648            0.0000000000
      7943      2648  TIP3      H1             18.5596603705       10.5958628873      -15.8304030134  W2        2648            0.0000000000
      7944      2648  TIP3      H2             17.6530503705        9.8299328873      -16.7702330134  W2        2648            0.0000000000
      7945      2649  TIP3      OH2            16.2948003705       15.9098228873      -11.0264030134  W2        2649            0.0000000000
      7946      2649  TIP3      H1             15.6475103705       15.4479928873      -11.5592830134  W2        2649            0.0000000000
      7947      2649  TIP3      H2             16.6492603705       15.2381528873      -10.4437830134  W2        2649            0.0000000000
      7948      2650  TIP3      OH2            17.1647203705       13.9905228873       -9.2217830134  W2        2650            0.0000000000
      7949      2650  TIP3      H1             16.8304003705       13.1102528873       -9.0497630134  W2        2650            0.0000000000
      7950      2650  TIP3      H2             17.3869603705       14.3360228873       -8.3572230134  W2        2650            0.0000000000
      7951      2651  TIP3      OH2            34.7132003705       14.8001628873       -6.2413030134  W2        2651            0.0000000000
      7952      2651  TIP3      H1             34.6918703705       14.9850028873       -5.3023630134  W2        2651            0.0000000000
      7953      2651  TIP3      H2             35.4038203705       15.3685628873       -6.5821630134  W2        2651            0.0000000000
      7954      2652  TIP3      OH2            34.2764903705       14.3672728873       -3.3193930134  W2        2652            0.0000000000
      7955      2652  TIP3      H1             33.7893603705       13.6316828873       -3.6906530134  W2        2652            0.0000000000
      7956      2652  TIP3      H2             34.8257603705       13.9736628873       -2.6414530134  W2        2652            0.0000000000
      7957      2653  TIP3      OH2            32.7272203705       10.1570828873        1.3186369866  W2        2653            0.0000000000
      7958      2653  TIP3      H1             31.8613303705       10.0520528873        1.7128669866  W2        2653            0.0000000000
      7959      2653  TIP3      H2             33.1038103705       10.9154128873        1.7651069866  W2        2653            0.0000000000
      7960      2654  TIP3      OH2            34.0281903705        8.4134528873      -13.1671130134  W2        2654            0.0000000000
      7961      2654  TIP3      H1             34.8783303705        8.8345428873      -13.0399530134  W2        2654            0.0000000000
      7962      2654  TIP3      H2             34.0337003705        7.6734628873      -12.5599730134  W2        2654            0.0000000000
      7963      2655  TIP3      OH2            34.4227503705        6.4671928873      -11.3435430134  W2        2655            0.0000000000
      7964      2655  TIP3      H1             33.6962103705        5.9874528873      -10.9457830134  W2        2655            0.0000000000
      7965      2655  TIP3      H2             35.0040803705        6.6726628873      -10.6113830134  W2        2655            0.0000000000
      7966      2656  TIP3      OH2            34.1818703705        9.2519428873       -6.3957830134  W2        2656            0.0000000000
      7967      2656  TIP3      H1             35.0152903705        8.8739428873       -6.6764230134  W2        2656            0.0000000000
      7968      2656  TIP3      H2             34.2939003705       10.1950628873       -6.5148730134  W2        2656            0.0000000000
      7969      2657  TIP3      OH2            32.6681003705       12.1296928873       -4.0889430134  W2        2657            0.0000000000
      7970      2657  TIP3      H1             32.0206303705       12.4548428873       -3.4634230134  W2        2657            0.0000000000
      7971      2657  TIP3      H2             32.1505003705       11.6894628873       -4.7631130134  W2        2657            0.0000000000
      7972      2658  TIP3      OH2            34.6910603705        6.3680428873      -14.9524130134  W2        2658            0.0000000000
      7973      2658  TIP3      H1             34.1691703705        6.7244528873      -15.6713230134  W2        2658            0.0000000000
      7974      2658  TIP3      H2             34.6579803705        7.0428228873      -14.2743230134  W2        2658            0.0000000000
      7975      2659  TIP3      OH2            33.0399603705        3.6076028873      -16.4017030134  W2        2659            0.0000000000
      7976      2659  TIP3      H1             33.1364003705        4.2743028873      -17.0817330134  W2        2659            0.0000000000
      7977      2659  TIP3      H2             32.8999203705        2.7922328873      -16.8831530134  W2        2659            0.0000000000
      7978      2660  TIP3      OH2            32.2094303705        4.9878428873      -10.7806730134  W2        2660            0.0000000000
      7979      2660  TIP3      H1             32.0593103705        4.0427028873      -10.8008930134  W2        2660            0.0000000000
      7980      2660  TIP3      H2             31.8558803705        5.2689828873       -9.9367630134  W2        2660            0.0000000000
      7981      2661  TIP3      OH2            17.2446703705        7.0660628873       -6.7702930134  W2        2661            0.0000000000
      7982      2661  TIP3      H1             17.4289603705        6.9842328873       -7.7060030134  W2        2661            0.0000000000
      7983      2661  TIP3      H2             18.0939603705        6.9417628873       -6.3466530134  W2        2661            0.0000000000
      7984      2662  TIP3      OH2            33.0657203705        6.9581728873       -1.1418430134  W2        2662            0.0000000000
      7985      2662  TIP3      H1             33.6484503705        6.2234028873       -0.9501230134  W2        2662            0.0000000000
      7986      2662  TIP3      H2             33.6296503705        7.7302028873       -1.0952630134  W2        2662            0.0000000000
      7987      2663  TIP3      OH2            34.5624303705        4.8607528873       -0.4573030134  W2        2663            0.0000000000
      7988      2663  TIP3      H1             33.6991003705        4.4819628873       -0.6228330134  W2        2663            0.0000000000
      7989      2663  TIP3      H2             35.1668003705        4.1222328873       -0.5317230134  W2        2663            0.0000000000
      7990      2664  TIP3      OH2            32.2873403705        1.0155828873      -17.2841530134  W2        2664            0.0000000000
      7991      2664  TIP3      H1             32.8979203705        0.6442628873      -16.6473330134  W2        2664            0.0000000000
      7992      2664  TIP3      H2             31.4504903705        0.5942728873      -17.0881530134  W2        2664            0.0000000000
      7993      2665  TIP3      OH2            31.9199103705        2.5704228873      -12.3181630134  W2        2665            0.0000000000
      7994      2665  TIP3      H1             32.1996203705        1.6634628873      -12.1939930134  W2        2665            0.0000000000
      7995      2665  TIP3      H2             32.6790803705        3.0045728873      -12.7072430134  W2        2665            0.0000000000
      7996      2666  TIP3      OH2            32.5317403705        3.1521628873       -6.8822730134  W2        2666            0.0000000000
      7997      2666  TIP3      H1             33.4645403705        3.3641528873       -6.9166730134  W2        2666            0.0000000000
      7998      2666  TIP3      H2             32.2964903705        3.2533728873       -5.9599730134  W2        2666            0.0000000000
      7999      2667  TIP3      OH2            32.5609303705        3.8886928873       -4.1063330134  W2        2667            0.0000000000
      8000      2667  TIP3      H1             31.7180603705        4.1567328873       -3.7403530134  W2        2667            0.0000000000
      8001      2667  TIP3      H2             33.0033603705        4.7108828873       -4.3172230134  W2        2667            0.0000000000
      8002      2668  TIP3      OH2            16.8421503705        2.3365628873       -0.6294130134  W2        2668            0.0000000000
      8003      2668  TIP3      H1             17.7616403705        2.2143928873       -0.3931030134  W2        2668            0.0000000000
      8004      2668  TIP3      H2             16.3926003705        1.5865328873       -0.2400630134  W2        2668            0.0000000000
      8005      2669  TIP3      OH2            34.8440903705       -2.1312871127        1.2471669866  W2        2669            0.0000000000
      8006      2669  TIP3      H1             35.1937903705       -2.7849371127        0.6416369866  W2        2669            0.0000000000
      8007      2669  TIP3      H2             34.9910403705       -1.2938771127        0.8074269866  W2        2669            0.0000000000
      8008      2670  TIP3      OH2            32.5333903705       -0.1666471127      -12.2699630134  W2        2670            0.0000000000
      8009      2670  TIP3      H1             32.7158903705       -0.6154971127      -11.4444630134  W2        2670            0.0000000000
      8010      2670  TIP3      H2             31.9336803705       -0.7512071127      -12.7335030134  W2        2670            0.0000000000
      8011      2671  TIP3      OH2            18.0634003705        0.6487228873       -7.7381230134  W2        2671            0.0000000000
      8012      2671  TIP3      H1             18.5085603705       -0.1430271127       -7.4361530134  W2        2671            0.0000000000
      8013      2671  TIP3      H2             18.5297003705        1.3652428873       -7.3075630134  W2        2671            0.0000000000
      8014      2672  TIP3      OH2            16.3674303705        3.6480228873       -6.6691030134  W2        2672            0.0000000000
      8015      2672  TIP3      H1             16.8594103705        3.4270728873       -7.4599030134  W2        2672            0.0000000000
      8016      2672  TIP3      H2             16.7295203705        4.4883628873       -6.3881530134  W2        2672            0.0000000000
      8017      2673  TIP3      OH2            34.3638103705       -0.0218271127       -0.4037030134  W2        2673            0.0000000000
      8018      2673  TIP3      H1             33.4463803705        0.2488828873       -0.4393530134  W2        2673            0.0000000000
      8019      2673  TIP3      H2             34.4867503705       -0.5569871127       -1.1877330134  W2        2673            0.0000000000
      8020      2674  TIP3      OH2            34.4000103705       -0.0988371127      -15.7419330134  W2        2674            0.0000000000
      8021      2674  TIP3      H1             34.8122703705       -0.8202671127      -16.2171330134  W2        2674            0.0000000000
      8022      2674  TIP3      H2             35.0816603705        0.5706228873      -15.6835030134  W2        2674            0.0000000000
      8023      2675  TIP3      OH2            16.6810803705       -0.0940671127      -12.6148630134  W2        2675            0.0000000000
      8024      2675  TIP3      H1             15.7559203705        0.1145928873      -12.7443130134  W2        2675            0.0000000000
      8025      2675  TIP3      H2             17.1350703705        0.3900128873      -13.3046330134  W2        2675            0.0000000000
      8026      2676  TIP3      OH2            31.4518003705       14.8901028873      -10.6691230134  W2        2676            0.0000000000
      8027      2676  TIP3      H1             32.1040903705       14.5423128873      -11.2772130134  W2        2676            0.0000000000
      8028      2676  TIP3      H2             31.9621803705       15.3784228873      -10.0231530134  W2        2676            0.0000000000
      8029      2677  TIP3      OH2            16.6446203705       -1.3561671127       -4.2706130134  W2        2677            0.0000000000
      8030      2677  TIP3      H1             15.9796703705       -1.6021371127       -3.6275230134  W2        2677            0.0000000000
      8031      2677  TIP3      H2             16.2017503705       -0.7341271127       -4.8478130134  W2        2677            0.0000000000
      8032      2678  TIP3      OH2            18.8365503705       11.8192428873       -0.1260330134  W2        2678            0.0000000000
      8033      2678  TIP3      H1             18.0158003705       11.9938928873       -0.5865630134  W2        2678            0.0000000000
      8034      2678  TIP3      H2             18.5843303705       11.7457128873        0.7944069866  W2        2678            0.0000000000
      8035      2679  TIP3      OH2            21.7908403705       12.7933628873       -3.8676330134  W2        2679            0.0000000000
      8036      2679  TIP3      H1             21.3659503705       13.6032128873       -4.1501730134  W2        2679            0.0000000000
      8037      2679  TIP3      H2             22.6951203705       12.8787728873       -4.1696530134  W2        2679            0.0000000000
      8038      2680  TIP3      OH2            26.1019803705       14.1923628873       -0.9082630134  W2        2680            0.0000000000
      8039      2680  TIP3      H1             26.2867303705       13.8589728873       -0.0302330134  W2        2680            0.0000000000
      8040      2680  TIP3      H2             26.9484303705       14.5022228873       -1.2303430134  W2        2680            0.0000000000
      8041      2681  TIP3      OH2            28.4470203705       15.4782528873       -1.6641230134  W2        2681            0.0000000000
      8042      2681  TIP3      H1             29.1239103705       14.8454828873       -1.9042030134  W2        2681            0.0000000000
      8043      2681  TIP3      H2             28.7689003705       15.8793028873       -0.8567930134  W2        2681            0.0000000000
      8044      2682  TIP3      OH2            33.3644003705       -1.9321971127       -2.5846230134  W2        2682            0.0000000000
      8045      2682  TIP3      H1             32.5517503705       -1.6071671127       -2.9721530134  W2        2682            0.0000000000
      8046      2682  TIP3      H2             33.5972503705       -2.6923471127       -3.1177130134  W2        2682            0.0000000000
      8047      2683  TIP3      OH2            19.1925103705       16.0497528873       -3.8201030134  W2        2683            0.0000000000
      8048      2683  TIP3      H1             18.4721503705       16.4898528873       -4.2713330134  W2        2683            0.0000000000
      8049      2683  TIP3      H2             18.8269103705       15.7992228873       -2.9717030134  W2        2683            0.0000000000
      8050      2684  TIP3      OH2            21.6597703705       15.6501428873       -4.7903830134  W2        2684            0.0000000000
      8051      2684  TIP3      H1             20.7949903705       15.7219928873       -4.3863730134  W2        2684            0.0000000000
      8052      2684  TIP3      H2             21.6046703705       16.1968728873       -5.5741330134  W2        2684            0.0000000000
      8053      2685  TIP3      OH2            26.3703303705       15.5380328873       -5.6147830134  W2        2685            0.0000000000
      8054      2685  TIP3      H1             25.9137303705       16.0670028873       -6.2689430134  W2        2685            0.0000000000
      8055      2685  TIP3      H2             26.5331303705       16.1411728873       -4.8895530134  W2        2685            0.0000000000
      8056      2686  TIP3      OH2            28.6979603705       14.4159928873       -4.6697530134  W2        2686            0.0000000000
      8057      2686  TIP3      H1             27.7933303705       14.5810128873       -4.9355430134  W2        2686            0.0000000000
      8058      2686  TIP3      H2             29.1268203705       15.2692128873       -4.7354130134  W2        2686            0.0000000000
      8059      2687  TIP3      OH2            31.3021503705       15.9859028873       -4.3749730134  W2        2687            0.0000000000
      8060      2687  TIP3      H1             31.1203503705       16.9017928873       -4.5854830134  W2        2687            0.0000000000
      8061      2687  TIP3      H2             31.4789303705       15.5756128873       -5.2215130134  W2        2687            0.0000000000
      8062      2688  TIP3      OH2            18.6073203705       14.6730028873       -6.9099230134  W2        2688            0.0000000000
      8063      2688  TIP3      H1             18.5889203705       14.2475128873       -6.0526930134  W2        2688            0.0000000000
      8064      2688  TIP3      H2             19.4121103705       14.3545028873       -7.3187030134  W2        2688            0.0000000000
      8065      2689  TIP3      OH2            20.7486303705       13.3828728873       -8.2549330134  W2        2689            0.0000000000
      8066      2689  TIP3      H1             20.5297003705       12.4666128873       -8.0853330134  W2        2689            0.0000000000
      8067      2689  TIP3      H2             21.5728503705       13.5229128873       -7.7887930134  W2        2689            0.0000000000
      8068      2690  TIP3      OH2            23.2858803705       13.8528028873       -7.4061330134  W2        2690            0.0000000000
      8069      2690  TIP3      H1             23.4984503705       12.9647028873       -7.6930430134  W2        2690            0.0000000000
      8070      2690  TIP3      H2             23.3503903705       13.8185728873       -6.4517330134  W2        2690            0.0000000000
      8071      2691  TIP3      OH2            26.7942503705       -0.4831371127       -8.2618030134  W2        2691            0.0000000000
      8072      2691  TIP3      H1             26.1199303705       -1.1125771127       -8.0062230134  W2        2691            0.0000000000
      8073      2691  TIP3      H2             27.3581703705       -0.9672471127       -8.8650130134  W2        2691            0.0000000000
      8074      2692  TIP3      OH2            31.9369703705       -2.3757371127       -8.1490930134  W2        2692            0.0000000000
      8075      2692  TIP3      H1             32.5407303705       -1.8281971127       -8.6509930134  W2        2692            0.0000000000
      8076      2692  TIP3      H2             31.0671703705       -2.0566971127       -8.3896830134  W2        2692            0.0000000000
      8077      2693  TIP3      OH2            33.6640103705       -1.2368671127       -9.8160030134  W2        2693            0.0000000000
      8078      2693  TIP3      H1             34.2757603705       -1.7512971127      -10.3426430134  W2        2693            0.0000000000
      8079      2693  TIP3      H2             34.0463503705       -0.3596571127       -9.7925630134  W2        2693            0.0000000000
      8080      2694  TIP3      OH2            19.1210003705       -1.8491071127      -10.4398130134  W2        2694            0.0000000000
      8081      2694  TIP3      H1             18.3439803705       -2.0836171127      -10.9472230134  W2        2694            0.0000000000
      8082      2694  TIP3      H2             19.6513603705       -2.6458971127      -10.4310130134  W2        2694            0.0000000000
      8083      2695  TIP3      OH2            17.9573403705       -2.0512971127      -14.6362030134  W2        2695            0.0000000000
      8084      2695  TIP3      H1             18.3964103705       -1.4402471127      -15.2278530134  W2        2695            0.0000000000
      8085      2695  TIP3      H2             17.3235803705       -1.5128871127      -14.1622030134  W2        2695            0.0000000000
      8086      2696  TIP3      OH2            23.7002603705       -1.9223971127      -10.6265030134  W2        2696            0.0000000000
      8087      2696  TIP3      H1             24.5746003705       -1.5339671127      -10.6560730134  W2        2696            0.0000000000
      8088      2696  TIP3      H2             23.5643403705       -2.1376171127       -9.7037830134  W2        2696            0.0000000000
      8089      2697  TIP3      OH2            29.2571003705       -1.8924171127       -8.9773330134  W2        2697            0.0000000000
      8090      2697  TIP3      H1             29.3332603705       -1.7972571127       -9.9267330134  W2        2697            0.0000000000
      8091      2697  TIP3      H2             28.9820203705       -2.8001271127       -8.8484230134  W2        2697            0.0000000000
      8092      2698  TIP3      OH2            30.6103603705       -1.8666371127      -13.2848330134  W2        2698            0.0000000000
      8093      2698  TIP3      H1             29.9074703705       -1.2517171127      -13.4946930134  W2        2698            0.0000000000
      8094      2698  TIP3      H2             30.1655003705       -2.7039671127      -13.1537430134  W2        2698            0.0000000000
      8095      2699  TIP3      OH2            17.8582903705       13.8969228873      -13.7386930134  W2        2699            0.0000000000
      8096      2699  TIP3      H1             17.1732803705       13.8588128873      -14.4061830134  W2        2699            0.0000000000
      8097      2699  TIP3      H2             17.8620103705       14.8096828873      -13.4504830134  W2        2699            0.0000000000
      8098      2700  TIP3      OH2            19.8182503705       -0.1351471127      -16.1937930134  W2        2700            0.0000000000
      8099      2700  TIP3      H1             20.3095903705       -0.7649071127      -16.7212430134  W2        2700            0.0000000000
      8100      2700  TIP3      H2             20.4418803705        0.1607928873      -15.5306730134  W2        2700            0.0000000000
      8101      2701  TIP3      OH2            24.8442603705        0.1580028873      -13.7367430134  W2        2701            0.0000000000
      8102      2701  TIP3      H1             25.0223903705       -0.4886771127      -13.0538830134  W2        2701            0.0000000000
      8103      2701  TIP3      H2             24.7908803705        0.9917728873      -13.2696330134  W2        2701            0.0000000000
      8104      2702  TIP3      OH2            26.7226403705       15.1064128873      -15.3410730134  W2        2702            0.0000000000
      8105      2702  TIP3      H1             27.5886603705       15.4731528873      -15.5192530134  W2        2702            0.0000000000
      8106      2702  TIP3      H2             26.4759203705       14.6672128873      -16.1549930134  W2        2702            0.0000000000
      8107      2703  TIP3      OH2            33.4316003705       14.6694428873      -12.6619630134  W2        2703            0.0000000000
      8108      2703  TIP3      H1             33.2373103705       13.9216528873      -13.2270030134  W2        2703            0.0000000000
      8109      2703  TIP3      H2             33.3926103705       15.4274528873      -13.2451730134  W2        2703            0.0000000000
      8110      2704  TIP3      OH2            19.0788003705       -1.3349171127       -0.9221930134  W2        2704            0.0000000000
      8111      2704  TIP3      H1             18.7126203705       -2.1006571127       -0.4797230134  W2        2704            0.0000000000
      8112      2704  TIP3      H2             19.9916503705       -1.3058971127       -0.6356830134  W2        2704            0.0000000000
      8113      2705  TIP3      OH2            21.0518803705       -1.9844771127        0.6135169866  W2        2705            0.0000000000
      8114      2705  TIP3      H1             21.9502403705       -2.2584571127        0.4288569866  W2        2705            0.0000000000
      8115      2705  TIP3      H2             20.6651903705       -2.7268771127        1.0777769866  W2        2705            0.0000000000
      8116      2706  TIP3      OH2            19.6764103705       14.8170028873      -16.7134830134  W2        2706            0.0000000000
      8117      2706  TIP3      H1             19.4088703705       15.1032928873      -15.8401730134  W2        2706            0.0000000000
      8118      2706  TIP3      H2             20.4476703705       14.2709228873      -16.5612330134  W2        2706            0.0000000000
      8119      2707  TIP3      OH2            29.4731103705       -2.6519471127        0.7957969866  W2        2707            0.0000000000
      8120      2707  TIP3      H1             29.5498303705       -3.0778771127        1.6495669866  W2        2707            0.0000000000
      8121      2707  TIP3      H2             30.3667703705       -2.6384771127        0.4531469866  W2        2707            0.0000000000
      8122      2708  TIP3      OH2            32.6492203705       13.4206828873       -0.5117830134  W2        2708            0.0000000000
      8123      2708  TIP3      H1             31.8674103705       13.2344828873       -1.0317230134  W2        2708            0.0000000000
      8124      2708  TIP3      H2             32.5772103705       14.3501128873       -0.2945330134  W2        2708            0.0000000000
      8125      2709  TIP3      OH2            38.3568903705        6.1764028873       -5.4692530134  W2        2709            0.0000000000
      8126      2709  TIP3      H1             38.3981003705        5.5507328873       -4.7460130134  W2        2709            0.0000000000
      8127      2709  TIP3      H2             39.0596603705        6.8002628873       -5.2872130134  W2        2709            0.0000000000
      8128      2710  TIP3      OH2            39.2802003705       10.6262928873       -6.9343430134  W2        2710            0.0000000000
      8129      2710  TIP3      H1             38.9107203705        9.8243428873       -7.3039130134  W2        2710            0.0000000000
      8130      2710  TIP3      H2             40.2213103705       10.4577828873       -6.8880030134  W2        2710            0.0000000000
      8131      2711  TIP3      OH2            35.8902503705        4.2865528873      -11.5414630134  W2        2711            0.0000000000
      8132      2711  TIP3      H1             35.4425903705        5.1324228873      -11.5598130134  W2        2711            0.0000000000
      8133      2711  TIP3      H2             35.3293703705        3.7069728873      -12.0569530134  W2        2711            0.0000000000
      8134      2712  TIP3      OH2            36.6008603705        6.4485128873       -9.4156630134  W2        2712            0.0000000000
      8135      2712  TIP3      H1             36.8142103705        5.6786728873       -8.8883630134  W2        2712            0.0000000000
      8136      2712  TIP3      H2             37.3386203705        6.5381828873      -10.0189030134  W2        2712            0.0000000000
      8137      2713  TIP3      OH2            37.2935103705        3.8867928873       -8.2940430134  W2        2713            0.0000000000
      8138      2713  TIP3      H1             37.9471703705        3.3369628873       -7.8620330134  W2        2713            0.0000000000
      8139      2713  TIP3      H2             37.3174403705        3.6126928873       -9.2108430134  W2        2713            0.0000000000
      8140      2714  TIP3      OH2            39.4835503705        0.4080528873       -4.9821030134  W2        2714            0.0000000000
      8141      2714  TIP3      H1             39.2647203705        0.9381128873       -5.7485030134  W2        2714            0.0000000000
      8142      2714  TIP3      H2             38.8156403705        0.6346028873       -4.3349630134  W2        2714            0.0000000000
      8143      2715  TIP3      OH2            39.0772803705        2.3002328873       -7.0298830134  W2        2715            0.0000000000
      8144      2715  TIP3      H1             39.6909103705        2.9329928873       -6.6566430134  W2        2715            0.0000000000
      8145      2715  TIP3      H2             39.5893503705        1.8277328873       -7.6861930134  W2        2715            0.0000000000
      8146      2716  TIP3      OH2            40.4601203705       10.0479228873       -3.9075830134  W2        2716            0.0000000000
      8147      2716  TIP3      H1             40.4548803705       10.9272728873       -4.2856530134  W2        2716            0.0000000000
      8148      2716  TIP3      H2             39.6065303705        9.9643328873       -3.4825930134  W2        2716            0.0000000000
      8149      2717  TIP3      OH2            36.5812103705        9.7187128873      -13.1256530134  W2        2717            0.0000000000
      8150      2717  TIP3      H1             36.3093003705        9.9478128873      -14.0143630134  W2        2717            0.0000000000
      8151      2717  TIP3      H2             36.6267803705       10.5565928873      -12.6651230134  W2        2717            0.0000000000
      8152      2718  TIP3      OH2            38.9942603705        6.7570128873       -2.6156830134  W2        2718            0.0000000000
      8153      2718  TIP3      H1             39.0645803705        7.4076928873       -1.9171830134  W2        2718            0.0000000000
      8154      2718  TIP3      H2             38.1034803705        6.8597628873       -2.9505930134  W2        2718            0.0000000000
      8155      2719  TIP3      OH2            40.3138603705       12.6304028873       -1.0808730134  W2        2719            0.0000000000
      8156      2719  TIP3      H1             40.3213903705       12.4943728873       -2.0283230134  W2        2719            0.0000000000
      8157      2719  TIP3      H2             39.3979003705       12.5132128873       -0.8288730134  W2        2719            0.0000000000
      8158      2720  TIP3      OH2            39.8179203705        6.4605028873      -12.6056630134  W2        2720            0.0000000000
      8159      2720  TIP3      H1             39.5260503705        7.2286728873      -13.0965330134  W2        2720            0.0000000000
      8160      2720  TIP3      H2             39.1434403705        5.8011228873      -12.7685230134  W2        2720            0.0000000000
      8161      2721  TIP3      OH2            35.9109303705        8.8234228873       -3.7906830134  W2        2721            0.0000000000
      8162      2721  TIP3      H1             35.4097703705        8.7953628873       -4.6057130134  W2        2721            0.0000000000
      8163      2721  TIP3      H2             35.9163003705        7.9177428873       -3.4809530134  W2        2721            0.0000000000
      8164      2722  TIP3      OH2            35.6612003705       11.6038028873       -6.9066630134  W2        2722            0.0000000000
      8165      2722  TIP3      H1             36.6072603705       11.4595028873       -6.9257130134  W2        2722            0.0000000000
      8166      2722  TIP3      H2             35.5488303705       12.3880828873       -6.3695430134  W2        2722            0.0000000000
      8167      2723  TIP3      OH2            38.9054103705       14.4047628873      -10.7611930134  W2        2723            0.0000000000
      8168      2723  TIP3      H1             39.0574503705       14.0568028873       -9.8825430134  W2        2723            0.0000000000
      8169      2723  TIP3      H2             38.0544503705       14.0484928873      -11.0164730134  W2        2723            0.0000000000
      8170      2724  TIP3      OH2            38.1599803705       10.1469628873       -2.7474030134  W2        2724            0.0000000000
      8171      2724  TIP3      H1             38.3761103705        9.7855228873       -1.8878230134  W2        2724            0.0000000000
      8172      2724  TIP3      H2             37.3044503705        9.7723428873       -2.9570530134  W2        2724            0.0000000000
      8173      2725  TIP3      OH2            38.6198403705        3.9028128873       -3.7897630134  W2        2725            0.0000000000
      8174      2725  TIP3      H1             38.5817803705        4.3029728873       -2.9210530134  W2        2725            0.0000000000
      8175      2725  TIP3      H2             38.1289503705        3.0860528873       -3.6994730134  W2        2725            0.0000000000
      8176      2726  TIP3      OH2            35.2279203705        1.0189928873       -9.9392930134  W2        2726            0.0000000000
      8177      2726  TIP3      H1             35.8586903705        0.9902028873       -9.2199030134  W2        2726            0.0000000000
      8178      2726  TIP3      H2             35.6773503705        0.5938628873      -10.6697030134  W2        2726            0.0000000000
      8179      2727  TIP3      OH2            36.5021303705        1.7651928873      -14.5152530134  W2        2727            0.0000000000
      8180      2727  TIP3      H1             36.9763003705        2.3561828873      -15.1001630134  W2        2727            0.0000000000
      8181      2727  TIP3      H2             35.7847703705        2.2954828873      -14.1682430134  W2        2727            0.0000000000
      8182      2728  TIP3      OH2            38.2765703705        2.8598528873      -10.8317930134  W2        2728            0.0000000000
      8183      2728  TIP3      H1             37.3873703705        2.9594028873      -11.1718330134  W2        2728            0.0000000000
      8184      2728  TIP3      H2             38.5730603705        2.0181528873      -11.1780030134  W2        2728            0.0000000000
      8185      2729  TIP3      OH2            38.7389103705        8.6115228873       -0.5095630134  W2        2729            0.0000000000
      8186      2729  TIP3      H1             39.4711503705        8.8661128873        0.0518869866  W2        2729            0.0000000000
      8187      2729  TIP3      H2             37.9587803705        8.8160628873        0.0059769866  W2        2729            0.0000000000
      8188      2730  TIP3      OH2            39.7701703705        0.1551328873      -11.3531130134  W2        2730            0.0000000000
      8189      2730  TIP3      H1             39.4531203705       -0.7473371127      -11.3885730134  W2        2730            0.0000000000
      8190      2730  TIP3      H2             40.5515803705        0.1568728873      -11.9059530134  W2        2730            0.0000000000
      8191      2731  TIP3      OH2            39.0638803705        7.9149028873       -7.9031230134  W2        2731            0.0000000000
      8192      2731  TIP3      H1             39.8086003705        7.9124728873       -8.5044730134  W2        2731            0.0000000000
      8193      2731  TIP3      H2             39.1415403705        7.0912828873       -7.4216130134  W2        2731            0.0000000000
      8194      2732  TIP3      OH2            36.0718503705        6.3755928873       -2.5882730134  W2        2732            0.0000000000
      8195      2732  TIP3      H1             36.2947103705        5.9575528873       -1.7565230134  W2        2732            0.0000000000
      8196      2732  TIP3      H2             35.4698603705        5.7630928873       -3.0109930134  W2        2732            0.0000000000
      8197      2733  TIP3      OH2            37.1935903705        6.2951328873      -15.9117330134  W2        2733            0.0000000000
      8198      2733  TIP3      H1             37.8095803705        6.9218528873      -15.5322530134  W2        2733            0.0000000000
      8199      2733  TIP3      H2             36.3318503705        6.6111128873      -15.6400830134  W2        2733            0.0000000000
      8200      2734  TIP3      OH2            37.7058003705        1.1288628873       -3.0301330134  W2        2734            0.0000000000
      8201      2734  TIP3      H1             36.8130303705        1.4674028873       -3.0977330134  W2        2734            0.0000000000
      8202      2734  TIP3      H2             37.6070803705        0.2734728873       -2.6120530134  W2        2734            0.0000000000
      8203      2735  TIP3      OH2            37.3570003705       12.9333028873       -4.5951930134  W2        2735            0.0000000000
      8204      2735  TIP3      H1             37.5740303705       12.0015428873       -4.6262230134  W2        2735            0.0000000000
      8205      2735  TIP3      H2             37.6033503705       13.2078028873       -3.7119130134  W2        2735            0.0000000000
      8206      2736  TIP3      OH2            38.6086303705        8.2075128873      -14.4191730134  W2        2736            0.0000000000
      8207      2736  TIP3      H1             37.9225603705        8.5597628873      -13.8522030134  W2        2736            0.0000000000
      8208      2736  TIP3      H2             39.1314203705        8.9704728873      -14.6657430134  W2        2736            0.0000000000
      8209      2737  TIP3      OH2            39.2245203705       10.8214028873      -15.5223930134  W2        2737            0.0000000000
      8210      2737  TIP3      H1             39.8166703705       11.5208828873      -15.2461530134  W2        2737            0.0000000000
      8211      2737  TIP3      H2             39.6838203705       10.3883528873      -16.2419330134  W2        2737            0.0000000000
      8212      2738  TIP3      OH2            37.5404403705        3.4857028873      -16.4064530134  W2        2738            0.0000000000
      8213      2738  TIP3      H1             37.4957003705        4.4250128873      -16.2277530134  W2        2738            0.0000000000
      8214      2738  TIP3      H2             36.6527603705        3.2501928873      -16.6762430134  W2        2738            0.0000000000
      8215      2739  TIP3      OH2            38.3486403705       -1.7326371127       -7.7333530134  W2        2739            0.0000000000
      8216      2739  TIP3      H1             38.1196203705       -1.6733871127       -8.6608530134  W2        2739            0.0000000000
      8217      2739  TIP3      H2             37.9059803705       -2.5240871127       -7.4269430134  W2        2739            0.0000000000
      8218      2740  TIP3      OH2            37.2789703705       12.2080728873      -11.5727730134  W2        2740            0.0000000000
      8219      2740  TIP3      H1             36.4468303705       12.6803428873      -11.5456330134  W2        2740            0.0000000000
      8220      2740  TIP3      H2             37.8248003705       12.7178328873      -12.1714630134  W2        2740            0.0000000000
      8221      2741  TIP3      OH2            36.5673403705       14.8204428873       -0.2429730134  W2        2741            0.0000000000
      8222      2741  TIP3      H1             37.1075603705       14.6038428873        0.5169469866  W2        2741            0.0000000000
      8223      2741  TIP3      H2             36.0861403705       14.0150428873       -0.4327230134  W2        2741            0.0000000000
      8224      2742  TIP3      OH2            36.4742903705        8.6308528873        0.7114569866  W2        2742            0.0000000000
      8225      2742  TIP3      H1             36.6183403705        7.7289228873        0.4251269866  W2        2742            0.0000000000
      8226      2742  TIP3      H2             35.7020303705        8.9170628873        0.2236869866  W2        2742            0.0000000000
      8227      2743  TIP3      OH2            37.3069403705        5.8311828873        0.1313869866  W2        2743            0.0000000000
      8228      2743  TIP3      H1             37.7150603705        4.9738428873        0.0104469866  W2        2743            0.0000000000
      8229      2743  TIP3      H2             37.0467003705        5.8453128873        1.0524169866  W2        2743            0.0000000000
      8230      2744  TIP3      OH2            40.0719703705        3.3931828873        0.4995469866  W2        2744            0.0000000000
      8231      2744  TIP3      H1             39.3048703705        2.8606628873        0.2893069866  W2        2744            0.0000000000
      8232      2744  TIP3      H2             40.7508703705        3.0832228873       -0.0998230134  W2        2744            0.0000000000
      8233      2745  TIP3      OH2            38.2522503705        1.3135628873        0.2040169866  W2        2745            0.0000000000
      8234      2745  TIP3      H1             38.4639903705        0.6071728873       -0.4062330134  W2        2745            0.0000000000
      8235      2745  TIP3      H2             38.1410003705        0.8761628873        1.0481369866  W2        2745            0.0000000000
      8236      2746  TIP3      OH2            36.5017403705       10.5169728873      -16.1037930134  W2        2746            0.0000000000
      8237      2746  TIP3      H1             37.4156603705       10.5958628873      -15.8304030134  W2        2746            0.0000000000
      8238      2746  TIP3      H2             36.5090503705        9.8299328873      -16.7702330134  W2        2746            0.0000000000
      8239      2747  TIP3      OH2            35.1508003705       15.9098228873      -11.0264030134  W2        2747            0.0000000000
      8240      2747  TIP3      H1             34.5035103705       15.4479928873      -11.5592830134  W2        2747            0.0000000000
      8241      2747  TIP3      H2             35.5052603705       15.2381528873      -10.4437830134  W2        2747            0.0000000000
      8242      2748  TIP3      OH2            36.0207203705       13.9905228873       -9.2217830134  W2        2748            0.0000000000
      8243      2748  TIP3      H1             35.6864003705       13.1102528873       -9.0497630134  W2        2748            0.0000000000
      8244      2748  TIP3      H2             36.2429603705       14.3360228873       -8.3572230134  W2        2748            0.0000000000
      8245      2749  TIP3      OH2            36.1006703705        7.0660628873       -6.7702930134  W2        2749            0.0000000000
      8246      2749  TIP3      H1             36.2849603705        6.9842328873       -7.7060030134  W2        2749            0.0000000000
      8247      2749  TIP3      H2             36.9499603705        6.9417628873       -6.3466530134  W2        2749            0.0000000000
      8248      2750  TIP3      OH2            35.6981503705        2.3365628873       -0.6294130134  W2        2750            0.0000000000
      8249      2750  TIP3      H1             36.6176403705        2.2143928873       -0.3931030134  W2        2750            0.0000000000
      8250      2750  TIP3      H2             35.2486003705        1.5865328873       -0.2400630134  W2        2750            0.0000000000
      8251      2751  TIP3      OH2            36.9194003705        0.6487228873       -7.7381230134  W2        2751            0.0000000000
      8252      2751  TIP3      H1             37.3645603705       -0.1430271127       -7.4361530134  W2        2751            0.0000000000
      8253      2751  TIP3      H2             37.3857003705        1.3652428873       -7.3075630134  W2        2751            0.0000000000
      8254      2752  TIP3      OH2            35.2234303705        3.6480228873       -6.6691030134  W2        2752            0.0000000000
      8255      2752  TIP3      H1             35.7154103705        3.4270728873       -7.4599030134  W2        2752            0.0000000000
      8256      2752  TIP3      H2             35.5855203705        4.4883628873       -6.3881530134  W2        2752            0.0000000000
      8257      2753  TIP3      OH2            35.5370803705       -0.0940671127      -12.6148630134  W2        2753            0.0000000000
      8258      2753  TIP3      H1             34.6119203705        0.1145928873      -12.7443130134  W2        2753            0.0000000000
      8259      2753  TIP3      H2             35.9910703705        0.3900128873      -13.3046330134  W2        2753            0.0000000000
      8260      2754  TIP3      OH2            35.5006203705       -1.3561671127       -4.2706130134  W2        2754            0.0000000000
      8261      2754  TIP3      H1             34.8356703705       -1.6021371127       -3.6275230134  W2        2754            0.0000000000
      8262      2754  TIP3      H2             35.0577503705       -0.7341271127       -4.8478130134  W2        2754            0.0000000000
      8263      2755  TIP3      OH2            37.6925503705       11.8192428873       -0.1260330134  W2        2755            0.0000000000
      8264      2755  TIP3      H1             36.8718003705       11.9938928873       -0.5865630134  W2        2755            0.0000000000
      8265      2755  TIP3      H2             37.4403303705       11.7457128873        0.7944069866  W2        2755            0.0000000000
      8266      2756  TIP3      OH2            38.0485103705       16.0497528873       -3.8201030134  W2        2756            0.0000000000
      8267      2756  TIP3      H1             37.3281503705       16.4898528873       -4.2713330134  W2        2756            0.0000000000
      8268      2756  TIP3      H2             37.6829103705       15.7992228873       -2.9717030134  W2        2756            0.0000000000
      8269      2757  TIP3      OH2            40.5157703705       15.6501428873       -4.7903830134  W2        2757            0.0000000000
      8270      2757  TIP3      H1             39.6509903705       15.7219928873       -4.3863730134  W2        2757            0.0000000000
      8271      2757  TIP3      H2             40.4606703705       16.1968728873       -5.5741330134  W2        2757            0.0000000000
      8272      2758  TIP3      OH2            37.4633203705       14.6730028873       -6.9099230134  W2        2758            0.0000000000
      8273      2758  TIP3      H1             37.4449203705       14.2475128873       -6.0526930134  W2        2758            0.0000000000
      8274      2758  TIP3      H2             38.2681103705       14.3545028873       -7.3187030134  W2        2758            0.0000000000
      8275      2759  TIP3      OH2            39.6046303705       13.3828728873       -8.2549330134  W2        2759            0.0000000000
      8276      2759  TIP3      H1             39.3857003705       12.4666128873       -8.0853330134  W2        2759            0.0000000000
      8277      2759  TIP3      H2             40.4288503705       13.5229128873       -7.7887930134  W2        2759            0.0000000000
      8278      2760  TIP3      OH2            37.9770003705       -1.8491071127      -10.4398130134  W2        2760            0.0000000000
      8279      2760  TIP3      H1             37.1999803705       -2.0836171127      -10.9472230134  W2        2760            0.0000000000
      8280      2760  TIP3      H2             38.5073603705       -2.6458971127      -10.4310130134  W2        2760            0.0000000000
      8281      2761  TIP3      OH2            36.8133403705       -2.0512971127      -14.6362030134  W2        2761            0.0000000000
      8282      2761  TIP3      H1             37.2524103705       -1.4402471127      -15.2278530134  W2        2761            0.0000000000
      8283      2761  TIP3      H2             36.1795803705       -1.5128871127      -14.1622030134  W2        2761            0.0000000000
      8284      2762  TIP3      OH2            36.7142903705       13.8969228873      -13.7386930134  W2        2762            0.0000000000
      8285      2762  TIP3      H1             36.0292803705       13.8588128873      -14.4061830134  W2        2762            0.0000000000
      8286      2762  TIP3      H2             36.7180103705       14.8096828873      -13.4504830134  W2        2762            0.0000000000
      8287      2763  TIP3      OH2            38.6742503705       -0.1351471127      -16.1937930134  W2        2763            0.0000000000
      8288      2763  TIP3      H1             39.1655903705       -0.7649071127      -16.7212430134  W2        2763            0.0000000000
      8289      2763  TIP3      H2             39.2978803705        0.1607928873      -15.5306730134  W2        2763            0.0000000000
      8290      2764  TIP3      OH2            37.9348003705       -1.3349171127       -0.9221930134  W2        2764            0.0000000000
      8291      2764  TIP3      H1             37.5686203705       -2.1006571127       -0.4797230134  W2        2764            0.0000000000
      8292      2764  TIP3      H2             38.8476503705       -1.3058971127       -0.6356830134  W2        2764            0.0000000000
      8293      2765  TIP3      OH2            39.9078803705       -1.9844771127        0.6135169866  W2        2765            0.0000000000
      8294      2765  TIP3      H1             40.8062403705       -2.2584571127        0.4288569866  W2        2765            0.0000000000
      8295      2765  TIP3      H2             39.5211903705       -2.7268771127        1.0777769866  W2        2765            0.0000000000
      8296      2766  TIP3      OH2            38.5324103705       14.8170028873      -16.7134830134  W2        2766            0.0000000000
      8297      2766  TIP3      H1             38.2648703705       15.1032928873      -15.8401730134  W2        2766            0.0000000000
      8298      2766  TIP3      H2             39.3036703705       14.2709228873      -16.5612330134  W2        2766            0.0000000000
      8299      2767  TIP3      OH2           -28.3687396295       26.1631228873      -10.4810630134  W2        2767            0.0000000000
      8300      2767  TIP3      H1            -28.2796296295       27.1069428873      -10.6133530134  W2        2767            0.0000000000
      8301      2767  TIP3      H2            -29.0069796295       25.8877628873      -11.1391230134  W2        2767            0.0000000000
      8302      2768  TIP3      OH2           -29.4356096295       25.4181928873       -7.0622430134  W2        2768            0.0000000000
      8303      2768  TIP3      H1            -29.4738596295       24.7718228873       -6.3572830134  W2        2768            0.0000000000
      8304      2768  TIP3      H2            -29.7579596295       24.9516328873       -7.8333730134  W2        2768            0.0000000000
      8305      2769  TIP3      OH2           -37.0671096295       25.0324028873       -5.4692530134  W2        2769            0.0000000000
      8306      2769  TIP3      H1            -37.0258996295       24.4067328873       -4.7460130134  W2        2769            0.0000000000
      8307      2769  TIP3      H2            -36.3643396295       25.6562628873       -5.2872130134  W2        2769            0.0000000000
      8308      2770  TIP3      OH2           -25.7295896295       28.3572328873       -8.7607330134  W2        2770            0.0000000000
      8309      2770  TIP3      H1            -26.1703196295       27.6368328873       -8.3101730134  W2        2770            0.0000000000
      8310      2770  TIP3      H2            -25.7426196295       29.0779528873       -8.1309630134  W2        2770            0.0000000000
      8311      2771  TIP3      OH2           -36.1437996295       29.4822928873       -6.9343430134  W2        2771            0.0000000000
      8312      2771  TIP3      H1            -36.5132796295       28.6803428873       -7.3039130134  W2        2771            0.0000000000
      8313      2771  TIP3      H2            -35.2026896295       29.3137828873       -6.8880030134  W2        2771            0.0000000000
      8314      2772  TIP3      OH2           -39.5337496295       23.1425528873      -11.5414630134  W2        2772            0.0000000000
      8315      2772  TIP3      H1            -39.9814096295       23.9884228873      -11.5598130134  W2        2772            0.0000000000
      8316      2772  TIP3      H2            -40.0946296295       22.5629728873      -12.0569530134  W2        2772            0.0000000000
      8317      2773  TIP3      OH2           -38.8231396295       25.3045128873       -9.4156630134  W2        2773            0.0000000000
      8318      2773  TIP3      H1            -38.6097896295       24.5346728873       -8.8883630134  W2        2773            0.0000000000
      8319      2773  TIP3      H2            -38.0853796295       25.3941828873      -10.0189030134  W2        2773            0.0000000000
      8320      2774  TIP3      OH2           -28.6180396295       33.4614028873       -8.5486930134  W2        2774            0.0000000000
      8321      2774  TIP3      H1            -27.9983996295       32.7848728873       -8.8217730134  W2        2774            0.0000000000
      8322      2774  TIP3      H2            -28.8262996295       33.2434828873       -7.6402030134  W2        2774            0.0000000000
      8323      2775  TIP3      OH2           -31.0461696295       27.8503328873       -6.6561430134  W2        2775            0.0000000000
      8324      2775  TIP3      H1            -30.7423796295       27.1644728873       -7.2507330134  W2        2775            0.0000000000
      8325      2775  TIP3      H2            -30.3247696295       27.9692028873       -6.0383430134  W2        2775            0.0000000000
      8326      2776  TIP3      OH2           -22.3831896295       19.4518628873       -5.7955230134  W2        2776            0.0000000000
      8327      2776  TIP3      H1            -22.3339696295       20.0619828873       -5.0596130134  W2        2776            0.0000000000
      8328      2776  TIP3      H2            -21.9576796295       19.9129528873       -6.5184130134  W2        2776            0.0000000000
      8329      2777  TIP3      OH2           -27.9054696295       22.2445728873       -6.3286630134  W2        2777            0.0000000000
      8330      2777  TIP3      H1            -27.7628796295       21.2982728873       -6.3085030134  W2        2777            0.0000000000
      8331      2777  TIP3      H2            -28.0115696295       22.4515528873       -7.2571730134  W2        2777            0.0000000000
      8332      2778  TIP3      OH2           -34.7506396295       20.3462128873       -9.0561830134  W2        2778            0.0000000000
      8333      2778  TIP3      H1            -34.7075296295       21.2060628873       -9.4745530134  W2        2778            0.0000000000
      8334      2778  TIP3      H2            -35.2082296295       19.7936828873       -9.6898630134  W2        2778            0.0000000000
      8335      2779  TIP3      OH2           -27.0283696295       20.4767728873      -10.6553530134  W2        2779            0.0000000000
      8336      2779  TIP3      H1            -26.3819396295       20.1480928873      -10.0305930134  W2        2779            0.0000000000
      8337      2779  TIP3      H2            -26.5184296295       20.9946728873      -11.2782130134  W2        2779            0.0000000000
      8338      2780  TIP3      OH2           -38.1304896295       22.7427928873       -8.2940430134  W2        2780            0.0000000000
      8339      2780  TIP3      H1            -37.4768296295       22.1929628873       -7.8620330134  W2        2780            0.0000000000
      8340      2780  TIP3      H2            -38.1065596295       22.4686928873       -9.2108430134  W2        2780            0.0000000000
      8341      2781  TIP3      OH2           -32.9740396295       24.2929228873       -9.0788930134  W2        2781            0.0000000000
      8342      2781  TIP3      H1            -32.3579396295       23.7664628873       -8.5694930134  W2        2781            0.0000000000
      8343      2781  TIP3      H2            -33.5601596295       23.6527928873       -9.4825330134  W2        2781            0.0000000000
      8344      2782  TIP3      OH2           -21.9917296295       20.9297828873       -3.5595430134  W2        2782            0.0000000000
      8345      2782  TIP3      H1            -22.6802696295       21.5878528873       -3.6548830134  W2        2782            0.0000000000
      8346      2782  TIP3      H2            -21.9762696295       20.7325728873       -2.6230030134  W2        2782            0.0000000000
      8347      2783  TIP3      OH2           -35.9404496295       19.2640528873       -4.9821030134  W2        2783            0.0000000000
      8348      2783  TIP3      H1            -36.1592796295       19.7941128873       -5.7485030134  W2        2783            0.0000000000
      8349      2783  TIP3      H2            -36.6083596295       19.4906028873       -4.3349630134  W2        2783            0.0000000000
      8350      2784  TIP3      OH2           -28.5714696295       28.7641628873      -11.4381930134  W2        2784            0.0000000000
      8351      2784  TIP3      H1            -28.8669596295       28.4413928873      -12.2895030134  W2        2784            0.0000000000
      8352      2784  TIP3      H2            -28.8956896295       29.6638328873      -11.3969330134  W2        2784            0.0000000000
      8353      2785  TIP3      OH2           -33.3713096295       26.9396228873       -4.6947330134  W2        2785            0.0000000000
      8354      2785  TIP3      H1            -34.1113996295       27.5377728873       -4.5912130134  W2        2785            0.0000000000
      8355      2785  TIP3      H2            -32.6573596295       27.4935828873       -5.0103730134  W2        2785            0.0000000000
      8356      2786  TIP3      OH2           -25.2645296295       19.7677028873       -8.6747630134  W2        2786            0.0000000000
      8357      2786  TIP3      H1            -25.4797296295       19.0020428873       -8.1421630134  W2        2786            0.0000000000
      8358      2786  TIP3      H2            -24.6087896295       20.2401628873       -8.1619130134  W2        2786            0.0000000000
      8359      2787  TIP3      OH2           -36.3467196295       21.1562328873       -7.0298830134  W2        2787            0.0000000000
      8360      2787  TIP3      H1            -35.7330896295       21.7889928873       -6.6566430134  W2        2787            0.0000000000
      8361      2787  TIP3      H2            -35.8346496295       20.6837328873       -7.6861930134  W2        2787            0.0000000000
      8362      2788  TIP3      OH2           -34.9638796295       28.9039228873       -3.9075830134  W2        2788            0.0000000000
      8363      2788  TIP3      H1            -34.9691196295       29.7832728873       -4.2856530134  W2        2788            0.0000000000
      8364      2788  TIP3      H2            -35.8174696295       28.8203328873       -3.4825930134  W2        2788            0.0000000000
      8365      2789  TIP3      OH2           -38.8427896295       28.5747128873      -13.1256530134  W2        2789            0.0000000000
      8366      2789  TIP3      H1            -39.1146996295       28.8038128873      -14.0143630134  W2        2789            0.0000000000
      8367      2789  TIP3      H2            -38.7972196295       29.4125928873      -12.6651230134  W2        2789            0.0000000000
      8368      2790  TIP3      OH2           -25.2178196295       30.1963028873       -6.4128030134  W2        2790            0.0000000000
      8369      2790  TIP3      H1            -26.1594496295       30.2546928873       -6.2511130134  W2        2790            0.0000000000
      8370      2790  TIP3      H2            -24.9412096295       31.1023528873       -6.5498330134  W2        2790            0.0000000000
      8371      2791  TIP3      OH2           -24.9171196295       18.4828328873       -4.9954130134  W2        2791            0.0000000000
      8372      2791  TIP3      H1            -25.6531996295       19.0935428873       -5.0332830134  W2        2791            0.0000000000
      8373      2791  TIP3      H2            -24.2337196295       18.8977328873       -5.5217730134  W2        2791            0.0000000000
      8374      2792  TIP3      OH2           -31.9139796295       16.5695628873       -7.5296130134  W2        2792            0.0000000000
      8375      2792  TIP3      H1            -32.0315596295       15.6211628873       -7.5837830134  W2        2792            0.0000000000
      8376      2792  TIP3      H2            -32.7689696295       16.9021728873       -7.2565030134  W2        2792            0.0000000000
      8377      2793  TIP3      OH2           -26.9656996295       31.9776528873       -9.7876430134  W2        2793            0.0000000000
      8378      2793  TIP3      H1            -26.5404696295       31.2704428873      -10.2726830134  W2        2793            0.0000000000
      8379      2793  TIP3      H2            -26.6486996295       32.7789228873      -10.2044230134  W2        2793            0.0000000000
      8380      2794  TIP3      OH2           -25.8060496295       29.8785028873      -11.2789830134  W2        2794            0.0000000000
      8381      2794  TIP3      H1            -26.0635696295       29.1885128873      -11.8903930134  W2        2794            0.0000000000
      8382      2794  TIP3      H2            -25.7349696295       29.4356228873      -10.4333930134  W2        2794            0.0000000000
      8383      2795  TIP3      OH2           -24.1200296295       28.4451728873       -2.8016330134  W2        2795            0.0000000000
      8384      2795  TIP3      H1            -23.9803996295       27.8534228873       -3.5409330134  W2        2795            0.0000000000
      8385      2795  TIP3      H2            -23.9527496295       29.3177628873       -3.1577530134  W2        2795            0.0000000000
      8386      2796  TIP3      OH2           -29.6474896295       25.4071228873      -13.0290330134  W2        2796            0.0000000000
      8387      2796  TIP3      H1            -30.3589396295       25.9420928873      -13.3809830134  W2        2796            0.0000000000
      8388      2796  TIP3      H2            -28.9565296295       25.4623328873      -13.6891430134  W2        2796            0.0000000000
      8389      2797  TIP3      OH2           -29.5935696295       23.8645528873      -15.9905330134  W2        2797            0.0000000000
      8390      2797  TIP3      H1            -28.8925796295       23.8872428873      -15.3391330134  W2        2797            0.0000000000
      8391      2797  TIP3      H2            -29.2912796295       23.2365228873      -16.6466030134  W2        2797            0.0000000000
      8392      2798  TIP3      OH2           -22.2780996295       24.7849728873       -4.7355930134  W2        2798            0.0000000000
      8393      2798  TIP3      H1            -22.9306896295       25.4795328873       -4.6465030134  W2        2798            0.0000000000
      8394      2798  TIP3      H2            -21.8130696295       24.9950628873       -5.5454330134  W2        2798            0.0000000000
      8395      2799  TIP3      OH2           -26.2417196295       25.6164528873      -12.0774430134  W2        2799            0.0000000000
      8396      2799  TIP3      H1            -26.9736196295       25.8448228873      -11.5043830134  W2        2799            0.0000000000
      8397      2799  TIP3      H2            -25.7944996295       24.9027228873      -11.6226930134  W2        2799            0.0000000000
      8398      2800  TIP3      OH2           -26.3443696295       23.7907128873       -3.0097430134  W2        2800            0.0000000000
      8399      2800  TIP3      H1            -26.2644596295       24.5541528873       -2.4378930134  W2        2800            0.0000000000
      8400      2800  TIP3      H2            -26.9455996295       24.0699528873       -3.7002330134  W2        2800            0.0000000000
      8401      2801  TIP3      OH2           -34.5963496295       26.2470728873      -10.1949430134  W2        2801            0.0000000000
      8402      2801  TIP3      H1            -34.9268296295       25.8764128873      -11.0132430134  W2        2801            0.0000000000
      8403      2801  TIP3      H2            -34.0079396295       25.5764728873       -9.8481130134  W2        2801            0.0000000000
      8404      2802  TIP3      OH2           -33.2295996295       29.6751328873       -7.5137230134  W2        2802            0.0000000000
      8405      2802  TIP3      H1            -33.3244696295       29.0964428873       -8.2702630134  W2        2802            0.0000000000
      8406      2802  TIP3      H2            -32.5002396295       29.3037028873       -7.0174430134  W2        2802            0.0000000000
      8407      2803  TIP3      OH2           -34.2297996295       25.0156328873       -6.5614430134  W2        2803            0.0000000000
      8408      2803  TIP3      H1            -33.6645496295       25.1370528873       -7.3243230134  W2        2803            0.0000000000
      8409      2803  TIP3      H2            -33.9109096295       25.6531328873       -5.9225930134  W2        2803            0.0000000000
      8410      2804  TIP3      OH2           -27.9205796295       30.5188228873       -5.8273930134  W2        2804            0.0000000000
      8411      2804  TIP3      H1            -28.1609196295       31.1811328873       -5.1794730134  W2        2804            0.0000000000
      8412      2804  TIP3      H2            -28.1187596295       29.6843428873       -5.4024330134  W2        2804            0.0000000000
      8413      2805  TIP3      OH2           -33.3497296295       29.4149028873       -1.8442530134  W2        2805            0.0000000000
      8414      2805  TIP3      H1            -33.6609796295       30.1972228873       -1.3889330134  W2        2805            0.0000000000
      8415      2805  TIP3      H2            -33.9997096295       29.2618128873       -2.5300530134  W2        2805            0.0000000000
      8416      2806  TIP3      OH2           -27.3707696295       24.7787428873      -14.3923230134  W2        2806            0.0000000000
      8417      2806  TIP3      H1            -26.7912196295       24.9287728873      -13.6454330134  W2        2806            0.0000000000
      8418      2806  TIP3      H2            -26.9567696295       25.2494828873      -15.1156830134  W2        2806            0.0000000000
      8419      2807  TIP3      OH2           -36.4297396295       25.6130128873       -2.6156830134  W2        2807            0.0000000000
      8420      2807  TIP3      H1            -36.3594196295       26.2636928873       -1.9171830134  W2        2807            0.0000000000
      8421      2807  TIP3      H2            -37.3205196295       25.7157628873       -2.9505930134  W2        2807            0.0000000000
      8422      2808  TIP3      OH2           -29.6442796295       31.5155928873      -10.9570130134  W2        2808            0.0000000000
      8423      2808  TIP3      H1            -29.1705196295       31.8112228873      -10.1795930134  W2        2808            0.0000000000
      8424      2808  TIP3      H2            -30.2073496295       32.2537528873      -11.1900530134  W2        2808            0.0000000000
      8425      2809  TIP3      OH2           -35.1101396295       31.4864028873       -1.0808730134  W2        2809            0.0000000000
      8426      2809  TIP3      H1            -35.1026096295       31.3503728873       -2.0283230134  W2        2809            0.0000000000
      8427      2809  TIP3      H2            -36.0260996295       31.3692128873       -0.8288730134  W2        2809            0.0000000000
      8428      2810  TIP3      OH2           -23.6719296295       16.5287828873      -14.5793530134  W2        2810            0.0000000000
      8429      2810  TIP3      H1            -24.5718596295       16.6676828873      -14.2842930134  W2        2810            0.0000000000
      8430      2810  TIP3      H2            -23.4200896295       17.3602428873      -14.9811830134  W2        2810            0.0000000000
      8431      2811  TIP3      OH2           -35.6060796295       25.3165028873      -12.6056630134  W2        2811            0.0000000000
      8432      2811  TIP3      H1            -35.8979496295       26.0846728873      -13.0965330134  W2        2811            0.0000000000
      8433      2811  TIP3      H2            -36.2805596295       24.6571228873      -12.7685230134  W2        2811            0.0000000000
      8434      2812  TIP3      OH2           -22.4827896295       30.8950228873      -16.2029630134  W2        2812            0.0000000000
      8435      2812  TIP3      H1            -22.4094396295       31.8340428873      -16.0324330134  W2        2812            0.0000000000
      8436      2812  TIP3      H2            -21.5772796295       30.5898828873      -16.2592330134  W2        2812            0.0000000000
      8437      2813  TIP3      OH2           -39.5130696295       27.6794228873       -3.7906830134  W2        2813            0.0000000000
      8438      2813  TIP3      H1            -40.0142296295       27.6513628873       -4.6057130134  W2        2813            0.0000000000
      8439      2813  TIP3      H2            -39.5076996295       26.7737428873       -3.4809530134  W2        2813            0.0000000000
      8440      2814  TIP3      OH2           -39.7627996295       30.4598028873       -6.9066630134  W2        2814            0.0000000000
      8441      2814  TIP3      H1            -38.8167396295       30.3155028873       -6.9257130134  W2        2814            0.0000000000
      8442      2814  TIP3      H2            -39.8751696295       31.2440828873       -6.3695430134  W2        2814            0.0000000000
      8443      2815  TIP3      OH2           -21.5649496295       31.1257728873       -1.2242930134  W2        2815            0.0000000000
      8444      2815  TIP3      H1            -21.6142696295       30.1705828873       -1.2615330134  W2        2815            0.0000000000
      8445      2815  TIP3      H2            -22.3917196295       31.3933028873       -0.8229130134  W2        2815            0.0000000000
      8446      2816  TIP3      OH2           -30.5865496295       30.6996928873       -2.3481530134  W2        2816            0.0000000000
      8447      2816  TIP3      H1            -30.4990896295       31.5261528873       -1.8732430134  W2        2816            0.0000000000
      8448      2816  TIP3      H2            -31.4500396295       30.3700728873       -2.0992230134  W2        2816            0.0000000000
      8449      2817  TIP3      OH2           -30.1719696295       34.4720628873      -12.5420930134  W2        2817            0.0000000000
      8450      2817  TIP3      H1            -30.2473696295       34.3507828873      -13.4885730134  W2        2817            0.0000000000
      8451      2817  TIP3      H2            -30.1390996295       35.4213328873      -12.4236330134  W2        2817            0.0000000000
      8452      2818  TIP3      OH2           -36.5185896295       33.2607628873      -10.7611930134  W2        2818            0.0000000000
      8453      2818  TIP3      H1            -36.3665496295       32.9128028873       -9.8825430134  W2        2818            0.0000000000
      8454      2818  TIP3      H2            -37.3695496295       32.9044928873      -11.0164730134  W2        2818            0.0000000000
      8455      2819  TIP3      OH2           -27.0703696295       33.6260828873      -15.5398530134  W2        2819            0.0000000000
      8456      2819  TIP3      H1            -26.6955296295       32.8816928873      -16.0105930134  W2        2819            0.0000000000
      8457      2819  TIP3      H2            -27.0659996295       33.3561428873      -14.6215230134  W2        2819            0.0000000000
      8458      2820  TIP3      OH2           -27.4015596295       33.5517928873      -12.7906330134  W2        2820            0.0000000000
      8459      2820  TIP3      H1            -28.3365796295       33.6519828873      -12.6119330134  W2        2820            0.0000000000
      8460      2820  TIP3      H2            -27.1213696295       32.8423928873      -12.2123130134  W2        2820            0.0000000000
      8461      2821  TIP3      OH2           -24.4129696295       22.6190228873       -0.7440730134  W2        2821            0.0000000000
      8462      2821  TIP3      H1            -24.8202896295       23.0995828873       -1.4647430134  W2        2821            0.0000000000
      8463      2821  TIP3      H2            -24.3723996295       21.7136228873       -1.0519930134  W2        2821            0.0000000000
      8464      2822  TIP3      OH2           -37.2640196295       29.0029628873       -2.7474030134  W2        2822            0.0000000000
      8465      2822  TIP3      H1            -37.0478896295       28.6415228873       -1.8878230134  W2        2822            0.0000000000
      8466      2822  TIP3      H2            -38.1195496295       28.6283428873       -2.9570530134  W2        2822            0.0000000000
      8467      2823  TIP3      OH2           -34.6452196295       17.4730128873       -6.7519830134  W2        2823            0.0000000000
      8468      2823  TIP3      H1            -35.5068496295       17.3858328873       -7.1596930134  W2        2823            0.0000000000
      8469      2823  TIP3      H2            -34.6676496295       18.3290228873       -6.3242230134  W2        2823            0.0000000000
      8470      2824  TIP3      OH2           -29.9824396295       17.1950528873       -3.3772830134  W2        2824            0.0000000000
      8471      2824  TIP3      H1            -29.5621296295       16.7797628873       -2.6242230134  W2        2824            0.0000000000
      8472      2824  TIP3      H2            -30.9154796295       17.0163828873       -3.2600830134  W2        2824            0.0000000000
      8473      2825  TIP3      OH2           -26.6559496295       20.9505728873       -2.5238330134  W2        2825            0.0000000000
      8474      2825  TIP3      H1            -27.1699996295       20.8247928873       -1.7262330134  W2        2825            0.0000000000
      8475      2825  TIP3      H2            -26.8114796295       21.8628828873       -2.7682130134  W2        2825            0.0000000000
      8476      2826  TIP3      OH2           -25.8934596295       25.8115728873      -16.7625330134  W2        2826            0.0000000000
      8477      2826  TIP3      H1            -25.8513796295       25.5889628873      -17.6925330134  W2        2826            0.0000000000
      8478      2826  TIP3      H2            -25.0442496295       26.2102828873      -16.5725430134  W2        2826            0.0000000000
      8479      2827  TIP3      OH2           -30.3207096295       19.6873928873      -16.0922030134  W2        2827            0.0000000000
      8480      2827  TIP3      H1            -30.5742296295       19.7065528873      -15.1693930134  W2        2827            0.0000000000
      8481      2827  TIP3      H2            -30.5774996295       18.8159328873      -16.3935830134  W2        2827            0.0000000000
      8482      2828  TIP3      OH2           -34.5542096295       22.4384628873       -5.6569630134  W2        2828            0.0000000000
      8483      2828  TIP3      H1            -35.1959996295       22.3981928873       -4.9479530134  W2        2828            0.0000000000
      8484      2828  TIP3      H2            -34.5170096295       23.3649328873       -5.8946630134  W2        2828            0.0000000000
      8485      2829  TIP3      OH2           -34.5572996295       22.6594728873      -10.7449630134  W2        2829            0.0000000000
      8486      2829  TIP3      H1            -35.4500096295       22.3190828873      -10.8035830134  W2        2829            0.0000000000
      8487      2829  TIP3      H2            -34.1066396295       22.2825628873      -11.5006430134  W2        2829            0.0000000000
      8488      2830  TIP3      OH2           -29.0217496295       23.0755028873      -11.9278830134  W2        2830            0.0000000000
      8489      2830  TIP3      H1            -29.4307196295       23.8903628873      -12.2194030134  W2        2830            0.0000000000
      8490      2830  TIP3      H2            -28.3011296295       22.9355128873      -12.5421730134  W2        2830            0.0000000000
      8491      2831  TIP3      OH2           -29.9195896295       23.2511428873       -0.4398130134  W2        2831            0.0000000000
      8492      2831  TIP3      H1            -30.4822096295       22.5463028873       -0.1190330134  W2        2831            0.0000000000
      8493      2831  TIP3      H2            -29.0932496295       23.1303328873        0.0279469866  W2        2831            0.0000000000
      8494      2832  TIP3      OH2           -28.0169796295       22.5215428873       -9.1139130134  W2        2832            0.0000000000
      8495      2832  TIP3      H1            -28.2125296295       23.1272228873       -9.8288530134  W2        2832            0.0000000000
      8496      2832  TIP3      H2            -27.8357196295       21.6880628873       -9.5482830134  W2        2832            0.0000000000
      8497      2833  TIP3      OH2           -36.8041596295       22.7588128873       -3.7897630134  W2        2833            0.0000000000
      8498      2833  TIP3      H1            -36.8422196295       23.1589728873       -2.9210530134  W2        2833            0.0000000000
      8499      2833  TIP3      H2            -37.2950496295       21.9420528873       -3.6994730134  W2        2833            0.0000000000
      8500      2834  TIP3      OH2           -33.4384196295       20.1330428873      -16.9911630134  W2        2834            0.0000000000
      8501      2834  TIP3      H1            -33.8693496295       19.6880528873      -16.2614230134  W2        2834            0.0000000000
      8502      2834  TIP3      H2            -34.1565496295       20.5046728873      -17.5034130134  W2        2834            0.0000000000
      8503      2835  TIP3      OH2           -40.1960796295       19.8749928873       -9.9392930134  W2        2835            0.0000000000
      8504      2835  TIP3      H1            -39.5653096295       19.8462028873       -9.2199030134  W2        2835            0.0000000000
      8505      2835  TIP3      H2            -39.7466496295       19.4498628873      -10.6697030134  W2        2835            0.0000000000
      8506      2836  TIP3      OH2           -38.9218696295       20.6211928873      -14.5152530134  W2        2836            0.0000000000
      8507      2836  TIP3      H1            -38.4476996295       21.2121828873      -15.1001630134  W2        2836            0.0000000000
      8508      2836  TIP3      H2            -39.6392296295       21.1514828873      -14.1682430134  W2        2836            0.0000000000
      8509      2837  TIP3      OH2           -28.7530596295       24.1596728873       -4.4426730134  W2        2837            0.0000000000
      8510      2837  TIP3      H1            -28.4295796295       23.5286428873       -5.0856230134  W2        2837            0.0000000000
      8511      2837  TIP3      H2            -29.1931296295       23.6248928873       -3.7819330134  W2        2837            0.0000000000
      8512      2838  TIP3      OH2           -31.9757696295       20.0872228873       -9.6585530134  W2        2838            0.0000000000
      8513      2838  TIP3      H1            -32.8866596295       20.1439028873       -9.3699530134  W2        2838            0.0000000000
      8514      2838  TIP3      H2            -31.4704796295       20.0267728873       -8.8478330134  W2        2838            0.0000000000
      8515      2839  TIP3      OH2           -37.1474296295       21.7158528873      -10.8317930134  W2        2839            0.0000000000
      8516      2839  TIP3      H1            -38.0366296295       21.8154028873      -11.1718330134  W2        2839            0.0000000000
      8517      2839  TIP3      H2            -36.8509396295       20.8741528873      -11.1780030134  W2        2839            0.0000000000
      8518      2840  TIP3      OH2           -33.4942496295       21.7161128873      -13.1753330134  W2        2840            0.0000000000
      8519      2840  TIP3      H1            -32.5626996295       21.8451128873      -12.9970230134  W2        2840            0.0000000000
      8520      2840  TIP3      H2            -33.7092196295       22.3855428873      -13.8248630134  W2        2840            0.0000000000
      8521      2841  TIP3      OH2           -27.5705796295       19.3218528873       -6.3943730134  W2        2841            0.0000000000
      8522      2841  TIP3      H1            -28.2474196295       19.4531628873       -5.7304030134  W2        2841            0.0000000000
      8523      2841  TIP3      H2            -28.0560896295       19.1668028873       -7.2046030134  W2        2841            0.0000000000
      8524      2842  TIP3      OH2           -34.8202296295       22.9103328873      -15.6087230134  W2        2842            0.0000000000
      8525      2842  TIP3      H1            -35.3627196295       22.5307128873      -16.2999630134  W2        2842            0.0000000000
      8526      2842  TIP3      H2            -33.9867396295       23.1048028873      -16.0373130134  W2        2842            0.0000000000
      8527      2843  TIP3      OH2           -24.2830696295       34.9933928873       -0.1176130134  W2        2843            0.0000000000
      8528      2843  TIP3      H1            -24.0831996295       35.4175828873       -0.9520830134  W2        2843            0.0000000000
      8529      2843  TIP3      H2            -23.6276996295       35.3372128873        0.4894269866  W2        2843            0.0000000000
      8530      2844  TIP3      OH2           -36.6850896295       27.4675228873       -0.5095630134  W2        2844            0.0000000000
      8531      2844  TIP3      H1            -35.9528496295       27.7221128873        0.0518869866  W2        2844            0.0000000000
      8532      2844  TIP3      H2            -37.4652196295       27.6720628873        0.0059769866  W2        2844            0.0000000000
      8533      2845  TIP3      OH2           -30.6557996295       22.8745228873       -7.7715930134  W2        2845            0.0000000000
      8534      2845  TIP3      H1            -30.0914596295       22.3281828873       -8.3186330134  W2        2845            0.0000000000
      8535      2845  TIP3      H2            -30.8034596295       22.3527128873       -6.9828330134  W2        2845            0.0000000000
      8536      2846  TIP3      OH2           -35.6538296295       19.0111328873      -11.3531130134  W2        2846            0.0000000000
      8537      2846  TIP3      H1            -35.9708796295       18.1086628873      -11.3885730134  W2        2846            0.0000000000
      8538      2846  TIP3      H2            -34.8724196295       19.0128728873      -11.9059530134  W2        2846            0.0000000000
      8539      2847  TIP3      OH2           -32.0292096295       21.2631328873       -5.3575530134  W2        2847            0.0000000000
      8540      2847  TIP3      H1            -32.8646796295       21.7170828873       -5.2473130134  W2        2847            0.0000000000
      8541      2847  TIP3      H2            -31.5051496295       21.5389828873       -4.6055630134  W2        2847            0.0000000000
      8542      2848  TIP3      OH2           -31.4849496295       27.4759028873      -13.6729130134  W2        2848            0.0000000000
      8543      2848  TIP3      H1            -32.2298496295       26.9684328873      -13.9951230134  W2        2848            0.0000000000
      8544      2848  TIP3      H2            -31.6192296295       27.5247028873      -12.7264330134  W2        2848            0.0000000000
      8545      2849  TIP3      OH2           -24.3350596295       26.6087228873       -4.8861530134  W2        2849            0.0000000000
      8546      2849  TIP3      H1            -23.6931796295       27.0653528873       -5.4299330134  W2        2849            0.0000000000
      8547      2849  TIP3      H2            -25.1653696295       26.7219628873       -5.3487430134  W2        2849            0.0000000000
      8548      2850  TIP3      OH2           -27.5872696295       20.2898928873      -15.4736530134  W2        2850            0.0000000000
      8549      2850  TIP3      H1            -28.5258496295       20.4014528873      -15.6247730134  W2        2850            0.0000000000
      8550      2850  TIP3      H2            -27.2900596295       21.1465828873      -15.1670830134  W2        2850            0.0000000000
      8551      2851  TIP3      OH2           -29.9657396295       27.6602328873       -2.4360030134  W2        2851            0.0000000000
      8552      2851  TIP3      H1            -30.3111296295       27.2784728873       -1.6290430134  W2        2851            0.0000000000
      8553      2851  TIP3      H2            -30.1657296295       28.5935928873       -2.3647130134  W2        2851            0.0000000000
      8554      2852  TIP3      OH2           -26.8689196295       22.1571628873      -13.8129130134  W2        2852            0.0000000000
      8555      2852  TIP3      H1            -25.9770196295       22.0196628873      -13.4937930134  W2        2852            0.0000000000
      8556      2852  TIP3      H2            -26.8125596295       22.9477728873      -14.3495630134  W2        2852            0.0000000000
      8557      2853  TIP3      OH2           -36.3601196295       26.7709028873       -7.9031230134  W2        2853            0.0000000000
      8558      2853  TIP3      H1            -35.6153996295       26.7684728873       -8.5044730134  W2        2853            0.0000000000
      8559      2853  TIP3      H2            -36.2824596295       25.9472828873       -7.4216130134  W2        2853            0.0000000000
      8560      2854  TIP3      OH2           -29.3595396295       28.9343328873      -14.6474530134  W2        2854            0.0000000000
      8561      2854  TIP3      H1            -29.6546996295       29.7611228873      -14.2659730134  W2        2854            0.0000000000
      8562      2854  TIP3      H2            -30.0625396295       28.3150228873      -14.4513130134  W2        2854            0.0000000000
      8563      2855  TIP3      OH2           -39.3521496295       25.2315928873       -2.5882730134  W2        2855            0.0000000000
      8564      2855  TIP3      H1            -39.1292896295       24.8135528873       -1.7565230134  W2        2855            0.0000000000
      8565      2855  TIP3      H2            -39.9541396295       24.6190928873       -3.0109930134  W2        2855            0.0000000000
      8566      2856  TIP3      OH2           -32.3356596295       24.7485828873       -0.3753030134  W2        2856            0.0000000000
      8567      2856  TIP3      H1            -32.6315796295       24.5828828873       -1.2703930134  W2        2856            0.0000000000
      8568      2856  TIP3      H2            -31.4041396295       24.5286128873       -0.3859130134  W2        2856            0.0000000000
      8569      2857  TIP3      OH2           -27.7153796295       30.1217828873       -2.4855030134  W2        2857            0.0000000000
      8570      2857  TIP3      H1            -28.6159496295       30.3050428873       -2.7531130134  W2        2857            0.0000000000
      8571      2857  TIP3      H2            -27.6812696295       30.3807128873       -1.5646230134  W2        2857            0.0000000000
      8572      2858  TIP3      OH2           -21.9840496295       22.3665728873      -14.1182430134  W2        2858            0.0000000000
      8573      2858  TIP3      H1            -22.5384196295       21.9703728873      -14.7904930134  W2        2858            0.0000000000
      8574      2858  TIP3      H2            -21.8836896295       23.2770928873      -14.3959130134  W2        2858            0.0000000000
      8575      2859  TIP3      OH2           -22.0208496295       28.1667428873       -1.2810930134  W2        2859            0.0000000000
      8576      2859  TIP3      H1            -22.8719996295       28.4051228873       -1.6484530134  W2        2859            0.0000000000
      8577      2859  TIP3      H2            -21.4305096295       28.1500628873       -2.0343830134  W2        2859            0.0000000000
      8578      2860  TIP3      OH2           -23.6888796295       31.1526128873      -13.6530330134  W2        2860            0.0000000000
      8579      2860  TIP3      H1            -24.0617696295       30.3269928873      -13.3439730134  W2        2860            0.0000000000
      8580      2860  TIP3      H2            -23.4115296295       30.9695528873      -14.5506930134  W2        2860            0.0000000000
      8581      2861  TIP3      OH2           -26.5284896295       25.9605628873       -6.6318430134  W2        2861            0.0000000000
      8582      2861  TIP3      H1            -27.4567996295       25.7287528873       -6.6589130134  W2        2861            0.0000000000
      8583      2861  TIP3      H2            -26.0773796295       25.1835428873       -6.9619630134  W2        2861            0.0000000000
      8584      2862  TIP3      OH2           -33.9851796295       30.2887228873      -10.4989730134  W2        2862            0.0000000000
      8585      2862  TIP3      H1            -33.4579596295       31.0621628873      -10.6990930134  W2        2862            0.0000000000
      8586      2862  TIP3      H2            -34.8653296295       30.5136428873      -10.8005730134  W2        2862            0.0000000000
      8587      2863  TIP3      OH2           -38.2304096295       25.1511328873      -15.9117330134  W2        2863            0.0000000000
      8588      2863  TIP3      H1            -37.6144196295       25.7778528873      -15.5322530134  W2        2863            0.0000000000
      8589      2863  TIP3      H2            -39.0921496295       25.4671128873      -15.6400830134  W2        2863            0.0000000000
      8590      2864  TIP3      OH2           -32.5579496295       27.9517128873      -10.9225430134  W2        2864            0.0000000000
      8591      2864  TIP3      H1            -32.7989496295       28.8771528873      -10.8810130134  W2        2864            0.0000000000
      8592      2864  TIP3      H2            -33.2985896295       27.4928428873      -10.5261530134  W2        2864            0.0000000000
      8593      2865  TIP3      OH2           -32.0432896295       32.1010728873       -4.6074330134  W2        2865            0.0000000000
      8594      2865  TIP3      H1            -31.6808196295       32.9556328873       -4.8409930134  W2        2865            0.0000000000
      8595      2865  TIP3      H2            -31.5117696295       31.8092328873       -3.8668030134  W2        2865            0.0000000000
      8596      2866  TIP3      OH2           -33.8748696295       32.9734728873      -11.3773230134  W2        2866            0.0000000000
      8597      2866  TIP3      H1            -34.8248196295       33.0792128873      -11.3259930134  W2        2866            0.0000000000
      8598      2866  TIP3      H2            -33.5230596295       33.7942128873      -11.0325730134  W2        2866            0.0000000000
      8599      2867  TIP3      OH2           -28.4992096295       28.2001428873       -4.9068730134  W2        2867            0.0000000000
      8600      2867  TIP3      H1            -28.9250796295       27.9723128873       -4.0804730134  W2        2867            0.0000000000
      8601      2867  TIP3      H2            -27.9186296295       27.4613228873       -5.0893430134  W2        2867            0.0000000000
      8602      2868  TIP3      OH2           -26.2963196295       29.1291928873      -15.8329730134  W2        2868            0.0000000000
      8603      2868  TIP3      H1            -25.9430096295       28.7491728873      -15.0286230134  W2        2868            0.0000000000
      8604      2868  TIP3      H2            -27.2449696295       29.0356728873      -15.7460430134  W2        2868            0.0000000000
      8605      2869  TIP3      OH2           -25.8407896295       32.7520928873       -2.4373930134  W2        2869            0.0000000000
      8606      2869  TIP3      H1            -26.4424696295       32.1963828873       -2.9327630134  W2        2869            0.0000000000
      8607      2869  TIP3      H2            -25.5594196295       33.4190728873       -3.0636530134  W2        2869            0.0000000000
      8608      2870  TIP3      OH2           -21.7928796295       33.6084428873      -15.6319530134  W2        2870            0.0000000000
      8609      2870  TIP3      H1            -21.0490896295       34.1944928873      -15.7717930134  W2        2870            0.0000000000
      8610      2870  TIP3      H2            -22.4870696295       34.1770228873      -15.2987130134  W2        2870            0.0000000000
      8611      2871  TIP3      OH2           -37.7181996295       19.9848628873       -3.0301330134  W2        2871            0.0000000000
      8612      2871  TIP3      H1            -38.6109696295       20.3234028873       -3.0977330134  W2        2871            0.0000000000
      8613      2871  TIP3      H2            -37.8169196295       19.1294728873       -2.6120530134  W2        2871            0.0000000000
      8614      2872  TIP3      OH2           -25.4303896295       27.8013928873      -13.6061830134  W2        2872            0.0000000000
      8615      2872  TIP3      H1            -25.7076296295       27.0733228873      -13.0500730134  W2        2872            0.0000000000
      8616      2872  TIP3      H2            -24.5030896295       27.9205928873      -13.4009230134  W2        2872            0.0000000000
      8617      2873  TIP3      OH2           -38.0669996295       31.7893028873       -4.5951930134  W2        2873            0.0000000000
      8618      2873  TIP3      H1            -37.8499696295       30.8575428873       -4.6262230134  W2        2873            0.0000000000
      8619      2873  TIP3      H2            -37.8206496295       32.0638028873       -3.7119130134  W2        2873            0.0000000000
      8620      2874  TIP3      OH2           -32.2055396295       30.2408028873      -17.3859730134  W2        2874            0.0000000000
      8621      2874  TIP3      H1            -31.9665596295       29.4926128873      -17.9330830134  W2        2874            0.0000000000
      8622      2874  TIP3      H2            -32.4744096295       29.8529728873      -16.5531930134  W2        2874            0.0000000000
      8623      2875  TIP3      OH2           -33.2684796295       29.8111828873      -14.9297130134  W2        2875            0.0000000000
      8624      2875  TIP3      H1            -33.1216796295       29.2911628873      -14.1396230134  W2        2875            0.0000000000
      8625      2875  TIP3      H2            -33.2713096295       30.7179428873      -14.6231230134  W2        2875            0.0000000000
      8626      2876  TIP3      OH2           -36.8153696295       27.0635128873      -14.4191730134  W2        2876            0.0000000000
      8627      2876  TIP3      H1            -37.5014396295       27.4157628873      -13.8522030134  W2        2876            0.0000000000
      8628      2876  TIP3      H2            -36.2925796295       27.8264728873      -14.6657430134  W2        2876            0.0000000000
      8629      2877  TIP3      OH2           -28.9838596295       19.7258928873       -4.1402730134  W2        2877            0.0000000000
      8630      2877  TIP3      H1            -28.2850696295       19.7997628873       -3.4903030134  W2        2877            0.0000000000
      8631      2877  TIP3      H2            -29.3647196295       18.8613928873       -3.9859830134  W2        2877            0.0000000000
      8632      2878  TIP3      OH2           -28.1993696295       19.3780628873      -13.0430430134  W2        2878            0.0000000000
      8633      2878  TIP3      H1            -27.9795396295       19.8496028873      -13.8465030134  W2        2878            0.0000000000
      8634      2878  TIP3      H2            -27.6409696295       19.7723228873      -12.3729830134  W2        2878            0.0000000000
      8635      2879  TIP3      OH2           -30.5307596295       31.5085428873      -14.1802930134  W2        2879            0.0000000000
      8636      2879  TIP3      H1            -31.3471496295       32.0055128873      -14.1278630134  W2        2879            0.0000000000
      8637      2879  TIP3      H2            -30.0011296295       31.9838928873      -14.8204130134  W2        2879            0.0000000000
      8638      2880  TIP3      OH2           -30.9993796295       21.1059428873      -12.2082030134  W2        2880            0.0000000000
      8639      2880  TIP3      H1            -30.1871196295       21.6102628873      -12.1620330134  W2        2880            0.0000000000
      8640      2880  TIP3      H2            -31.2440796295       20.9609128873      -11.2942430134  W2        2880            0.0000000000
      8641      2881  TIP3      OH2           -30.4637396295       22.0922128873       -3.0235430134  W2        2881            0.0000000000
      8642      2881  TIP3      H1            -30.3447096295       22.6657528873       -2.2665030134  W2        2881            0.0000000000
      8643      2881  TIP3      H2            -29.8082796295       21.4041528873       -2.9087630134  W2        2881            0.0000000000
      8644      2882  TIP3      OH2           -30.1157096295       18.1872428873      -11.2700930134  W2        2882            0.0000000000
      8645      2882  TIP3      H1            -30.4623596295       18.8043028873      -10.6256630134  W2        2882            0.0000000000
      8646      2882  TIP3      H2            -29.4570196295       18.6878128873      -11.7515430134  W2        2882            0.0000000000
      8647      2883  TIP3      OH2           -33.1924496295       32.5522628873      -14.1986030134  W2        2883            0.0000000000
      8648      2883  TIP3      H1            -33.0315796295       33.3520128873      -14.6993430134  W2        2883            0.0000000000
      8649      2883  TIP3      H2            -33.3896696295       32.8588628873      -13.3135430134  W2        2883            0.0000000000
      8650      2884  TIP3      OH2           -34.4580096295       19.2501828873      -14.5828430134  W2        2884            0.0000000000
      8651      2884  TIP3      H1            -34.5415296295       20.1384928873      -14.2362030134  W2        2884            0.0000000000
      8652      2884  TIP3      H2            -33.5679796295       18.9848528873      -14.3511630134  W2        2884            0.0000000000
      8653      2885  TIP3      OH2           -24.2591596295       19.9992428873       -2.1885730134  W2        2885            0.0000000000
      8654      2885  TIP3      H1            -25.1755796295       20.2614128873       -2.2762030134  W2        2885            0.0000000000
      8655      2885  TIP3      H2            -23.9236596295       19.9961428873       -3.0850430134  W2        2885            0.0000000000
      8656      2886  TIP3      OH2           -25.6570596295       23.7493428873       -8.0928430134  W2        2886            0.0000000000
      8657      2886  TIP3      H1            -26.4546196295       23.3343628873       -8.4213430134  W2        2886            0.0000000000
      8658      2886  TIP3      H2            -25.2119496295       23.0587128873       -7.6017930134  W2        2886            0.0000000000
      8659      2887  TIP3      OH2           -36.1994796295       29.6774028873      -15.5223930134  W2        2887            0.0000000000
      8660      2887  TIP3      H1            -35.6073296295       30.3768828873      -15.2461530134  W2        2887            0.0000000000
      8661      2887  TIP3      H2            -35.7401796295       29.2443528873      -16.2419330134  W2        2887            0.0000000000
      8662      2888  TIP3      OH2           -37.8835596295       22.3417028873      -16.4064530134  W2        2888            0.0000000000
      8663      2888  TIP3      H1            -37.9282996295       23.2810128873      -16.2277530134  W2        2888            0.0000000000
      8664      2888  TIP3      H2            -38.7712396295       22.1061928873      -16.6762430134  W2        2888            0.0000000000
      8665      2889  TIP3      OH2           -24.5705996295       33.0055928873       -6.4704930134  W2        2889            0.0000000000
      8666      2889  TIP3      H1            -24.7261696295       33.6840328873       -7.1275630134  W2        2889            0.0000000000
      8667      2889  TIP3      H2            -23.6379596295       33.0775228873       -6.2674330134  W2        2889            0.0000000000
      8668      2890  TIP3      OH2           -37.0753596295       17.1233628873       -7.7333530134  W2        2890            0.0000000000
      8669      2890  TIP3      H1            -37.3043796295       17.1826128873       -8.6608530134  W2        2890            0.0000000000
      8670      2890  TIP3      H2            -37.5180196295       16.3319128873       -7.4269430134  W2        2890            0.0000000000
      8671      2891  TIP3      OH2           -38.1450296295       31.0640728873      -11.5727730134  W2        2891            0.0000000000
      8672      2891  TIP3      H1            -38.9771696295       31.5363428873      -11.5456330134  W2        2891            0.0000000000
      8673      2891  TIP3      H2            -37.5991996295       31.5738328873      -12.1714630134  W2        2891            0.0000000000
      8674      2892  TIP3      OH2           -38.8566596295       33.6764428873       -0.2429730134  W2        2892            0.0000000000
      8675      2892  TIP3      H1            -38.3164396295       33.4598428873        0.5169469866  W2        2892            0.0000000000
      8676      2892  TIP3      H2            -39.3378596295       32.8710428873       -0.4327230134  W2        2892            0.0000000000
      8677      2893  TIP3      OH2           -34.2593196295       32.5958828873        1.3774469866  W2        2893            0.0000000000
      8678      2893  TIP3      H1            -33.4915996295       32.1369628873        1.7183669866  W2        2893            0.0000000000
      8679      2893  TIP3      H2            -34.2806996295       32.3698628873        0.4475669866  W2        2893            0.0000000000
      8680      2894  TIP3      OH2           -30.1673596295       32.1039428873      -17.2473730134  W2        2894            0.0000000000
      8681      2894  TIP3      H1            -30.8112596295       31.4728028873      -16.9260030134  W2        2894            0.0000000000
      8682      2894  TIP3      H2            -29.4055296295       31.5727428873      -17.4790230134  W2        2894            0.0000000000
      8683      2895  TIP3      OH2           -27.6824496295       30.9759928873        0.1065969866  W2        2895            0.0000000000
      8684      2895  TIP3      H1            -28.0334996295       30.1192928873        0.3496369866  W2        2895            0.0000000000
      8685      2895  TIP3      H2            -26.9561296295       31.1186628873        0.7134969866  W2        2895            0.0000000000
      8686      2896  TIP3      OH2           -25.5630696295       31.9209328873      -17.0135730134  W2        2896            0.0000000000
      8687      2896  TIP3      H1            -25.2800296295       31.1264528873      -16.5608830134  W2        2896            0.0000000000
      8688      2896  TIP3      H2            -24.8232796295       32.1540328873      -17.5744630134  W2        2896            0.0000000000
      8689      2897  TIP3      OH2           -38.9497096295       27.4868528873        0.7114569866  W2        2897            0.0000000000
      8690      2897  TIP3      H1            -38.8056596295       26.5849228873        0.4251269866  W2        2897            0.0000000000
      8691      2897  TIP3      H2            -39.7219696295       27.7730628873        0.2236869866  W2        2897            0.0000000000
      8692      2898  TIP3      OH2           -34.6083396295       27.8304228873      -17.1560830134  W2        2898            0.0000000000
      8693      2898  TIP3      H1            -34.5439296295       27.0363828873      -16.6254430134  W2        2898            0.0000000000
      8694      2898  TIP3      H2            -33.9554196295       27.7117028873      -17.8458830134  W2        2898            0.0000000000
      8695      2899  TIP3      OH2           -32.2940996295       27.4566628873        0.1440969866  W2        2899            0.0000000000
      8696      2899  TIP3      H1            -32.6227196295       27.7274728873       -0.7131630134  W2        2899            0.0000000000
      8697      2899  TIP3      H2            -32.1422796295       26.5156428873        0.0565969866  W2        2899            0.0000000000
      8698      2900  TIP3      OH2           -29.2559996295       28.8775928873      -17.4202830134  W2        2900            0.0000000000
      8699      2900  TIP3      H1            -29.5245896295       29.0578028873      -16.5193930134  W2        2900            0.0000000000
      8700      2900  TIP3      H2            -29.4624396295       27.9522128873      -17.5517030134  W2        2900            0.0000000000
      8701      2901  TIP3      OH2           -26.5595796295       27.3723928873       -2.4726730134  W2        2901            0.0000000000
      8702      2901  TIP3      H1            -25.8140996295       27.9607628873       -2.5922730134  W2        2901            0.0000000000
      8703      2901  TIP3      H2            -27.3168996295       27.9543628873       -2.4093630134  W2        2901            0.0000000000
      8704      2902  TIP3      OH2           -38.1170596295       24.6871828873        0.1313869866  W2        2902            0.0000000000
      8705      2902  TIP3      H1            -37.7089396295       23.8298428873        0.0104469866  W2        2902            0.0000000000
      8706      2902  TIP3      H2            -38.3772996295       24.7013128873        1.0524169866  W2        2902            0.0000000000
      8707      2903  TIP3      OH2           -33.4589596295       25.8030428873      -14.8502830134  W2        2903            0.0000000000
      8708      2903  TIP3      H1            -33.9187596295       25.3188728873      -14.1644330134  W2        2903            0.0000000000
      8709      2903  TIP3      H2            -33.2040896295       25.1345828873      -15.4862330134  W2        2903            0.0000000000
      8710      2904  TIP3      OH2           -34.1700296295       23.6957528873       -2.4943230134  W2        2904            0.0000000000
      8711      2904  TIP3      H1            -34.7884196295       24.3704128873       -2.2138530134  W2        2904            0.0000000000
      8712      2904  TIP3      H2            -33.8259096295       24.0171428873       -3.3277030134  W2        2904            0.0000000000
      8713      2905  TIP3      OH2           -32.3879196295       24.0462228873      -16.5879630134  W2        2905            0.0000000000
      8714      2905  TIP3      H1            -32.5684196295       23.8913428873      -17.5151330134  W2        2905            0.0000000000
      8715      2905  TIP3      H2            -31.4378696295       24.1540928873      -16.5431730134  W2        2905            0.0000000000
      8716      2906  TIP3      OH2           -29.1502096295       26.1672828873        0.7831569866  W2        2906            0.0000000000
      8717      2906  TIP3      H1            -28.1970896295       26.2511928873        0.7557569866  W2        2906            0.0000000000
      8718      2906  TIP3      H2            -29.3107496295       25.4554628873        1.4026469866  W2        2906            0.0000000000
      8719      2907  TIP3      OH2           -22.9980896295       26.4006428873      -17.1421530134  W2        2907            0.0000000000
      8720      2907  TIP3      H1            -23.2716096295       25.9761928873      -17.9553230134  W2        2907            0.0000000000
      8721      2907  TIP3      H2            -22.9586796295       27.3320928873      -17.3591130134  W2        2907            0.0000000000
      8722      2908  TIP3      OH2           -33.8306596295       21.0508328873       -1.4120130134  W2        2908            0.0000000000
      8723      2908  TIP3      H1            -33.6805696295       20.3219628873       -2.0140430134  W2        2908            0.0000000000
      8724      2908  TIP3      H2            -33.8284196295       21.8280028873       -1.9707930134  W2        2908            0.0000000000
      8725      2909  TIP3      OH2           -33.4180896295       19.4204128873       -3.9192730134  W2        2909            0.0000000000
      8726      2909  TIP3      H1            -32.8823396295       19.8720828873       -4.5713430134  W2        2909            0.0000000000
      8727      2909  TIP3      H2            -34.2701296295       19.3123928873       -4.3418630134  W2        2909            0.0000000000
      8728      2910  TIP3      OH2           -31.8362496295       24.8600328873       -3.6797530134  W2        2910            0.0000000000
      8729      2910  TIP3      H1            -31.0857696295       24.7037828873       -4.2529730134  W2        2910            0.0000000000
      8730      2910  TIP3      H2            -32.1754196295       25.7116928873       -3.9552030134  W2        2910            0.0000000000
      8731      2911  TIP3      OH2           -27.4206296295       22.6752128873        1.3487769866  W2        2911            0.0000000000
      8732      2911  TIP3      H1            -27.2284996295       21.7441528873        1.2372269866  W2        2911            0.0000000000
      8733      2911  TIP3      H2            -26.5629996295       23.1001628873        1.3383169866  W2        2911            0.0000000000
      8734      2912  TIP3      OH2           -26.1039096295       25.4637328873       -0.5739530134  W2        2912            0.0000000000
      8735      2912  TIP3      H1            -26.3854096295       26.1731928873       -1.1515730134  W2        2912            0.0000000000
      8736      2912  TIP3      H2            -25.1614796295       25.3910328873       -0.7248330134  W2        2912            0.0000000000
      8737      2913  TIP3      OH2           -35.3520296295       22.2491828873        0.4995469866  W2        2913            0.0000000000
      8738      2913  TIP3      H1            -36.1191296295       21.7166628873        0.2893069866  W2        2913            0.0000000000
      8739      2913  TIP3      H2            -34.6731296295       21.9392228873       -0.0998230134  W2        2913            0.0000000000
      8740      2914  TIP3      OH2           -32.6125396295       16.8769828873       -3.4879130134  W2        2914            0.0000000000
      8741      2914  TIP3      H1            -32.7105796295       17.8233028873       -3.5932930134  W2        2914            0.0000000000
      8742      2914  TIP3      H2            -33.3549196295       16.5043628873       -3.9635630134  W2        2914            0.0000000000
      8743      2915  TIP3      OH2           -31.3484896295       21.1985228873        0.0759269866  W2        2915            0.0000000000
      8744      2915  TIP3      H1            -31.5839496295       20.9791928873        0.9774169866  W2        2915            0.0000000000
      8745      2915  TIP3      H2            -32.1317996295       20.9916428873       -0.4338230134  W2        2915            0.0000000000
      8746      2916  TIP3      OH2           -28.6328296295       20.3258728873       -0.8487230134  W2        2916            0.0000000000
      8747      2916  TIP3      H1            -29.5802896295       20.3578428873       -0.7163930134  W2        2916            0.0000000000
      8748      2916  TIP3      H2            -28.3201596295       19.7005828873       -0.1949030134  W2        2916            0.0000000000
      8749      2917  TIP3      OH2           -26.9986796295       18.9599828873        1.1564669866  W2        2917            0.0000000000
      8750      2917  TIP3      H1            -27.0954996295       18.0077128873        1.1506569866  W2        2917            0.0000000000
      8751      2917  TIP3      H2            -27.3203696295       19.2286628873        2.0170169866  W2        2917            0.0000000000
      8752      2918  TIP3      OH2           -37.1717496295       20.1695628873        0.2040169866  W2        2918            0.0000000000
      8753      2918  TIP3      H1            -36.9600096295       19.4631728873       -0.4062330134  W2        2918            0.0000000000
      8754      2918  TIP3      H2            -37.2829996295       19.7321628873        1.0481369866  W2        2918            0.0000000000
      8755      2919  TIP3      OH2           -32.3907296295       16.1707228873       -0.8166330134  W2        2919            0.0000000000
      8756      2919  TIP3      H1            -31.6788896295       15.5309428873       -0.8307230134  W2        2919            0.0000000000
      8757      2919  TIP3      H2            -32.4916896295       16.4375528873       -1.7303230134  W2        2919            0.0000000000
      8758      2920  TIP3      OH2           -32.0369796295       17.8535628873        1.2369969866  W2        2920            0.0000000000
      8759      2920  TIP3      H1            -32.1687596295       17.3779428873        0.4168469866  W2        2920            0.0000000000
      8760      2920  TIP3      H2            -32.6362396295       18.5979228873        1.1817069866  W2        2920            0.0000000000
      8761      2921  TIP3      OH2           -32.4907496295       34.7365928873      -15.5866030134  W2        2921            0.0000000000
      8762      2921  TIP3      H1            -31.5576796295       34.8944628873      -15.4427630134  W2        2921            0.0000000000
      8763      2921  TIP3      H2            -32.7548696295       35.4118928873      -16.2114530134  W2        2921            0.0000000000
      8764      2922  TIP3      OH2           -38.9222596295       29.3729728873      -16.1037930134  W2        2922            0.0000000000
      8765      2922  TIP3      H1            -38.0083396295       29.4518628873      -15.8304030134  W2        2922            0.0000000000
      8766      2922  TIP3      H2            -38.9149496295       28.6859328873      -16.7702330134  W2        2922            0.0000000000
      8767      2923  TIP3      OH2           -40.2731996295       34.7658228873      -11.0264030134  W2        2923            0.0000000000
      8768      2923  TIP3      H1            -40.9204896295       34.3039928873      -11.5592830134  W2        2923            0.0000000000
      8769      2923  TIP3      H2            -39.9187396295       34.0941528873      -10.4437830134  W2        2923            0.0000000000
      8770      2924  TIP3      OH2           -39.4032796295       32.8465228873       -9.2217830134  W2        2924            0.0000000000
      8771      2924  TIP3      H1            -39.7375996295       31.9662528873       -9.0497630134  W2        2924            0.0000000000
      8772      2924  TIP3      H2            -39.1810396295       33.1920228873       -8.3572230134  W2        2924            0.0000000000
      8773      2925  TIP3      OH2           -21.8547996295       33.6561628873       -6.2413030134  W2        2925            0.0000000000
      8774      2925  TIP3      H1            -21.8761296295       33.8410028873       -5.3023630134  W2        2925            0.0000000000
      8775      2925  TIP3      H2            -21.1641796295       34.2245628873       -6.5821630134  W2        2925            0.0000000000
      8776      2926  TIP3      OH2           -22.2915096295       33.2232728873       -3.3193930134  W2        2926            0.0000000000
      8777      2926  TIP3      H1            -22.7786396295       32.4876828873       -3.6906530134  W2        2926            0.0000000000
      8778      2926  TIP3      H2            -21.7422396295       32.8296628873       -2.6414530134  W2        2926            0.0000000000
      8779      2927  TIP3      OH2           -23.8407796295       29.0130828873        1.3186369866  W2        2927            0.0000000000
      8780      2927  TIP3      H1            -24.7066696295       28.9080528873        1.7128669866  W2        2927            0.0000000000
      8781      2927  TIP3      H2            -23.4641896295       29.7714128873        1.7651069866  W2        2927            0.0000000000
      8782      2928  TIP3      OH2           -22.5398096295       27.2694528873      -13.1671130134  W2        2928            0.0000000000
      8783      2928  TIP3      H1            -21.6896696295       27.6905428873      -13.0399530134  W2        2928            0.0000000000
      8784      2928  TIP3      H2            -22.5342996295       26.5294628873      -12.5599730134  W2        2928            0.0000000000
      8785      2929  TIP3      OH2           -22.1452496295       25.3231928873      -11.3435430134  W2        2929            0.0000000000
      8786      2929  TIP3      H1            -22.8717896295       24.8434528873      -10.9457830134  W2        2929            0.0000000000
      8787      2929  TIP3      H2            -21.5639196295       25.5286628873      -10.6113830134  W2        2929            0.0000000000
      8788      2930  TIP3      OH2           -22.3861296295       28.1079428873       -6.3957830134  W2        2930            0.0000000000
      8789      2930  TIP3      H1            -21.5527096295       27.7299428873       -6.6764230134  W2        2930            0.0000000000
      8790      2930  TIP3      H2            -22.2740996295       29.0510628873       -6.5148730134  W2        2930            0.0000000000
      8791      2931  TIP3      OH2           -23.8998996295       30.9856928873       -4.0889430134  W2        2931            0.0000000000
      8792      2931  TIP3      H1            -24.5473696295       31.3108428873       -3.4634230134  W2        2931            0.0000000000
      8793      2931  TIP3      H2            -24.4174996295       30.5454628873       -4.7631130134  W2        2931            0.0000000000
      8794      2932  TIP3      OH2           -21.8769396295       25.2240428873      -14.9524130134  W2        2932            0.0000000000
      8795      2932  TIP3      H1            -22.3988296295       25.5804528873      -15.6713230134  W2        2932            0.0000000000
      8796      2932  TIP3      H2            -21.9100196295       25.8988228873      -14.2743230134  W2        2932            0.0000000000
      8797      2933  TIP3      OH2           -23.5280396295       22.4636028873      -16.4017030134  W2        2933            0.0000000000
      8798      2933  TIP3      H1            -23.4315996295       23.1303028873      -17.0817330134  W2        2933            0.0000000000
      8799      2933  TIP3      H2            -23.6680796295       21.6482328873      -16.8831530134  W2        2933            0.0000000000
      8800      2934  TIP3      OH2           -24.3585696295       23.8438428873      -10.7806730134  W2        2934            0.0000000000
      8801      2934  TIP3      H1            -24.5086896295       22.8987028873      -10.8008930134  W2        2934            0.0000000000
      8802      2934  TIP3      H2            -24.7121196295       24.1249828873       -9.9367630134  W2        2934            0.0000000000
      8803      2935  TIP3      OH2           -39.3233296295       25.9220628873       -6.7702930134  W2        2935            0.0000000000
      8804      2935  TIP3      H1            -39.1390396295       25.8402328873       -7.7060030134  W2        2935            0.0000000000
      8805      2935  TIP3      H2            -38.4740396295       25.7977628873       -6.3466530134  W2        2935            0.0000000000
      8806      2936  TIP3      OH2           -23.5022796295       25.8141728873       -1.1418430134  W2        2936            0.0000000000
      8807      2936  TIP3      H1            -22.9195496295       25.0794028873       -0.9501230134  W2        2936            0.0000000000
      8808      2936  TIP3      H2            -22.9383496295       26.5862028873       -1.0952630134  W2        2936            0.0000000000
      8809      2937  TIP3      OH2           -22.0055696295       23.7167528873       -0.4573030134  W2        2937            0.0000000000
      8810      2937  TIP3      H1            -22.8688996295       23.3379628873       -0.6228330134  W2        2937            0.0000000000
      8811      2937  TIP3      H2            -21.4011996295       22.9782328873       -0.5317230134  W2        2937            0.0000000000
      8812      2938  TIP3      OH2           -24.2806596295       19.8715828873      -17.2841530134  W2        2938            0.0000000000
      8813      2938  TIP3      H1            -23.6700796295       19.5002628873      -16.6473330134  W2        2938            0.0000000000
      8814      2938  TIP3      H2            -25.1175096295       19.4502728873      -17.0881530134  W2        2938            0.0000000000
      8815      2939  TIP3      OH2           -24.6480896295       21.4264228873      -12.3181630134  W2        2939            0.0000000000
      8816      2939  TIP3      H1            -24.3683796295       20.5194628873      -12.1939930134  W2        2939            0.0000000000
      8817      2939  TIP3      H2            -23.8889196295       21.8605728873      -12.7072430134  W2        2939            0.0000000000
      8818      2940  TIP3      OH2           -24.0362596295       22.0081628873       -6.8822730134  W2        2940            0.0000000000
      8819      2940  TIP3      H1            -23.1034596295       22.2201528873       -6.9166730134  W2        2940            0.0000000000
      8820      2940  TIP3      H2            -24.2715096295       22.1093728873       -5.9599730134  W2        2940            0.0000000000
      8821      2941  TIP3      OH2           -24.0070696295       22.7446928873       -4.1063330134  W2        2941            0.0000000000
      8822      2941  TIP3      H1            -24.8499396295       23.0127328873       -3.7403530134  W2        2941            0.0000000000
      8823      2941  TIP3      H2            -23.5646396295       23.5668828873       -4.3172230134  W2        2941            0.0000000000
      8824      2942  TIP3      OH2           -39.7258496295       21.1925628873       -0.6294130134  W2        2942            0.0000000000
      8825      2942  TIP3      H1            -38.8063596295       21.0703928873       -0.3931030134  W2        2942            0.0000000000
      8826      2942  TIP3      H2            -40.1753996295       20.4425328873       -0.2400630134  W2        2942            0.0000000000
      8827      2943  TIP3      OH2           -21.7239096295       16.7247128873        1.2471669866  W2        2943            0.0000000000
      8828      2943  TIP3      H1            -21.3742096295       16.0710628873        0.6416369866  W2        2943            0.0000000000
      8829      2943  TIP3      H2            -21.5769596295       17.5621228873        0.8074269866  W2        2943            0.0000000000
      8830      2944  TIP3      OH2           -24.0346096295       18.6893528873      -12.2699630134  W2        2944            0.0000000000
      8831      2944  TIP3      H1            -23.8521096295       18.2405028873      -11.4444630134  W2        2944            0.0000000000
      8832      2944  TIP3      H2            -24.6343196295       18.1047928873      -12.7335030134  W2        2944            0.0000000000
      8833      2945  TIP3      OH2           -38.5045996295       19.5047228873       -7.7381230134  W2        2945            0.0000000000
      8834      2945  TIP3      H1            -38.0594396295       18.7129728873       -7.4361530134  W2        2945            0.0000000000
      8835      2945  TIP3      H2            -38.0382996295       20.2212428873       -7.3075630134  W2        2945            0.0000000000
      8836      2946  TIP3      OH2           -40.2005696295       22.5040228873       -6.6691030134  W2        2946            0.0000000000
      8837      2946  TIP3      H1            -39.7085896295       22.2830728873       -7.4599030134  W2        2946            0.0000000000
      8838      2946  TIP3      H2            -39.8384796295       23.3443628873       -6.3881530134  W2        2946            0.0000000000
      8839      2947  TIP3      OH2           -22.2041896295       18.8341728873       -0.4037030134  W2        2947            0.0000000000
      8840      2947  TIP3      H1            -23.1216196295       19.1048828873       -0.4393530134  W2        2947            0.0000000000
      8841      2947  TIP3      H2            -22.0812496295       18.2990128873       -1.1877330134  W2        2947            0.0000000000
      8842      2948  TIP3      OH2           -22.1679896295       18.7571628873      -15.7419330134  W2        2948            0.0000000000
      8843      2948  TIP3      H1            -21.7557296295       18.0357328873      -16.2171330134  W2        2948            0.0000000000
      8844      2948  TIP3      H2            -21.4863396295       19.4266228873      -15.6835030134  W2        2948            0.0000000000
      8845      2949  TIP3      OH2           -39.8869196295       18.7619328873      -12.6148630134  W2        2949            0.0000000000
      8846      2949  TIP3      H1            -40.8120796295       18.9705928873      -12.7443130134  W2        2949            0.0000000000
      8847      2949  TIP3      H2            -39.4329296295       19.2460128873      -13.3046330134  W2        2949            0.0000000000
      8848      2950  TIP3      OH2           -25.1161996295       33.7461028873      -10.6691230134  W2        2950            0.0000000000
      8849      2950  TIP3      H1            -24.4639096295       33.3983128873      -11.2772130134  W2        2950            0.0000000000
      8850      2950  TIP3      H2            -24.6058196295       34.2344228873      -10.0231530134  W2        2950            0.0000000000
      8851      2951  TIP3      OH2           -39.9233796295       17.4998328873       -4.2706130134  W2        2951            0.0000000000
      8852      2951  TIP3      H1            -40.5883296295       17.2538628873       -3.6275230134  W2        2951            0.0000000000
      8853      2951  TIP3      H2            -40.3662496295       18.1218728873       -4.8478130134  W2        2951            0.0000000000
      8854      2952  TIP3      OH2           -37.7314496295       30.6752428873       -0.1260330134  W2        2952            0.0000000000
      8855      2952  TIP3      H1            -38.5521996295       30.8498928873       -0.5865630134  W2        2952            0.0000000000
      8856      2952  TIP3      H2            -37.9836696295       30.6017128873        0.7944069866  W2        2952            0.0000000000
      8857      2953  TIP3      OH2           -34.7771596295       31.6493628873       -3.8676330134  W2        2953            0.0000000000
      8858      2953  TIP3      H1            -35.2020496295       32.4592128873       -4.1501730134  W2        2953            0.0000000000
      8859      2953  TIP3      H2            -33.8728796295       31.7347728873       -4.1696530134  W2        2953            0.0000000000
      8860      2954  TIP3      OH2           -30.4660196295       33.0483628873       -0.9082630134  W2        2954            0.0000000000
      8861      2954  TIP3      H1            -30.2812696295       32.7149728873       -0.0302330134  W2        2954            0.0000000000
      8862      2954  TIP3      H2            -29.6195696295       33.3582228873       -1.2303430134  W2        2954            0.0000000000
      8863      2955  TIP3      OH2           -28.1209796295       34.3342528873       -1.6641230134  W2        2955            0.0000000000
      8864      2955  TIP3      H1            -27.4440896295       33.7014828873       -1.9042030134  W2        2955            0.0000000000
      8865      2955  TIP3      H2            -27.7990996295       34.7353028873       -0.8567930134  W2        2955            0.0000000000
      8866      2956  TIP3      OH2           -23.2035996295       16.9238028873       -2.5846230134  W2        2956            0.0000000000
      8867      2956  TIP3      H1            -24.0162496295       17.2488328873       -2.9721530134  W2        2956            0.0000000000
      8868      2956  TIP3      H2            -22.9707496295       16.1636528873       -3.1177130134  W2        2956            0.0000000000
      8869      2957  TIP3      OH2           -37.3754896295       34.9057528873       -3.8201030134  W2        2957            0.0000000000
      8870      2957  TIP3      H1            -38.0958496295       35.3458528873       -4.2713330134  W2        2957            0.0000000000
      8871      2957  TIP3      H2            -37.7410896295       34.6552228873       -2.9717030134  W2        2957            0.0000000000
      8872      2958  TIP3      OH2           -34.9082296295       34.5061428873       -4.7903830134  W2        2958            0.0000000000
      8873      2958  TIP3      H1            -35.7730096295       34.5779928873       -4.3863730134  W2        2958            0.0000000000
      8874      2958  TIP3      H2            -34.9633296295       35.0528728873       -5.5741330134  W2        2958            0.0000000000
      8875      2959  TIP3      OH2           -30.1976696295       34.3940328873       -5.6147830134  W2        2959            0.0000000000
      8876      2959  TIP3      H1            -30.6542696295       34.9230028873       -6.2689430134  W2        2959            0.0000000000
      8877      2959  TIP3      H2            -30.0348696295       34.9971728873       -4.8895530134  W2        2959            0.0000000000
      8878      2960  TIP3      OH2           -27.8700396295       33.2719928873       -4.6697530134  W2        2960            0.0000000000
      8879      2960  TIP3      H1            -28.7746696295       33.4370128873       -4.9355430134  W2        2960            0.0000000000
      8880      2960  TIP3      H2            -27.4411796295       34.1252128873       -4.7354130134  W2        2960            0.0000000000
      8881      2961  TIP3      OH2           -25.2658496295       34.8419028873       -4.3749730134  W2        2961            0.0000000000
      8882      2961  TIP3      H1            -25.4476496295       35.7577928873       -4.5854830134  W2        2961            0.0000000000
      8883      2961  TIP3      H2            -25.0890696295       34.4316128873       -5.2215130134  W2        2961            0.0000000000
      8884      2962  TIP3      OH2           -37.9606796295       33.5290028873       -6.9099230134  W2        2962            0.0000000000
      8885      2962  TIP3      H1            -37.9790796295       33.1035128873       -6.0526930134  W2        2962            0.0000000000
      8886      2962  TIP3      H2            -37.1558896295       33.2105028873       -7.3187030134  W2        2962            0.0000000000
      8887      2963  TIP3      OH2           -35.8193696295       32.2388728873       -8.2549330134  W2        2963            0.0000000000
      8888      2963  TIP3      H1            -36.0382996295       31.3226128873       -8.0853330134  W2        2963            0.0000000000
      8889      2963  TIP3      H2            -34.9951496295       32.3789128873       -7.7887930134  W2        2963            0.0000000000
      8890      2964  TIP3      OH2           -33.2821196295       32.7088028873       -7.4061330134  W2        2964            0.0000000000
      8891      2964  TIP3      H1            -33.0695496295       31.8207028873       -7.6930430134  W2        2964            0.0000000000
      8892      2964  TIP3      H2            -33.2176096295       32.6745728873       -6.4517330134  W2        2964            0.0000000000
      8893      2965  TIP3      OH2           -29.7737496295       18.3728628873       -8.2618030134  W2        2965            0.0000000000
      8894      2965  TIP3      H1            -30.4480696295       17.7434228873       -8.0062230134  W2        2965            0.0000000000
      8895      2965  TIP3      H2            -29.2098296295       17.8887528873       -8.8650130134  W2        2965            0.0000000000
      8896      2966  TIP3      OH2           -24.6310296295       16.4802628873       -8.1490930134  W2        2966            0.0000000000
      8897      2966  TIP3      H1            -24.0272696295       17.0278028873       -8.6509930134  W2        2966            0.0000000000
      8898      2966  TIP3      H2            -25.5008296295       16.7993028873       -8.3896830134  W2        2966            0.0000000000
      8899      2967  TIP3      OH2           -22.9039896295       17.6191328873       -9.8160030134  W2        2967            0.0000000000
      8900      2967  TIP3      H1            -22.2922396295       17.1047028873      -10.3426430134  W2        2967            0.0000000000
      8901      2967  TIP3      H2            -22.5216496295       18.4963428873       -9.7925630134  W2        2967            0.0000000000
      8902      2968  TIP3      OH2           -37.4469996295       17.0068928873      -10.4398130134  W2        2968            0.0000000000
      8903      2968  TIP3      H1            -38.2240196295       16.7723828873      -10.9472230134  W2        2968            0.0000000000
      8904      2968  TIP3      H2            -36.9166396295       16.2101028873      -10.4310130134  W2        2968            0.0000000000
      8905      2969  TIP3      OH2           -38.6106596295       16.8047028873      -14.6362030134  W2        2969            0.0000000000
      8906      2969  TIP3      H1            -38.1715896295       17.4157528873      -15.2278530134  W2        2969            0.0000000000
      8907      2969  TIP3      H2            -39.2444196295       17.3431128873      -14.1622030134  W2        2969            0.0000000000
      8908      2970  TIP3      OH2           -32.8677396295       16.9336028873      -10.6265030134  W2        2970            0.0000000000
      8909      2970  TIP3      H1            -31.9933996295       17.3220328873      -10.6560730134  W2        2970            0.0000000000
      8910      2970  TIP3      H2            -33.0036596295       16.7183828873       -9.7037830134  W2        2970            0.0000000000
      8911      2971  TIP3      OH2           -27.3108996295       16.9635828873       -8.9773330134  W2        2971            0.0000000000
      8912      2971  TIP3      H1            -27.2347396295       17.0587428873       -9.9267330134  W2        2971            0.0000000000
      8913      2971  TIP3      H2            -27.5859796295       16.0558728873       -8.8484230134  W2        2971            0.0000000000
      8914      2972  TIP3      OH2           -25.9576396295       16.9893628873      -13.2848330134  W2        2972            0.0000000000
      8915      2972  TIP3      H1            -26.6605296295       17.6042828873      -13.4946930134  W2        2972            0.0000000000
      8916      2972  TIP3      H2            -26.4024996295       16.1520328873      -13.1537430134  W2        2972            0.0000000000
      8917      2973  TIP3      OH2           -38.7097096295       32.7529228873      -13.7386930134  W2        2973            0.0000000000
      8918      2973  TIP3      H1            -39.3947196295       32.7148128873      -14.4061830134  W2        2973            0.0000000000
      8919      2973  TIP3      H2            -38.7059896295       33.6656828873      -13.4504830134  W2        2973            0.0000000000
      8920      2974  TIP3      OH2           -36.7497496295       18.7208528873      -16.1937930134  W2        2974            0.0000000000
      8921      2974  TIP3      H1            -36.2584096295       18.0910928873      -16.7212430134  W2        2974            0.0000000000
      8922      2974  TIP3      H2            -36.1261196295       19.0167928873      -15.5306730134  W2        2974            0.0000000000
      8923      2975  TIP3      OH2           -31.7237396295       19.0140028873      -13.7367430134  W2        2975            0.0000000000
      8924      2975  TIP3      H1            -31.5456096295       18.3673228873      -13.0538830134  W2        2975            0.0000000000
      8925      2975  TIP3      H2            -31.7771196295       19.8477728873      -13.2696330134  W2        2975            0.0000000000
      8926      2976  TIP3      OH2           -29.8453596295       33.9624128873      -15.3410730134  W2        2976            0.0000000000
      8927      2976  TIP3      H1            -28.9793396295       34.3291528873      -15.5192530134  W2        2976            0.0000000000
      8928      2976  TIP3      H2            -30.0920796295       33.5232128873      -16.1549930134  W2        2976            0.0000000000
      8929      2977  TIP3      OH2           -23.1363996295       33.5254428873      -12.6619630134  W2        2977            0.0000000000
      8930      2977  TIP3      H1            -23.3306896295       32.7776528873      -13.2270030134  W2        2977            0.0000000000
      8931      2977  TIP3      H2            -23.1753896295       34.2834528873      -13.2451730134  W2        2977            0.0000000000
      8932      2978  TIP3      OH2           -37.4891996295       17.5210828873       -0.9221930134  W2        2978            0.0000000000
      8933      2978  TIP3      H1            -37.8553796295       16.7553428873       -0.4797230134  W2        2978            0.0000000000
      8934      2978  TIP3      H2            -36.5763496295       17.5501028873       -0.6356830134  W2        2978            0.0000000000
      8935      2979  TIP3      OH2           -35.5161196295       16.8715228873        0.6135169866  W2        2979            0.0000000000
      8936      2979  TIP3      H1            -34.6177596295       16.5975428873        0.4288569866  W2        2979            0.0000000000
      8937      2979  TIP3      H2            -35.9028096295       16.1291228873        1.0777769866  W2        2979            0.0000000000
      8938      2980  TIP3      OH2           -36.8915896295       33.6730028873      -16.7134830134  W2        2980            0.0000000000
      8939      2980  TIP3      H1            -37.1591296295       33.9592928873      -15.8401730134  W2        2980            0.0000000000
      8940      2980  TIP3      H2            -36.1203296295       33.1269228873      -16.5612330134  W2        2980            0.0000000000
      8941      2981  TIP3      OH2           -27.0948896295       16.2040528873        0.7957969866  W2        2981            0.0000000000
      8942      2981  TIP3      H1            -27.0181696295       15.7781228873        1.6495669866  W2        2981            0.0000000000
      8943      2981  TIP3      H2            -26.2012296295       16.2175228873        0.4531469866  W2        2981            0.0000000000
      8944      2982  TIP3      OH2           -23.9187796295       32.2766828873       -0.5117830134  W2        2982            0.0000000000
      8945      2982  TIP3      H1            -24.7005896295       32.0904828873       -1.0317230134  W2        2982            0.0000000000
      8946      2982  TIP3      H2            -23.9907896295       33.2061128873       -0.2945330134  W2        2982            0.0000000000
      8947      2983  TIP3      OH2            -9.5127396295       26.1631228873      -10.4810630134  W2        2983            0.0000000000
      8948      2983  TIP3      H1             -9.4236296295       27.1069428873      -10.6133530134  W2        2983            0.0000000000
      8949      2983  TIP3      H2            -10.1509796295       25.8877628873      -11.1391230134  W2        2983            0.0000000000
      8950      2984  TIP3      OH2           -10.5796096295       25.4181928873       -7.0622430134  W2        2984            0.0000000000
      8951      2984  TIP3      H1            -10.6178596295       24.7718228873       -6.3572830134  W2        2984            0.0000000000
      8952      2984  TIP3      H2            -10.9019596295       24.9516328873       -7.8333730134  W2        2984            0.0000000000
      8953      2985  TIP3      OH2           -18.2111096295       25.0324028873       -5.4692530134  W2        2985            0.0000000000
      8954      2985  TIP3      H1            -18.1698996295       24.4067328873       -4.7460130134  W2        2985            0.0000000000
      8955      2985  TIP3      H2            -17.5083396295       25.6562628873       -5.2872130134  W2        2985            0.0000000000
      8956      2986  TIP3      OH2            -6.8735896295       28.3572328873       -8.7607330134  W2        2986            0.0000000000
      8957      2986  TIP3      H1             -7.3143196295       27.6368328873       -8.3101730134  W2        2986            0.0000000000
      8958      2986  TIP3      H2             -6.8866196295       29.0779528873       -8.1309630134  W2        2986            0.0000000000
      8959      2987  TIP3      OH2           -17.2877996295       29.4822928873       -6.9343430134  W2        2987            0.0000000000
      8960      2987  TIP3      H1            -17.6572796295       28.6803428873       -7.3039130134  W2        2987            0.0000000000
      8961      2987  TIP3      H2            -16.3466896295       29.3137828873       -6.8880030134  W2        2987            0.0000000000
      8962      2988  TIP3      OH2           -20.6777496295       23.1425528873      -11.5414630134  W2        2988            0.0000000000
      8963      2988  TIP3      H1            -21.1254096295       23.9884228873      -11.5598130134  W2        2988            0.0000000000
      8964      2988  TIP3      H2            -21.2386296295       22.5629728873      -12.0569530134  W2        2988            0.0000000000
      8965      2989  TIP3      OH2           -19.9671396295       25.3045128873       -9.4156630134  W2        2989            0.0000000000
      8966      2989  TIP3      H1            -19.7537896295       24.5346728873       -8.8883630134  W2        2989            0.0000000000
      8967      2989  TIP3      H2            -19.2293796295       25.3941828873      -10.0189030134  W2        2989            0.0000000000
      8968      2990  TIP3      OH2            -9.7620396295       33.4614028873       -8.5486930134  W2        2990            0.0000000000
      8969      2990  TIP3      H1             -9.1423996295       32.7848728873       -8.8217730134  W2        2990            0.0000000000
      8970      2990  TIP3      H2             -9.9702996295       33.2434828873       -7.6402030134  W2        2990            0.0000000000
      8971      2991  TIP3      OH2           -12.1901696295       27.8503328873       -6.6561430134  W2        2991            0.0000000000
      8972      2991  TIP3      H1            -11.8863796295       27.1644728873       -7.2507330134  W2        2991            0.0000000000
      8973      2991  TIP3      H2            -11.4687696295       27.9692028873       -6.0383430134  W2        2991            0.0000000000
      8974      2992  TIP3      OH2            -3.5271896295       19.4518628873       -5.7955230134  W2        2992            0.0000000000
      8975      2992  TIP3      H1             -3.4779696295       20.0619828873       -5.0596130134  W2        2992            0.0000000000
      8976      2992  TIP3      H2             -3.1016796295       19.9129528873       -6.5184130134  W2        2992            0.0000000000
      8977      2993  TIP3      OH2            -9.0494696295       22.2445728873       -6.3286630134  W2        2993            0.0000000000
      8978      2993  TIP3      H1             -8.9068796295       21.2982728873       -6.3085030134  W2        2993            0.0000000000
      8979      2993  TIP3      H2             -9.1555696295       22.4515528873       -7.2571730134  W2        2993            0.0000000000
      8980      2994  TIP3      OH2           -15.8946396295       20.3462128873       -9.0561830134  W2        2994            0.0000000000
      8981      2994  TIP3      H1            -15.8515296295       21.2060628873       -9.4745530134  W2        2994            0.0000000000
      8982      2994  TIP3      H2            -16.3522296295       19.7936828873       -9.6898630134  W2        2994            0.0000000000
      8983      2995  TIP3      OH2            -8.1723696295       20.4767728873      -10.6553530134  W2        2995            0.0000000000
      8984      2995  TIP3      H1             -7.5259396295       20.1480928873      -10.0305930134  W2        2995            0.0000000000
      8985      2995  TIP3      H2             -7.6624296295       20.9946728873      -11.2782130134  W2        2995            0.0000000000
      8986      2996  TIP3      OH2           -19.2744896295       22.7427928873       -8.2940430134  W2        2996            0.0000000000
      8987      2996  TIP3      H1            -18.6208296295       22.1929628873       -7.8620330134  W2        2996            0.0000000000
      8988      2996  TIP3      H2            -19.2505596295       22.4686928873       -9.2108430134  W2        2996            0.0000000000
      8989      2997  TIP3      OH2           -14.1180396295       24.2929228873       -9.0788930134  W2        2997            0.0000000000
      8990      2997  TIP3      H1            -13.5019396295       23.7664628873       -8.5694930134  W2        2997            0.0000000000
      8991      2997  TIP3      H2            -14.7041596295       23.6527928873       -9.4825330134  W2        2997            0.0000000000
      8992      2998  TIP3      OH2            -3.1357296295       20.9297828873       -3.5595430134  W2        2998            0.0000000000
      8993      2998  TIP3      H1             -3.8242696295       21.5878528873       -3.6548830134  W2        2998            0.0000000000
      8994      2998  TIP3      H2             -3.1202696295       20.7325728873       -2.6230030134  W2        2998            0.0000000000
      8995      2999  TIP3      OH2           -17.0844496295       19.2640528873       -4.9821030134  W2        2999            0.0000000000
      8996      2999  TIP3      H1            -17.3032796295       19.7941128873       -5.7485030134  W2        2999            0.0000000000
      8997      2999  TIP3      H2            -17.7523596295       19.4906028873       -4.3349630134  W2        2999            0.0000000000
      8998      3000  TIP3      OH2            -9.7154696295       28.7641628873      -11.4381930134  W2        3000            0.0000000000
      8999      3000  TIP3      H1            -10.0109596295       28.4413928873      -12.2895030134  W2        3000            0.0000000000
      9000      3000  TIP3      H2            -10.0396896295       29.6638328873      -11.3969330134  W2        3000            0.0000000000
      9001      3001  TIP3      OH2           -14.5153096295       26.9396228873       -4.6947330134  W2        3001            0.0000000000
      9002      3001  TIP3      H1            -15.2553996295       27.5377728873       -4.5912130134  W2        3001            0.0000000000
      9003      3001  TIP3      H2            -13.8013596295       27.4935828873       -5.0103730134  W2        3001            0.0000000000
      9004      3002  TIP3      OH2            -6.4085296295       19.7677028873       -8.6747630134  W2        3002            0.0000000000
      9005      3002  TIP3      H1             -6.6237296295       19.0020428873       -8.1421630134  W2        3002            0.0000000000
      9006      3002  TIP3      H2             -5.7527896295       20.2401628873       -8.1619130134  W2        3002            0.0000000000
      9007      3003  TIP3      OH2           -17.4907196295       21.1562328873       -7.0298830134  W2        3003            0.0000000000
      9008      3003  TIP3      H1            -16.8770896295       21.7889928873       -6.6566430134  W2        3003            0.0000000000
      9009      3003  TIP3      H2            -16.9786496295       20.6837328873       -7.6861930134  W2        3003            0.0000000000
      9010      3004  TIP3      OH2           -16.1078796295       28.9039228873       -3.9075830134  W2        3004            0.0000000000
      9011      3004  TIP3      H1            -16.1131196295       29.7832728873       -4.2856530134  W2        3004            0.0000000000
      9012      3004  TIP3      H2            -16.9614696295       28.8203328873       -3.4825930134  W2        3004            0.0000000000
      9013      3005  TIP3      OH2           -19.9867896295       28.5747128873      -13.1256530134  W2        3005            0.0000000000
      9014      3005  TIP3      H1            -20.2586996295       28.8038128873      -14.0143630134  W2        3005            0.0000000000
      9015      3005  TIP3      H2            -19.9412196295       29.4125928873      -12.6651230134  W2        3005            0.0000000000
      9016      3006  TIP3      OH2            -6.3618196295       30.1963028873       -6.4128030134  W2        3006            0.0000000000
      9017      3006  TIP3      H1             -7.3034496295       30.2546928873       -6.2511130134  W2        3006            0.0000000000
      9018      3006  TIP3      H2             -6.0852096295       31.1023528873       -6.5498330134  W2        3006            0.0000000000
      9019      3007  TIP3      OH2            -6.0611196295       18.4828328873       -4.9954130134  W2        3007            0.0000000000
      9020      3007  TIP3      H1             -6.7971996295       19.0935428873       -5.0332830134  W2        3007            0.0000000000
      9021      3007  TIP3      H2             -5.3777196295       18.8977328873       -5.5217730134  W2        3007            0.0000000000
      9022      3008  TIP3      OH2           -13.0579796295       16.5695628873       -7.5296130134  W2        3008            0.0000000000
      9023      3008  TIP3      H1            -13.1755596295       15.6211628873       -7.5837830134  W2        3008            0.0000000000
      9024      3008  TIP3      H2            -13.9129696295       16.9021728873       -7.2565030134  W2        3008            0.0000000000
      9025      3009  TIP3      OH2            -8.1096996295       31.9776528873       -9.7876430134  W2        3009            0.0000000000
      9026      3009  TIP3      H1             -7.6844696295       31.2704428873      -10.2726830134  W2        3009            0.0000000000
      9027      3009  TIP3      H2             -7.7926996295       32.7789228873      -10.2044230134  W2        3009            0.0000000000
      9028      3010  TIP3      OH2            -6.9500496295       29.8785028873      -11.2789830134  W2        3010            0.0000000000
      9029      3010  TIP3      H1             -7.2075696295       29.1885128873      -11.8903930134  W2        3010            0.0000000000
      9030      3010  TIP3      H2             -6.8789696295       29.4356228873      -10.4333930134  W2        3010            0.0000000000
      9031      3011  TIP3      OH2            -5.2640296295       28.4451728873       -2.8016330134  W2        3011            0.0000000000
      9032      3011  TIP3      H1             -5.1243996295       27.8534228873       -3.5409330134  W2        3011            0.0000000000
      9033      3011  TIP3      H2             -5.0967496295       29.3177628873       -3.1577530134  W2        3011            0.0000000000
      9034      3012  TIP3      OH2           -10.7914896295       25.4071228873      -13.0290330134  W2        3012            0.0000000000
      9035      3012  TIP3      H1            -11.5029396295       25.9420928873      -13.3809830134  W2        3012            0.0000000000
      9036      3012  TIP3      H2            -10.1005296295       25.4623328873      -13.6891430134  W2        3012            0.0000000000
      9037      3013  TIP3      OH2           -10.7375696295       23.8645528873      -15.9905330134  W2        3013            0.0000000000
      9038      3013  TIP3      H1            -10.0365796295       23.8872428873      -15.3391330134  W2        3013            0.0000000000
      9039      3013  TIP3      H2            -10.4352796295       23.2365228873      -16.6466030134  W2        3013            0.0000000000
      9040      3014  TIP3      OH2            -3.4220996295       24.7849728873       -4.7355930134  W2        3014            0.0000000000
      9041      3014  TIP3      H1             -4.0746896295       25.4795328873       -4.6465030134  W2        3014            0.0000000000
      9042      3014  TIP3      H2             -2.9570696295       24.9950628873       -5.5454330134  W2        3014            0.0000000000
      9043      3015  TIP3      OH2            -7.3857196295       25.6164528873      -12.0774430134  W2        3015            0.0000000000
      9044      3015  TIP3      H1             -8.1176196295       25.8448228873      -11.5043830134  W2        3015            0.0000000000
      9045      3015  TIP3      H2             -6.9384996295       24.9027228873      -11.6226930134  W2        3015            0.0000000000
      9046      3016  TIP3      OH2            -7.4883696295       23.7907128873       -3.0097430134  W2        3016            0.0000000000
      9047      3016  TIP3      H1             -7.4084596295       24.5541528873       -2.4378930134  W2        3016            0.0000000000
      9048      3016  TIP3      H2             -8.0895996295       24.0699528873       -3.7002330134  W2        3016            0.0000000000
      9049      3017  TIP3      OH2           -15.7403496295       26.2470728873      -10.1949430134  W2        3017            0.0000000000
      9050      3017  TIP3      H1            -16.0708296295       25.8764128873      -11.0132430134  W2        3017            0.0000000000
      9051      3017  TIP3      H2            -15.1519396295       25.5764728873       -9.8481130134  W2        3017            0.0000000000
      9052      3018  TIP3      OH2           -14.3735996295       29.6751328873       -7.5137230134  W2        3018            0.0000000000
      9053      3018  TIP3      H1            -14.4684696295       29.0964428873       -8.2702630134  W2        3018            0.0000000000
      9054      3018  TIP3      H2            -13.6442396295       29.3037028873       -7.0174430134  W2        3018            0.0000000000
      9055      3019  TIP3      OH2           -15.3737996295       25.0156328873       -6.5614430134  W2        3019            0.0000000000
      9056      3019  TIP3      H1            -14.8085496295       25.1370528873       -7.3243230134  W2        3019            0.0000000000
      9057      3019  TIP3      H2            -15.0549096295       25.6531328873       -5.9225930134  W2        3019            0.0000000000
      9058      3020  TIP3      OH2            -9.0645796295       30.5188228873       -5.8273930134  W2        3020            0.0000000000
      9059      3020  TIP3      H1             -9.3049196295       31.1811328873       -5.1794730134  W2        3020            0.0000000000
      9060      3020  TIP3      H2             -9.2627596295       29.6843428873       -5.4024330134  W2        3020            0.0000000000
      9061      3021  TIP3      OH2           -14.4937296295       29.4149028873       -1.8442530134  W2        3021            0.0000000000
      9062      3021  TIP3      H1            -14.8049796295       30.1972228873       -1.3889330134  W2        3021            0.0000000000
      9063      3021  TIP3      H2            -15.1437096295       29.2618128873       -2.5300530134  W2        3021            0.0000000000
      9064      3022  TIP3      OH2            -8.5147696295       24.7787428873      -14.3923230134  W2        3022            0.0000000000
      9065      3022  TIP3      H1             -7.9352196295       24.9287728873      -13.6454330134  W2        3022            0.0000000000
      9066      3022  TIP3      H2             -8.1007696295       25.2494828873      -15.1156830134  W2        3022            0.0000000000
      9067      3023  TIP3      OH2           -17.5737396295       25.6130128873       -2.6156830134  W2        3023            0.0000000000
      9068      3023  TIP3      H1            -17.5034196295       26.2636928873       -1.9171830134  W2        3023            0.0000000000
      9069      3023  TIP3      H2            -18.4645196295       25.7157628873       -2.9505930134  W2        3023            0.0000000000
      9070      3024  TIP3      OH2           -10.7882796295       31.5155928873      -10.9570130134  W2        3024            0.0000000000
      9071      3024  TIP3      H1            -10.3145196295       31.8112228873      -10.1795930134  W2        3024            0.0000000000
      9072      3024  TIP3      H2            -11.3513496295       32.2537528873      -11.1900530134  W2        3024            0.0000000000
      9073      3025  TIP3      OH2           -16.2541396295       31.4864028873       -1.0808730134  W2        3025            0.0000000000
      9074      3025  TIP3      H1            -16.2466096295       31.3503728873       -2.0283230134  W2        3025            0.0000000000
      9075      3025  TIP3      H2            -17.1700996295       31.3692128873       -0.8288730134  W2        3025            0.0000000000
      9076      3026  TIP3      OH2            -4.8159296295       16.5287828873      -14.5793530134  W2        3026            0.0000000000
      9077      3026  TIP3      H1             -5.7158596295       16.6676828873      -14.2842930134  W2        3026            0.0000000000
      9078      3026  TIP3      H2             -4.5640896295       17.3602428873      -14.9811830134  W2        3026            0.0000000000
      9079      3027  TIP3      OH2           -16.7500796295       25.3165028873      -12.6056630134  W2        3027            0.0000000000
      9080      3027  TIP3      H1            -17.0419496295       26.0846728873      -13.0965330134  W2        3027            0.0000000000
      9081      3027  TIP3      H2            -17.4245596295       24.6571228873      -12.7685230134  W2        3027            0.0000000000
      9082      3028  TIP3      OH2            -3.6267896295       30.8950228873      -16.2029630134  W2        3028            0.0000000000
      9083      3028  TIP3      H1             -3.5534396295       31.8340428873      -16.0324330134  W2        3028            0.0000000000
      9084      3028  TIP3      H2             -2.7212796295       30.5898828873      -16.2592330134  W2        3028            0.0000000000
      9085      3029  TIP3      OH2           -20.6570696295       27.6794228873       -3.7906830134  W2        3029            0.0000000000
      9086      3029  TIP3      H1            -21.1582296295       27.6513628873       -4.6057130134  W2        3029            0.0000000000
      9087      3029  TIP3      H2            -20.6516996295       26.7737428873       -3.4809530134  W2        3029            0.0000000000
      9088      3030  TIP3      OH2           -20.9067996295       30.4598028873       -6.9066630134  W2        3030            0.0000000000
      9089      3030  TIP3      H1            -19.9607396295       30.3155028873       -6.9257130134  W2        3030            0.0000000000
      9090      3030  TIP3      H2            -21.0191696295       31.2440828873       -6.3695430134  W2        3030            0.0000000000
      9091      3031  TIP3      OH2            -2.7089496295       31.1257728873       -1.2242930134  W2        3031            0.0000000000
      9092      3031  TIP3      H1             -2.7582696295       30.1705828873       -1.2615330134  W2        3031            0.0000000000
      9093      3031  TIP3      H2             -3.5357196295       31.3933028873       -0.8229130134  W2        3031            0.0000000000
      9094      3032  TIP3      OH2           -11.7305496295       30.6996928873       -2.3481530134  W2        3032            0.0000000000
      9095      3032  TIP3      H1            -11.6430896295       31.5261528873       -1.8732430134  W2        3032            0.0000000000
      9096      3032  TIP3      H2            -12.5940396295       30.3700728873       -2.0992230134  W2        3032            0.0000000000
      9097      3033  TIP3      OH2           -11.3159696295       34.4720628873      -12.5420930134  W2        3033            0.0000000000
      9098      3033  TIP3      H1            -11.3913696295       34.3507828873      -13.4885730134  W2        3033            0.0000000000
      9099      3033  TIP3      H2            -11.2830996295       35.4213328873      -12.4236330134  W2        3033            0.0000000000
      9100      3034  TIP3      OH2           -17.6625896295       33.2607628873      -10.7611930134  W2        3034            0.0000000000
      9101      3034  TIP3      H1            -17.5105496295       32.9128028873       -9.8825430134  W2        3034            0.0000000000
      9102      3034  TIP3      H2            -18.5135496295       32.9044928873      -11.0164730134  W2        3034            0.0000000000
      9103      3035  TIP3      OH2            -8.2143696295       33.6260828873      -15.5398530134  W2        3035            0.0000000000
      9104      3035  TIP3      H1             -7.8395296295       32.8816928873      -16.0105930134  W2        3035            0.0000000000
      9105      3035  TIP3      H2             -8.2099996295       33.3561428873      -14.6215230134  W2        3035            0.0000000000
      9106      3036  TIP3      OH2            -8.5455596295       33.5517928873      -12.7906330134  W2        3036            0.0000000000
      9107      3036  TIP3      H1             -9.4805796295       33.6519828873      -12.6119330134  W2        3036            0.0000000000
      9108      3036  TIP3      H2             -8.2653696295       32.8423928873      -12.2123130134  W2        3036            0.0000000000
      9109      3037  TIP3      OH2            -5.5569696295       22.6190228873       -0.7440730134  W2        3037            0.0000000000
      9110      3037  TIP3      H1             -5.9642896295       23.0995828873       -1.4647430134  W2        3037            0.0000000000
      9111      3037  TIP3      H2             -5.5163996295       21.7136228873       -1.0519930134  W2        3037            0.0000000000
      9112      3038  TIP3      OH2           -18.4080196295       29.0029628873       -2.7474030134  W2        3038            0.0000000000
      9113      3038  TIP3      H1            -18.1918896295       28.6415228873       -1.8878230134  W2        3038            0.0000000000
      9114      3038  TIP3      H2            -19.2635496295       28.6283428873       -2.9570530134  W2        3038            0.0000000000
      9115      3039  TIP3      OH2           -15.7892196295       17.4730128873       -6.7519830134  W2        3039            0.0000000000
      9116      3039  TIP3      H1            -16.6508496295       17.3858328873       -7.1596930134  W2        3039            0.0000000000
      9117      3039  TIP3      H2            -15.8116496295       18.3290228873       -6.3242230134  W2        3039            0.0000000000
      9118      3040  TIP3      OH2           -11.1264396295       17.1950528873       -3.3772830134  W2        3040            0.0000000000
      9119      3040  TIP3      H1            -10.7061296295       16.7797628873       -2.6242230134  W2        3040            0.0000000000
      9120      3040  TIP3      H2            -12.0594796295       17.0163828873       -3.2600830134  W2        3040            0.0000000000
      9121      3041  TIP3      OH2            -7.7999496295       20.9505728873       -2.5238330134  W2        3041            0.0000000000
      9122      3041  TIP3      H1             -8.3139996295       20.8247928873       -1.7262330134  W2        3041            0.0000000000
      9123      3041  TIP3      H2             -7.9554796295       21.8628828873       -2.7682130134  W2        3041            0.0000000000
      9124      3042  TIP3      OH2            -7.0374596295       25.8115728873      -16.7625330134  W2        3042            0.0000000000
      9125      3042  TIP3      H1             -6.9953796295       25.5889628873      -17.6925330134  W2        3042            0.0000000000
      9126      3042  TIP3      H2             -6.1882496295       26.2102828873      -16.5725430134  W2        3042            0.0000000000
      9127      3043  TIP3      OH2           -11.4647096295       19.6873928873      -16.0922030134  W2        3043            0.0000000000
      9128      3043  TIP3      H1            -11.7182296295       19.7065528873      -15.1693930134  W2        3043            0.0000000000
      9129      3043  TIP3      H2            -11.7214996295       18.8159328873      -16.3935830134  W2        3043            0.0000000000
      9130      3044  TIP3      OH2           -15.6982096295       22.4384628873       -5.6569630134  W2        3044            0.0000000000
      9131      3044  TIP3      H1            -16.3399996295       22.3981928873       -4.9479530134  W2        3044            0.0000000000
      9132      3044  TIP3      H2            -15.6610096295       23.3649328873       -5.8946630134  W2        3044            0.0000000000
      9133      3045  TIP3      OH2           -15.7012996295       22.6594728873      -10.7449630134  W2        3045            0.0000000000
      9134      3045  TIP3      H1            -16.5940096295       22.3190828873      -10.8035830134  W2        3045            0.0000000000
      9135      3045  TIP3      H2            -15.2506396295       22.2825628873      -11.5006430134  W2        3045            0.0000000000
      9136      3046  TIP3      OH2           -10.1657496295       23.0755028873      -11.9278830134  W2        3046            0.0000000000
      9137      3046  TIP3      H1            -10.5747196295       23.8903628873      -12.2194030134  W2        3046            0.0000000000
      9138      3046  TIP3      H2             -9.4451296295       22.9355128873      -12.5421730134  W2        3046            0.0000000000
      9139      3047  TIP3      OH2           -11.0635896295       23.2511428873       -0.4398130134  W2        3047            0.0000000000
      9140      3047  TIP3      H1            -11.6262096295       22.5463028873       -0.1190330134  W2        3047            0.0000000000
      9141      3047  TIP3      H2            -10.2372496295       23.1303328873        0.0279469866  W2        3047            0.0000000000
      9142      3048  TIP3      OH2            -9.1609796295       22.5215428873       -9.1139130134  W2        3048            0.0000000000
      9143      3048  TIP3      H1             -9.3565296295       23.1272228873       -9.8288530134  W2        3048            0.0000000000
      9144      3048  TIP3      H2             -8.9797196295       21.6880628873       -9.5482830134  W2        3048            0.0000000000
      9145      3049  TIP3      OH2           -17.9481596295       22.7588128873       -3.7897630134  W2        3049            0.0000000000
      9146      3049  TIP3      H1            -17.9862196295       23.1589728873       -2.9210530134  W2        3049            0.0000000000
      9147      3049  TIP3      H2            -18.4390496295       21.9420528873       -3.6994730134  W2        3049            0.0000000000
      9148      3050  TIP3      OH2           -14.5824196295       20.1330428873      -16.9911630134  W2        3050            0.0000000000
      9149      3050  TIP3      H1            -15.0133496295       19.6880528873      -16.2614230134  W2        3050            0.0000000000
      9150      3050  TIP3      H2            -15.3005496295       20.5046728873      -17.5034130134  W2        3050            0.0000000000
      9151      3051  TIP3      OH2           -21.3400796295       19.8749928873       -9.9392930134  W2        3051            0.0000000000
      9152      3051  TIP3      H1            -20.7093096295       19.8462028873       -9.2199030134  W2        3051            0.0000000000
      9153      3051  TIP3      H2            -20.8906496295       19.4498628873      -10.6697030134  W2        3051            0.0000000000
      9154      3052  TIP3      OH2           -20.0658696295       20.6211928873      -14.5152530134  W2        3052            0.0000000000
      9155      3052  TIP3      H1            -19.5916996295       21.2121828873      -15.1001630134  W2        3052            0.0000000000
      9156      3052  TIP3      H2            -20.7832296295       21.1514828873      -14.1682430134  W2        3052            0.0000000000
      9157      3053  TIP3      OH2            -9.8970596295       24.1596728873       -4.4426730134  W2        3053            0.0000000000
      9158      3053  TIP3      H1             -9.5735796295       23.5286428873       -5.0856230134  W2        3053            0.0000000000
      9159      3053  TIP3      H2            -10.3371296295       23.6248928873       -3.7819330134  W2        3053            0.0000000000
      9160      3054  TIP3      OH2           -13.1197696295       20.0872228873       -9.6585530134  W2        3054            0.0000000000
      9161      3054  TIP3      H1            -14.0306596295       20.1439028873       -9.3699530134  W2        3054            0.0000000000
      9162      3054  TIP3      H2            -12.6144796295       20.0267728873       -8.8478330134  W2        3054            0.0000000000
      9163      3055  TIP3      OH2           -18.2914296295       21.7158528873      -10.8317930134  W2        3055            0.0000000000
      9164      3055  TIP3      H1            -19.1806296295       21.8154028873      -11.1718330134  W2        3055            0.0000000000
      9165      3055  TIP3      H2            -17.9949396295       20.8741528873      -11.1780030134  W2        3055            0.0000000000
      9166      3056  TIP3      OH2           -14.6382496295       21.7161128873      -13.1753330134  W2        3056            0.0000000000
      9167      3056  TIP3      H1            -13.7066996295       21.8451128873      -12.9970230134  W2        3056            0.0000000000
      9168      3056  TIP3      H2            -14.8532196295       22.3855428873      -13.8248630134  W2        3056            0.0000000000
      9169      3057  TIP3      OH2            -8.7145796295       19.3218528873       -6.3943730134  W2        3057            0.0000000000
      9170      3057  TIP3      H1             -9.3914196295       19.4531628873       -5.7304030134  W2        3057            0.0000000000
      9171      3057  TIP3      H2             -9.2000896295       19.1668028873       -7.2046030134  W2        3057            0.0000000000
      9172      3058  TIP3      OH2           -15.9642296295       22.9103328873      -15.6087230134  W2        3058            0.0000000000
      9173      3058  TIP3      H1            -16.5067196295       22.5307128873      -16.2999630134  W2        3058            0.0000000000
      9174      3058  TIP3      H2            -15.1307396295       23.1048028873      -16.0373130134  W2        3058            0.0000000000
      9175      3059  TIP3      OH2            -5.4270696295       34.9933928873       -0.1176130134  W2        3059            0.0000000000
      9176      3059  TIP3      H1             -5.2271996295       35.4175828873       -0.9520830134  W2        3059            0.0000000000
      9177      3059  TIP3      H2             -4.7716996295       35.3372128873        0.4894269866  W2        3059            0.0000000000
      9178      3060  TIP3      OH2           -17.8290896295       27.4675228873       -0.5095630134  W2        3060            0.0000000000
      9179      3060  TIP3      H1            -17.0968496295       27.7221128873        0.0518869866  W2        3060            0.0000000000
      9180      3060  TIP3      H2            -18.6092196295       27.6720628873        0.0059769866  W2        3060            0.0000000000
      9181      3061  TIP3      OH2           -11.7997996295       22.8745228873       -7.7715930134  W2        3061            0.0000000000
      9182      3061  TIP3      H1            -11.2354596295       22.3281828873       -8.3186330134  W2        3061            0.0000000000
      9183      3061  TIP3      H2            -11.9474596295       22.3527128873       -6.9828330134  W2        3061            0.0000000000
      9184      3062  TIP3      OH2           -16.7978296295       19.0111328873      -11.3531130134  W2        3062            0.0000000000
      9185      3062  TIP3      H1            -17.1148796295       18.1086628873      -11.3885730134  W2        3062            0.0000000000
      9186      3062  TIP3      H2            -16.0164196295       19.0128728873      -11.9059530134  W2        3062            0.0000000000
      9187      3063  TIP3      OH2           -13.1732096295       21.2631328873       -5.3575530134  W2        3063            0.0000000000
      9188      3063  TIP3      H1            -14.0086796295       21.7170828873       -5.2473130134  W2        3063            0.0000000000
      9189      3063  TIP3      H2            -12.6491496295       21.5389828873       -4.6055630134  W2        3063            0.0000000000
      9190      3064  TIP3      OH2           -12.6289496295       27.4759028873      -13.6729130134  W2        3064            0.0000000000
      9191      3064  TIP3      H1            -13.3738496295       26.9684328873      -13.9951230134  W2        3064            0.0000000000
      9192      3064  TIP3      H2            -12.7632296295       27.5247028873      -12.7264330134  W2        3064            0.0000000000
      9193      3065  TIP3      OH2            -5.4790596295       26.6087228873       -4.8861530134  W2        3065            0.0000000000
      9194      3065  TIP3      H1             -4.8371796295       27.0653528873       -5.4299330134  W2        3065            0.0000000000
      9195      3065  TIP3      H2             -6.3093696295       26.7219628873       -5.3487430134  W2        3065            0.0000000000
      9196      3066  TIP3      OH2            -8.7312696295       20.2898928873      -15.4736530134  W2        3066            0.0000000000
      9197      3066  TIP3      H1             -9.6698496295       20.4014528873      -15.6247730134  W2        3066            0.0000000000
      9198      3066  TIP3      H2             -8.4340596295       21.1465828873      -15.1670830134  W2        3066            0.0000000000
      9199      3067  TIP3      OH2           -11.1097396295       27.6602328873       -2.4360030134  W2        3067            0.0000000000
      9200      3067  TIP3      H1            -11.4551296295       27.2784728873       -1.6290430134  W2        3067            0.0000000000
      9201      3067  TIP3      H2            -11.3097296295       28.5935928873       -2.3647130134  W2        3067            0.0000000000
      9202      3068  TIP3      OH2            -8.0129196295       22.1571628873      -13.8129130134  W2        3068            0.0000000000
      9203      3068  TIP3      H1             -7.1210196295       22.0196628873      -13.4937930134  W2        3068            0.0000000000
      9204      3068  TIP3      H2             -7.9565596295       22.9477728873      -14.3495630134  W2        3068            0.0000000000
      9205      3069  TIP3      OH2           -17.5041196295       26.7709028873       -7.9031230134  W2        3069            0.0000000000
      9206      3069  TIP3      H1            -16.7593996295       26.7684728873       -8.5044730134  W2        3069            0.0000000000
      9207      3069  TIP3      H2            -17.4264596295       25.9472828873       -7.4216130134  W2        3069            0.0000000000
      9208      3070  TIP3      OH2           -10.5035396295       28.9343328873      -14.6474530134  W2        3070            0.0000000000
      9209      3070  TIP3      H1            -10.7986996295       29.7611228873      -14.2659730134  W2        3070            0.0000000000
      9210      3070  TIP3      H2            -11.2065396295       28.3150228873      -14.4513130134  W2        3070            0.0000000000
      9211      3071  TIP3      OH2           -20.4961496295       25.2315928873       -2.5882730134  W2        3071            0.0000000000
      9212      3071  TIP3      H1            -20.2732896295       24.8135528873       -1.7565230134  W2        3071            0.0000000000
      9213      3071  TIP3      H2            -21.0981396295       24.6190928873       -3.0109930134  W2        3071            0.0000000000
      9214      3072  TIP3      OH2           -13.4796596295       24.7485828873       -0.3753030134  W2        3072            0.0000000000
      9215      3072  TIP3      H1            -13.7755796295       24.5828828873       -1.2703930134  W2        3072            0.0000000000
      9216      3072  TIP3      H2            -12.5481396295       24.5286128873       -0.3859130134  W2        3072            0.0000000000
      9217      3073  TIP3      OH2            -8.8593796295       30.1217828873       -2.4855030134  W2        3073            0.0000000000
      9218      3073  TIP3      H1             -9.7599496295       30.3050428873       -2.7531130134  W2        3073            0.0000000000
      9219      3073  TIP3      H2             -8.8252696295       30.3807128873       -1.5646230134  W2        3073            0.0000000000
      9220      3074  TIP3      OH2            -3.1280496295       22.3665728873      -14.1182430134  W2        3074            0.0000000000
      9221      3074  TIP3      H1             -3.6824196295       21.9703728873      -14.7904930134  W2        3074            0.0000000000
      9222      3074  TIP3      H2             -3.0276896295       23.2770928873      -14.3959130134  W2        3074            0.0000000000
      9223      3075  TIP3      OH2            -3.1648496295       28.1667428873       -1.2810930134  W2        3075            0.0000000000
      9224      3075  TIP3      H1             -4.0159996295       28.4051228873       -1.6484530134  W2        3075            0.0000000000
      9225      3075  TIP3      H2             -2.5745096295       28.1500628873       -2.0343830134  W2        3075            0.0000000000
      9226      3076  TIP3      OH2            -4.8328796295       31.1526128873      -13.6530330134  W2        3076            0.0000000000
      9227      3076  TIP3      H1             -5.2057696295       30.3269928873      -13.3439730134  W2        3076            0.0000000000
      9228      3076  TIP3      H2             -4.5555296295       30.9695528873      -14.5506930134  W2        3076            0.0000000000
      9229      3077  TIP3      OH2            -7.6724896295       25.9605628873       -6.6318430134  W2        3077            0.0000000000
      9230      3077  TIP3      H1             -8.6007996295       25.7287528873       -6.6589130134  W2        3077            0.0000000000
      9231      3077  TIP3      H2             -7.2213796295       25.1835428873       -6.9619630134  W2        3077            0.0000000000
      9232      3078  TIP3      OH2           -15.1291796295       30.2887228873      -10.4989730134  W2        3078            0.0000000000
      9233      3078  TIP3      H1            -14.6019596295       31.0621628873      -10.6990930134  W2        3078            0.0000000000
      9234      3078  TIP3      H2            -16.0093296295       30.5136428873      -10.8005730134  W2        3078            0.0000000000
      9235      3079  TIP3      OH2           -19.3744096295       25.1511328873      -15.9117330134  W2        3079            0.0000000000
      9236      3079  TIP3      H1            -18.7584196295       25.7778528873      -15.5322530134  W2        3079            0.0000000000
      9237      3079  TIP3      H2            -20.2361496295       25.4671128873      -15.6400830134  W2        3079            0.0000000000
      9238      3080  TIP3      OH2           -13.7019496295       27.9517128873      -10.9225430134  W2        3080            0.0000000000
      9239      3080  TIP3      H1            -13.9429496295       28.8771528873      -10.8810130134  W2        3080            0.0000000000
      9240      3080  TIP3      H2            -14.4425896295       27.4928428873      -10.5261530134  W2        3080            0.0000000000
      9241      3081  TIP3      OH2           -13.1872896295       32.1010728873       -4.6074330134  W2        3081            0.0000000000
      9242      3081  TIP3      H1            -12.8248196295       32.9556328873       -4.8409930134  W2        3081            0.0000000000
      9243      3081  TIP3      H2            -12.6557696295       31.8092328873       -3.8668030134  W2        3081            0.0000000000
      9244      3082  TIP3      OH2           -15.0188696295       32.9734728873      -11.3773230134  W2        3082            0.0000000000
      9245      3082  TIP3      H1            -15.9688196295       33.0792128873      -11.3259930134  W2        3082            0.0000000000
      9246      3082  TIP3      H2            -14.6670596295       33.7942128873      -11.0325730134  W2        3082            0.0000000000
      9247      3083  TIP3      OH2            -9.6432096295       28.2001428873       -4.9068730134  W2        3083            0.0000000000
      9248      3083  TIP3      H1            -10.0690796295       27.9723128873       -4.0804730134  W2        3083            0.0000000000
      9249      3083  TIP3      H2             -9.0626296295       27.4613228873       -5.0893430134  W2        3083            0.0000000000
      9250      3084  TIP3      OH2            -7.4403196295       29.1291928873      -15.8329730134  W2        3084            0.0000000000
      9251      3084  TIP3      H1             -7.0870096295       28.7491728873      -15.0286230134  W2        3084            0.0000000000
      9252      3084  TIP3      H2             -8.3889696295       29.0356728873      -15.7460430134  W2        3084            0.0000000000
      9253      3085  TIP3      OH2            -6.9847896295       32.7520928873       -2.4373930134  W2        3085            0.0000000000
      9254      3085  TIP3      H1             -7.5864696295       32.1963828873       -2.9327630134  W2        3085            0.0000000000
      9255      3085  TIP3      H2             -6.7034196295       33.4190728873       -3.0636530134  W2        3085            0.0000000000
      9256      3086  TIP3      OH2            -2.9368796295       33.6084428873      -15.6319530134  W2        3086            0.0000000000
      9257      3086  TIP3      H1             -2.1930896295       34.1944928873      -15.7717930134  W2        3086            0.0000000000
      9258      3086  TIP3      H2             -3.6310696295       34.1770228873      -15.2987130134  W2        3086            0.0000000000
      9259      3087  TIP3      OH2           -18.8621996295       19.9848628873       -3.0301330134  W2        3087            0.0000000000
      9260      3087  TIP3      H1            -19.7549696295       20.3234028873       -3.0977330134  W2        3087            0.0000000000
      9261      3087  TIP3      H2            -18.9609196295       19.1294728873       -2.6120530134  W2        3087            0.0000000000
      9262      3088  TIP3      OH2            -6.5743896295       27.8013928873      -13.6061830134  W2        3088            0.0000000000
      9263      3088  TIP3      H1             -6.8516296295       27.0733228873      -13.0500730134  W2        3088            0.0000000000
      9264      3088  TIP3      H2             -5.6470896295       27.9205928873      -13.4009230134  W2        3088            0.0000000000
      9265      3089  TIP3      OH2           -19.2109996295       31.7893028873       -4.5951930134  W2        3089            0.0000000000
      9266      3089  TIP3      H1            -18.9939696295       30.8575428873       -4.6262230134  W2        3089            0.0000000000
      9267      3089  TIP3      H2            -18.9646496295       32.0638028873       -3.7119130134  W2        3089            0.0000000000
      9268      3090  TIP3      OH2           -13.3495396295       30.2408028873      -17.3859730134  W2        3090            0.0000000000
      9269      3090  TIP3      H1            -13.1105596295       29.4926128873      -17.9330830134  W2        3090            0.0000000000
      9270      3090  TIP3      H2            -13.6184096295       29.8529728873      -16.5531930134  W2        3090            0.0000000000
      9271      3091  TIP3      OH2           -14.4124796295       29.8111828873      -14.9297130134  W2        3091            0.0000000000
      9272      3091  TIP3      H1            -14.2656796295       29.2911628873      -14.1396230134  W2        3091            0.0000000000
      9273      3091  TIP3      H2            -14.4153096295       30.7179428873      -14.6231230134  W2        3091            0.0000000000
      9274      3092  TIP3      OH2           -17.9593696295       27.0635128873      -14.4191730134  W2        3092            0.0000000000
      9275      3092  TIP3      H1            -18.6454396295       27.4157628873      -13.8522030134  W2        3092            0.0000000000
      9276      3092  TIP3      H2            -17.4365796295       27.8264728873      -14.6657430134  W2        3092            0.0000000000
      9277      3093  TIP3      OH2           -10.1278596295       19.7258928873       -4.1402730134  W2        3093            0.0000000000
      9278      3093  TIP3      H1             -9.4290696295       19.7997628873       -3.4903030134  W2        3093            0.0000000000
      9279      3093  TIP3      H2            -10.5087196295       18.8613928873       -3.9859830134  W2        3093            0.0000000000
      9280      3094  TIP3      OH2            -9.3433696295       19.3780628873      -13.0430430134  W2        3094            0.0000000000
      9281      3094  TIP3      H1             -9.1235396295       19.8496028873      -13.8465030134  W2        3094            0.0000000000
      9282      3094  TIP3      H2             -8.7849696295       19.7723228873      -12.3729830134  W2        3094            0.0000000000
      9283      3095  TIP3      OH2           -11.6747596295       31.5085428873      -14.1802930134  W2        3095            0.0000000000
      9284      3095  TIP3      H1            -12.4911496295       32.0055128873      -14.1278630134  W2        3095            0.0000000000
      9285      3095  TIP3      H2            -11.1451296295       31.9838928873      -14.8204130134  W2        3095            0.0000000000
      9286      3096  TIP3      OH2           -12.1433796295       21.1059428873      -12.2082030134  W2        3096            0.0000000000
      9287      3096  TIP3      H1            -11.3311196295       21.6102628873      -12.1620330134  W2        3096            0.0000000000
      9288      3096  TIP3      H2            -12.3880796295       20.9609128873      -11.2942430134  W2        3096            0.0000000000
      9289      3097  TIP3      OH2           -11.6077396295       22.0922128873       -3.0235430134  W2        3097            0.0000000000
      9290      3097  TIP3      H1            -11.4887096295       22.6657528873       -2.2665030134  W2        3097            0.0000000000
      9291      3097  TIP3      H2            -10.9522796295       21.4041528873       -2.9087630134  W2        3097            0.0000000000
      9292      3098  TIP3      OH2           -11.2597096295       18.1872428873      -11.2700930134  W2        3098            0.0000000000
      9293      3098  TIP3      H1            -11.6063596295       18.8043028873      -10.6256630134  W2        3098            0.0000000000
      9294      3098  TIP3      H2            -10.6010196295       18.6878128873      -11.7515430134  W2        3098            0.0000000000
      9295      3099  TIP3      OH2           -14.3364496295       32.5522628873      -14.1986030134  W2        3099            0.0000000000
      9296      3099  TIP3      H1            -14.1755796295       33.3520128873      -14.6993430134  W2        3099            0.0000000000
      9297      3099  TIP3      H2            -14.5336696295       32.8588628873      -13.3135430134  W2        3099            0.0000000000
      9298      3100  TIP3      OH2           -15.6020096295       19.2501828873      -14.5828430134  W2        3100            0.0000000000
      9299      3100  TIP3      H1            -15.6855296295       20.1384928873      -14.2362030134  W2        3100            0.0000000000
      9300      3100  TIP3      H2            -14.7119796295       18.9848528873      -14.3511630134  W2        3100            0.0000000000
      9301      3101  TIP3      OH2            -5.4031596295       19.9992428873       -2.1885730134  W2        3101            0.0000000000
      9302      3101  TIP3      H1             -6.3195796295       20.2614128873       -2.2762030134  W2        3101            0.0000000000
      9303      3101  TIP3      H2             -5.0676596295       19.9961428873       -3.0850430134  W2        3101            0.0000000000
      9304      3102  TIP3      OH2            -6.8010596295       23.7493428873       -8.0928430134  W2        3102            0.0000000000
      9305      3102  TIP3      H1             -7.5986196295       23.3343628873       -8.4213430134  W2        3102            0.0000000000
      9306      3102  TIP3      H2             -6.3559496295       23.0587128873       -7.6017930134  W2        3102            0.0000000000
      9307      3103  TIP3      OH2           -17.3434796295       29.6774028873      -15.5223930134  W2        3103            0.0000000000
      9308      3103  TIP3      H1            -16.7513296295       30.3768828873      -15.2461530134  W2        3103            0.0000000000
      9309      3103  TIP3      H2            -16.8841796295       29.2443528873      -16.2419330134  W2        3103            0.0000000000
      9310      3104  TIP3      OH2           -19.0275596295       22.3417028873      -16.4064530134  W2        3104            0.0000000000
      9311      3104  TIP3      H1            -19.0722996295       23.2810128873      -16.2277530134  W2        3104            0.0000000000
      9312      3104  TIP3      H2            -19.9152396295       22.1061928873      -16.6762430134  W2        3104            0.0000000000
      9313      3105  TIP3      OH2            -5.7145996295       33.0055928873       -6.4704930134  W2        3105            0.0000000000
      9314      3105  TIP3      H1             -5.8701696295       33.6840328873       -7.1275630134  W2        3105            0.0000000000
      9315      3105  TIP3      H2             -4.7819596295       33.0775228873       -6.2674330134  W2        3105            0.0000000000
      9316      3106  TIP3      OH2           -18.2193596295       17.1233628873       -7.7333530134  W2        3106            0.0000000000
      9317      3106  TIP3      H1            -18.4483796295       17.1826128873       -8.6608530134  W2        3106            0.0000000000
      9318      3106  TIP3      H2            -18.6620196295       16.3319128873       -7.4269430134  W2        3106            0.0000000000
      9319      3107  TIP3      OH2           -19.2890296295       31.0640728873      -11.5727730134  W2        3107            0.0000000000
      9320      3107  TIP3      H1            -20.1211696295       31.5363428873      -11.5456330134  W2        3107            0.0000000000
      9321      3107  TIP3      H2            -18.7431996295       31.5738328873      -12.1714630134  W2        3107            0.0000000000
      9322      3108  TIP3      OH2           -20.0006596295       33.6764428873       -0.2429730134  W2        3108            0.0000000000
      9323      3108  TIP3      H1            -19.4604396295       33.4598428873        0.5169469866  W2        3108            0.0000000000
      9324      3108  TIP3      H2            -20.4818596295       32.8710428873       -0.4327230134  W2        3108            0.0000000000
      9325      3109  TIP3      OH2           -15.4033196295       32.5958828873        1.3774469866  W2        3109            0.0000000000
      9326      3109  TIP3      H1            -14.6355996295       32.1369628873        1.7183669866  W2        3109            0.0000000000
      9327      3109  TIP3      H2            -15.4246996295       32.3698628873        0.4475669866  W2        3109            0.0000000000
      9328      3110  TIP3      OH2           -11.3113596295       32.1039428873      -17.2473730134  W2        3110            0.0000000000
      9329      3110  TIP3      H1            -11.9552596295       31.4728028873      -16.9260030134  W2        3110            0.0000000000
      9330      3110  TIP3      H2            -10.5495296295       31.5727428873      -17.4790230134  W2        3110            0.0000000000
      9331      3111  TIP3      OH2            -8.8264496295       30.9759928873        0.1065969866  W2        3111            0.0000000000
      9332      3111  TIP3      H1             -9.1774996295       30.1192928873        0.3496369866  W2        3111            0.0000000000
      9333      3111  TIP3      H2             -8.1001296295       31.1186628873        0.7134969866  W2        3111            0.0000000000
      9334      3112  TIP3      OH2            -6.7070696295       31.9209328873      -17.0135730134  W2        3112            0.0000000000
      9335      3112  TIP3      H1             -6.4240296295       31.1264528873      -16.5608830134  W2        3112            0.0000000000
      9336      3112  TIP3      H2             -5.9672796295       32.1540328873      -17.5744630134  W2        3112            0.0000000000
      9337      3113  TIP3      OH2           -20.0937096295       27.4868528873        0.7114569866  W2        3113            0.0000000000
      9338      3113  TIP3      H1            -19.9496596295       26.5849228873        0.4251269866  W2        3113            0.0000000000
      9339      3113  TIP3      H2            -20.8659696295       27.7730628873        0.2236869866  W2        3113            0.0000000000
      9340      3114  TIP3      OH2           -15.7523396295       27.8304228873      -17.1560830134  W2        3114            0.0000000000
      9341      3114  TIP3      H1            -15.6879296295       27.0363828873      -16.6254430134  W2        3114            0.0000000000
      9342      3114  TIP3      H2            -15.0994196295       27.7117028873      -17.8458830134  W2        3114            0.0000000000
      9343      3115  TIP3      OH2           -13.4380996295       27.4566628873        0.1440969866  W2        3115            0.0000000000
      9344      3115  TIP3      H1            -13.7667196295       27.7274728873       -0.7131630134  W2        3115            0.0000000000
      9345      3115  TIP3      H2            -13.2862796295       26.5156428873        0.0565969866  W2        3115            0.0000000000
      9346      3116  TIP3      OH2           -10.3999996295       28.8775928873      -17.4202830134  W2        3116            0.0000000000
      9347      3116  TIP3      H1            -10.6685896295       29.0578028873      -16.5193930134  W2        3116            0.0000000000
      9348      3116  TIP3      H2            -10.6064396295       27.9522128873      -17.5517030134  W2        3116            0.0000000000
      9349      3117  TIP3      OH2            -7.7035796295       27.3723928873       -2.4726730134  W2        3117            0.0000000000
      9350      3117  TIP3      H1             -6.9580996295       27.9607628873       -2.5922730134  W2        3117            0.0000000000
      9351      3117  TIP3      H2             -8.4608996295       27.9543628873       -2.4093630134  W2        3117            0.0000000000
      9352      3118  TIP3      OH2           -19.2610596295       24.6871828873        0.1313869866  W2        3118            0.0000000000
      9353      3118  TIP3      H1            -18.8529396295       23.8298428873        0.0104469866  W2        3118            0.0000000000
      9354      3118  TIP3      H2            -19.5212996295       24.7013128873        1.0524169866  W2        3118            0.0000000000
      9355      3119  TIP3      OH2           -14.6029596295       25.8030428873      -14.8502830134  W2        3119            0.0000000000
      9356      3119  TIP3      H1            -15.0627596295       25.3188728873      -14.1644330134  W2        3119            0.0000000000
      9357      3119  TIP3      H2            -14.3480896295       25.1345828873      -15.4862330134  W2        3119            0.0000000000
      9358      3120  TIP3      OH2           -15.3140296295       23.6957528873       -2.4943230134  W2        3120            0.0000000000
      9359      3120  TIP3      H1            -15.9324196295       24.3704128873       -2.2138530134  W2        3120            0.0000000000
      9360      3120  TIP3      H2            -14.9699096295       24.0171428873       -3.3277030134  W2        3120            0.0000000000
      9361      3121  TIP3      OH2           -13.5319196295       24.0462228873      -16.5879630134  W2        3121            0.0000000000
      9362      3121  TIP3      H1            -13.7124196295       23.8913428873      -17.5151330134  W2        3121            0.0000000000
      9363      3121  TIP3      H2            -12.5818696295       24.1540928873      -16.5431730134  W2        3121            0.0000000000
      9364      3122  TIP3      OH2           -10.2942096295       26.1672828873        0.7831569866  W2        3122            0.0000000000
      9365      3122  TIP3      H1             -9.3410896295       26.2511928873        0.7557569866  W2        3122            0.0000000000
      9366      3122  TIP3      H2            -10.4547496295       25.4554628873        1.4026469866  W2        3122            0.0000000000
      9367      3123  TIP3      OH2            -4.1420896295       26.4006428873      -17.1421530134  W2        3123            0.0000000000
      9368      3123  TIP3      H1             -4.4156096295       25.9761928873      -17.9553230134  W2        3123            0.0000000000
      9369      3123  TIP3      H2             -4.1026796295       27.3320928873      -17.3591130134  W2        3123            0.0000000000
      9370      3124  TIP3      OH2           -14.9746596295       21.0508328873       -1.4120130134  W2        3124            0.0000000000
      9371      3124  TIP3      H1            -14.8245696295       20.3219628873       -2.0140430134  W2        3124            0.0000000000
      9372      3124  TIP3      H2            -14.9724196295       21.8280028873       -1.9707930134  W2        3124            0.0000000000
      9373      3125  TIP3      OH2           -14.5620896295       19.4204128873       -3.9192730134  W2        3125            0.0000000000
      9374      3125  TIP3      H1            -14.0263396295       19.8720828873       -4.5713430134  W2        3125            0.0000000000
      9375      3125  TIP3      H2            -15.4141296295       19.3123928873       -4.3418630134  W2        3125            0.0000000000
      9376      3126  TIP3      OH2           -12.9802496295       24.8600328873       -3.6797530134  W2        3126            0.0000000000
      9377      3126  TIP3      H1            -12.2297696295       24.7037828873       -4.2529730134  W2        3126            0.0000000000
      9378      3126  TIP3      H2            -13.3194196295       25.7116928873       -3.9552030134  W2        3126            0.0000000000
      9379      3127  TIP3      OH2            -8.5646296295       22.6752128873        1.3487769866  W2        3127            0.0000000000
      9380      3127  TIP3      H1             -8.3724996295       21.7441528873        1.2372269866  W2        3127            0.0000000000
      9381      3127  TIP3      H2             -7.7069996295       23.1001628873        1.3383169866  W2        3127            0.0000000000
      9382      3128  TIP3      OH2            -7.2479096295       25.4637328873       -0.5739530134  W2        3128            0.0000000000
      9383      3128  TIP3      H1             -7.5294096295       26.1731928873       -1.1515730134  W2        3128            0.0000000000
      9384      3128  TIP3      H2             -6.3054796295       25.3910328873       -0.7248330134  W2        3128            0.0000000000
      9385      3129  TIP3      OH2           -16.4960296295       22.2491828873        0.4995469866  W2        3129            0.0000000000
      9386      3129  TIP3      H1            -17.2631296295       21.7166628873        0.2893069866  W2        3129            0.0000000000
      9387      3129  TIP3      H2            -15.8171296295       21.9392228873       -0.0998230134  W2        3129            0.0000000000
      9388      3130  TIP3      OH2           -13.7565396295       16.8769828873       -3.4879130134  W2        3130            0.0000000000
      9389      3130  TIP3      H1            -13.8545796295       17.8233028873       -3.5932930134  W2        3130            0.0000000000
      9390      3130  TIP3      H2            -14.4989196295       16.5043628873       -3.9635630134  W2        3130            0.0000000000
      9391      3131  TIP3      OH2           -12.4924896295       21.1985228873        0.0759269866  W2        3131            0.0000000000
      9392      3131  TIP3      H1            -12.7279496295       20.9791928873        0.9774169866  W2        3131            0.0000000000
      9393      3131  TIP3      H2            -13.2757996295       20.9916428873       -0.4338230134  W2        3131            0.0000000000
      9394      3132  TIP3      OH2            -9.7768296295       20.3258728873       -0.8487230134  W2        3132            0.0000000000
      9395      3132  TIP3      H1            -10.7242896295       20.3578428873       -0.7163930134  W2        3132            0.0000000000
      9396      3132  TIP3      H2             -9.4641596295       19.7005828873       -0.1949030134  W2        3132            0.0000000000
      9397      3133  TIP3      OH2            -8.1426796295       18.9599828873        1.1564669866  W2        3133            0.0000000000
      9398      3133  TIP3      H1             -8.2394996295       18.0077128873        1.1506569866  W2        3133            0.0000000000
      9399      3133  TIP3      H2             -8.4643696295       19.2286628873        2.0170169866  W2        3133            0.0000000000
      9400      3134  TIP3      OH2           -18.3157496295       20.1695628873        0.2040169866  W2        3134            0.0000000000
      9401      3134  TIP3      H1            -18.1040096295       19.4631728873       -0.4062330134  W2        3134            0.0000000000
      9402      3134  TIP3      H2            -18.4269996295       19.7321628873        1.0481369866  W2        3134            0.0000000000
      9403      3135  TIP3      OH2           -13.5347296295       16.1707228873       -0.8166330134  W2        3135            0.0000000000
      9404      3135  TIP3      H1            -12.8228896295       15.5309428873       -0.8307230134  W2        3135            0.0000000000
      9405      3135  TIP3      H2            -13.6356896295       16.4375528873       -1.7303230134  W2        3135            0.0000000000
      9406      3136  TIP3      OH2           -13.1809796295       17.8535628873        1.2369969866  W2        3136            0.0000000000
      9407      3136  TIP3      H1            -13.3127596295       17.3779428873        0.4168469866  W2        3136            0.0000000000
      9408      3136  TIP3      H2            -13.7802396295       18.5979228873        1.1817069866  W2        3136            0.0000000000
      9409      3137  TIP3      OH2           -13.6347496295       34.7365928873      -15.5866030134  W2        3137            0.0000000000
      9410      3137  TIP3      H1            -12.7016796295       34.8944628873      -15.4427630134  W2        3137            0.0000000000
      9411      3137  TIP3      H2            -13.8988696295       35.4118928873      -16.2114530134  W2        3137            0.0000000000
      9412      3138  TIP3      OH2           -20.0662596295       29.3729728873      -16.1037930134  W2        3138            0.0000000000
      9413      3138  TIP3      H1            -19.1523396295       29.4518628873      -15.8304030134  W2        3138            0.0000000000
      9414      3138  TIP3      H2            -20.0589496295       28.6859328873      -16.7702330134  W2        3138            0.0000000000
      9415      3139  TIP3      OH2           -21.4171996295       34.7658228873      -11.0264030134  W2        3139            0.0000000000
      9416      3139  TIP3      H1            -22.0644896295       34.3039928873      -11.5592830134  W2        3139            0.0000000000
      9417      3139  TIP3      H2            -21.0627396295       34.0941528873      -10.4437830134  W2        3139            0.0000000000
      9418      3140  TIP3      OH2           -20.5472796295       32.8465228873       -9.2217830134  W2        3140            0.0000000000
      9419      3140  TIP3      H1            -20.8815996295       31.9662528873       -9.0497630134  W2        3140            0.0000000000
      9420      3140  TIP3      H2            -20.3250396295       33.1920228873       -8.3572230134  W2        3140            0.0000000000
      9421      3141  TIP3      OH2            -2.9987996295       33.6561628873       -6.2413030134  W2        3141            0.0000000000
      9422      3141  TIP3      H1             -3.0201296295       33.8410028873       -5.3023630134  W2        3141            0.0000000000
      9423      3141  TIP3      H2             -2.3081796295       34.2245628873       -6.5821630134  W2        3141            0.0000000000
      9424      3142  TIP3      OH2            -3.4355096295       33.2232728873       -3.3193930134  W2        3142            0.0000000000
      9425      3142  TIP3      H1             -3.9226396295       32.4876828873       -3.6906530134  W2        3142            0.0000000000
      9426      3142  TIP3      H2             -2.8862396295       32.8296628873       -2.6414530134  W2        3142            0.0000000000
      9427      3143  TIP3      OH2            -4.9847796295       29.0130828873        1.3186369866  W2        3143            0.0000000000
      9428      3143  TIP3      H1             -5.8506696295       28.9080528873        1.7128669866  W2        3143            0.0000000000
      9429      3143  TIP3      H2             -4.6081896295       29.7714128873        1.7651069866  W2        3143            0.0000000000
      9430      3144  TIP3      OH2            -3.6838096295       27.2694528873      -13.1671130134  W2        3144            0.0000000000
      9431      3144  TIP3      H1             -2.8336696295       27.6905428873      -13.0399530134  W2        3144            0.0000000000
      9432      3144  TIP3      H2             -3.6782996295       26.5294628873      -12.5599730134  W2        3144            0.0000000000
      9433      3145  TIP3      OH2            -3.2892496295       25.3231928873      -11.3435430134  W2        3145            0.0000000000
      9434      3145  TIP3      H1             -4.0157896295       24.8434528873      -10.9457830134  W2        3145            0.0000000000
      9435      3145  TIP3      H2             -2.7079196295       25.5286628873      -10.6113830134  W2        3145            0.0000000000
      9436      3146  TIP3      OH2            -3.5301296295       28.1079428873       -6.3957830134  W2        3146            0.0000000000
      9437      3146  TIP3      H1             -2.6967096295       27.7299428873       -6.6764230134  W2        3146            0.0000000000
      9438      3146  TIP3      H2             -3.4180996295       29.0510628873       -6.5148730134  W2        3146            0.0000000000
      9439      3147  TIP3      OH2            -5.0438996295       30.9856928873       -4.0889430134  W2        3147            0.0000000000
      9440      3147  TIP3      H1             -5.6913696295       31.3108428873       -3.4634230134  W2        3147            0.0000000000
      9441      3147  TIP3      H2             -5.5614996295       30.5454628873       -4.7631130134  W2        3147            0.0000000000
      9442      3148  TIP3      OH2            -3.0209396295       25.2240428873      -14.9524130134  W2        3148            0.0000000000
      9443      3148  TIP3      H1             -3.5428296295       25.5804528873      -15.6713230134  W2        3148            0.0000000000
      9444      3148  TIP3      H2             -3.0540196295       25.8988228873      -14.2743230134  W2        3148            0.0000000000
      9445      3149  TIP3      OH2            -4.6720396295       22.4636028873      -16.4017030134  W2        3149            0.0000000000
      9446      3149  TIP3      H1             -4.5755996295       23.1303028873      -17.0817330134  W2        3149            0.0000000000
      9447      3149  TIP3      H2             -4.8120796295       21.6482328873      -16.8831530134  W2        3149            0.0000000000
      9448      3150  TIP3      OH2            -5.5025696295       23.8438428873      -10.7806730134  W2        3150            0.0000000000
      9449      3150  TIP3      H1             -5.6526896295       22.8987028873      -10.8008930134  W2        3150            0.0000000000
      9450      3150  TIP3      H2             -5.8561196295       24.1249828873       -9.9367630134  W2        3150            0.0000000000
      9451      3151  TIP3      OH2           -20.4673296295       25.9220628873       -6.7702930134  W2        3151            0.0000000000
      9452      3151  TIP3      H1            -20.2830396295       25.8402328873       -7.7060030134  W2        3151            0.0000000000
      9453      3151  TIP3      H2            -19.6180396295       25.7977628873       -6.3466530134  W2        3151            0.0000000000
      9454      3152  TIP3      OH2            -4.6462796295       25.8141728873       -1.1418430134  W2        3152            0.0000000000
      9455      3152  TIP3      H1             -4.0635496295       25.0794028873       -0.9501230134  W2        3152            0.0000000000
      9456      3152  TIP3      H2             -4.0823496295       26.5862028873       -1.0952630134  W2        3152            0.0000000000
      9457      3153  TIP3      OH2            -3.1495696295       23.7167528873       -0.4573030134  W2        3153            0.0000000000
      9458      3153  TIP3      H1             -4.0128996295       23.3379628873       -0.6228330134  W2        3153            0.0000000000
      9459      3153  TIP3      H2             -2.5451996295       22.9782328873       -0.5317230134  W2        3153            0.0000000000
      9460      3154  TIP3      OH2            -5.4246596295       19.8715828873      -17.2841530134  W2        3154            0.0000000000
      9461      3154  TIP3      H1             -4.8140796295       19.5002628873      -16.6473330134  W2        3154            0.0000000000
      9462      3154  TIP3      H2             -6.2615096295       19.4502728873      -17.0881530134  W2        3154            0.0000000000
      9463      3155  TIP3      OH2            -5.7920896295       21.4264228873      -12.3181630134  W2        3155            0.0000000000
      9464      3155  TIP3      H1             -5.5123796295       20.5194628873      -12.1939930134  W2        3155            0.0000000000
      9465      3155  TIP3      H2             -5.0329196295       21.8605728873      -12.7072430134  W2        3155            0.0000000000
      9466      3156  TIP3      OH2            -5.1802596295       22.0081628873       -6.8822730134  W2        3156            0.0000000000
      9467      3156  TIP3      H1             -4.2474596295       22.2201528873       -6.9166730134  W2        3156            0.0000000000
      9468      3156  TIP3      H2             -5.4155096295       22.1093728873       -5.9599730134  W2        3156            0.0000000000
      9469      3157  TIP3      OH2            -5.1510696295       22.7446928873       -4.1063330134  W2        3157            0.0000000000
      9470      3157  TIP3      H1             -5.9939396295       23.0127328873       -3.7403530134  W2        3157            0.0000000000
      9471      3157  TIP3      H2             -4.7086396295       23.5668828873       -4.3172230134  W2        3157            0.0000000000
      9472      3158  TIP3      OH2           -20.8698496295       21.1925628873       -0.6294130134  W2        3158            0.0000000000
      9473      3158  TIP3      H1            -19.9503596295       21.0703928873       -0.3931030134  W2        3158            0.0000000000
      9474      3158  TIP3      H2            -21.3193996295       20.4425328873       -0.2400630134  W2        3158            0.0000000000
      9475      3159  TIP3      OH2            -2.8679096295       16.7247128873        1.2471669866  W2        3159            0.0000000000
      9476      3159  TIP3      H1             -2.5182096295       16.0710628873        0.6416369866  W2        3159            0.0000000000
      9477      3159  TIP3      H2             -2.7209596295       17.5621228873        0.8074269866  W2        3159            0.0000000000
      9478      3160  TIP3      OH2            -5.1786096295       18.6893528873      -12.2699630134  W2        3160            0.0000000000
      9479      3160  TIP3      H1             -4.9961096295       18.2405028873      -11.4444630134  W2        3160            0.0000000000
      9480      3160  TIP3      H2             -5.7783196295       18.1047928873      -12.7335030134  W2        3160            0.0000000000
      9481      3161  TIP3      OH2           -19.6485996295       19.5047228873       -7.7381230134  W2        3161            0.0000000000
      9482      3161  TIP3      H1            -19.2034396295       18.7129728873       -7.4361530134  W2        3161            0.0000000000
      9483      3161  TIP3      H2            -19.1822996295       20.2212428873       -7.3075630134  W2        3161            0.0000000000
      9484      3162  TIP3      OH2           -21.3445696295       22.5040228873       -6.6691030134  W2        3162            0.0000000000
      9485      3162  TIP3      H1            -20.8525896295       22.2830728873       -7.4599030134  W2        3162            0.0000000000
      9486      3162  TIP3      H2            -20.9824796295       23.3443628873       -6.3881530134  W2        3162            0.0000000000
      9487      3163  TIP3      OH2            -3.3481896295       18.8341728873       -0.4037030134  W2        3163            0.0000000000
      9488      3163  TIP3      H1             -4.2656196295       19.1048828873       -0.4393530134  W2        3163            0.0000000000
      9489      3163  TIP3      H2             -3.2252496295       18.2990128873       -1.1877330134  W2        3163            0.0000000000
      9490      3164  TIP3      OH2            -3.3119896295       18.7571628873      -15.7419330134  W2        3164            0.0000000000
      9491      3164  TIP3      H1             -2.8997296295       18.0357328873      -16.2171330134  W2        3164            0.0000000000
      9492      3164  TIP3      H2             -2.6303396295       19.4266228873      -15.6835030134  W2        3164            0.0000000000
      9493      3165  TIP3      OH2           -21.0309196295       18.7619328873      -12.6148630134  W2        3165            0.0000000000
      9494      3165  TIP3      H1            -21.9560796295       18.9705928873      -12.7443130134  W2        3165            0.0000000000
      9495      3165  TIP3      H2            -20.5769296295       19.2460128873      -13.3046330134  W2        3165            0.0000000000
      9496      3166  TIP3      OH2            -6.2601996295       33.7461028873      -10.6691230134  W2        3166            0.0000000000
      9497      3166  TIP3      H1             -5.6079096295       33.3983128873      -11.2772130134  W2        3166            0.0000000000
      9498      3166  TIP3      H2             -5.7498196295       34.2344228873      -10.0231530134  W2        3166            0.0000000000
      9499      3167  TIP3      OH2           -21.0673796295       17.4998328873       -4.2706130134  W2        3167            0.0000000000
      9500      3167  TIP3      H1            -21.7323296295       17.2538628873       -3.6275230134  W2        3167            0.0000000000
      9501      3167  TIP3      H2            -21.5102496295       18.1218728873       -4.8478130134  W2        3167            0.0000000000
      9502      3168  TIP3      OH2           -18.8754496295       30.6752428873       -0.1260330134  W2        3168            0.0000000000
      9503      3168  TIP3      H1            -19.6961996295       30.8498928873       -0.5865630134  W2        3168            0.0000000000
      9504      3168  TIP3      H2            -19.1276696295       30.6017128873        0.7944069866  W2        3168            0.0000000000
      9505      3169  TIP3      OH2           -15.9211596295       31.6493628873       -3.8676330134  W2        3169            0.0000000000
      9506      3169  TIP3      H1            -16.3460496295       32.4592128873       -4.1501730134  W2        3169            0.0000000000
      9507      3169  TIP3      H2            -15.0168796295       31.7347728873       -4.1696530134  W2        3169            0.0000000000
      9508      3170  TIP3      OH2           -11.6100196295       33.0483628873       -0.9082630134  W2        3170            0.0000000000
      9509      3170  TIP3      H1            -11.4252696295       32.7149728873       -0.0302330134  W2        3170            0.0000000000
      9510      3170  TIP3      H2            -10.7635696295       33.3582228873       -1.2303430134  W2        3170            0.0000000000
      9511      3171  TIP3      OH2            -9.2649796295       34.3342528873       -1.6641230134  W2        3171            0.0000000000
      9512      3171  TIP3      H1             -8.5880896295       33.7014828873       -1.9042030134  W2        3171            0.0000000000
      9513      3171  TIP3      H2             -8.9430996295       34.7353028873       -0.8567930134  W2        3171            0.0000000000
      9514      3172  TIP3      OH2            -4.3475996295       16.9238028873       -2.5846230134  W2        3172            0.0000000000
      9515      3172  TIP3      H1             -5.1602496295       17.2488328873       -2.9721530134  W2        3172            0.0000000000
      9516      3172  TIP3      H2             -4.1147496295       16.1636528873       -3.1177130134  W2        3172            0.0000000000
      9517      3173  TIP3      OH2           -18.5194896295       34.9057528873       -3.8201030134  W2        3173            0.0000000000
      9518      3173  TIP3      H1            -19.2398496295       35.3458528873       -4.2713330134  W2        3173            0.0000000000
      9519      3173  TIP3      H2            -18.8850896295       34.6552228873       -2.9717030134  W2        3173            0.0000000000
      9520      3174  TIP3      OH2           -16.0522296295       34.5061428873       -4.7903830134  W2        3174            0.0000000000
      9521      3174  TIP3      H1            -16.9170096295       34.5779928873       -4.3863730134  W2        3174            0.0000000000
      9522      3174  TIP3      H2            -16.1073296295       35.0528728873       -5.5741330134  W2        3174            0.0000000000
      9523      3175  TIP3      OH2           -11.3416696295       34.3940328873       -5.6147830134  W2        3175            0.0000000000
      9524      3175  TIP3      H1            -11.7982696295       34.9230028873       -6.2689430134  W2        3175            0.0000000000
      9525      3175  TIP3      H2            -11.1788696295       34.9971728873       -4.8895530134  W2        3175            0.0000000000
      9526      3176  TIP3      OH2            -9.0140396295       33.2719928873       -4.6697530134  W2        3176            0.0000000000
      9527      3176  TIP3      H1             -9.9186696295       33.4370128873       -4.9355430134  W2        3176            0.0000000000
      9528      3176  TIP3      H2             -8.5851796295       34.1252128873       -4.7354130134  W2        3176            0.0000000000
      9529      3177  TIP3      OH2            -6.4098496295       34.8419028873       -4.3749730134  W2        3177            0.0000000000
      9530      3177  TIP3      H1             -6.5916496295       35.7577928873       -4.5854830134  W2        3177            0.0000000000
      9531      3177  TIP3      H2             -6.2330696295       34.4316128873       -5.2215130134  W2        3177            0.0000000000
      9532      3178  TIP3      OH2           -19.1046796295       33.5290028873       -6.9099230134  W2        3178            0.0000000000
      9533      3178  TIP3      H1            -19.1230796295       33.1035128873       -6.0526930134  W2        3178            0.0000000000
      9534      3178  TIP3      H2            -18.2998896295       33.2105028873       -7.3187030134  W2        3178            0.0000000000
      9535      3179  TIP3      OH2           -16.9633696295       32.2388728873       -8.2549330134  W2        3179            0.0000000000
      9536      3179  TIP3      H1            -17.1822996295       31.3226128873       -8.0853330134  W2        3179            0.0000000000
      9537      3179  TIP3      H2            -16.1391496295       32.3789128873       -7.7887930134  W2        3179            0.0000000000
      9538      3180  TIP3      OH2           -14.4261196295       32.7088028873       -7.4061330134  W2        3180            0.0000000000
      9539      3180  TIP3      H1            -14.2135496295       31.8207028873       -7.6930430134  W2        3180            0.0000000000
      9540      3180  TIP3      H2            -14.3616096295       32.6745728873       -6.4517330134  W2        3180            0.0000000000
      9541      3181  TIP3      OH2           -10.9177496295       18.3728628873       -8.2618030134  W2        3181            0.0000000000
      9542      3181  TIP3      H1            -11.5920696295       17.7434228873       -8.0062230134  W2        3181            0.0000000000
      9543      3181  TIP3      H2            -10.3538296295       17.8887528873       -8.8650130134  W2        3181            0.0000000000
      9544      3182  TIP3      OH2            -5.7750296295       16.4802628873       -8.1490930134  W2        3182            0.0000000000
      9545      3182  TIP3      H1             -5.1712696295       17.0278028873       -8.6509930134  W2        3182            0.0000000000
      9546      3182  TIP3      H2             -6.6448296295       16.7993028873       -8.3896830134  W2        3182            0.0000000000
      9547      3183  TIP3      OH2            -4.0479896295       17.6191328873       -9.8160030134  W2        3183            0.0000000000
      9548      3183  TIP3      H1             -3.4362396295       17.1047028873      -10.3426430134  W2        3183            0.0000000000
      9549      3183  TIP3      H2             -3.6656496295       18.4963428873       -9.7925630134  W2        3183            0.0000000000
      9550      3184  TIP3      OH2           -18.5909996295       17.0068928873      -10.4398130134  W2        3184            0.0000000000
      9551      3184  TIP3      H1            -19.3680196295       16.7723828873      -10.9472230134  W2        3184            0.0000000000
      9552      3184  TIP3      H2            -18.0606396295       16.2101028873      -10.4310130134  W2        3184            0.0000000000
      9553      3185  TIP3      OH2           -19.7546596295       16.8047028873      -14.6362030134  W2        3185            0.0000000000
      9554      3185  TIP3      H1            -19.3155896295       17.4157528873      -15.2278530134  W2        3185            0.0000000000
      9555      3185  TIP3      H2            -20.3884196295       17.3431128873      -14.1622030134  W2        3185            0.0000000000
      9556      3186  TIP3      OH2           -14.0117396295       16.9336028873      -10.6265030134  W2        3186            0.0000000000
      9557      3186  TIP3      H1            -13.1373996295       17.3220328873      -10.6560730134  W2        3186            0.0000000000
      9558      3186  TIP3      H2            -14.1476596295       16.7183828873       -9.7037830134  W2        3186            0.0000000000
      9559      3187  TIP3      OH2            -8.4548996295       16.9635828873       -8.9773330134  W2        3187            0.0000000000
      9560      3187  TIP3      H1             -8.3787396295       17.0587428873       -9.9267330134  W2        3187            0.0000000000
      9561      3187  TIP3      H2             -8.7299796295       16.0558728873       -8.8484230134  W2        3187            0.0000000000
      9562      3188  TIP3      OH2            -7.1016396295       16.9893628873      -13.2848330134  W2        3188            0.0000000000
      9563      3188  TIP3      H1             -7.8045296295       17.6042828873      -13.4946930134  W2        3188            0.0000000000
      9564      3188  TIP3      H2             -7.5464996295       16.1520328873      -13.1537430134  W2        3188            0.0000000000
      9565      3189  TIP3      OH2           -19.8537096295       32.7529228873      -13.7386930134  W2        3189            0.0000000000
      9566      3189  TIP3      H1            -20.5387196295       32.7148128873      -14.4061830134  W2        3189            0.0000000000
      9567      3189  TIP3      H2            -19.8499896295       33.6656828873      -13.4504830134  W2        3189            0.0000000000
      9568      3190  TIP3      OH2           -17.8937496295       18.7208528873      -16.1937930134  W2        3190            0.0000000000
      9569      3190  TIP3      H1            -17.4024096295       18.0910928873      -16.7212430134  W2        3190            0.0000000000
      9570      3190  TIP3      H2            -17.2701196295       19.0167928873      -15.5306730134  W2        3190            0.0000000000
      9571      3191  TIP3      OH2           -12.8677396295       19.0140028873      -13.7367430134  W2        3191            0.0000000000
      9572      3191  TIP3      H1            -12.6896096295       18.3673228873      -13.0538830134  W2        3191            0.0000000000
      9573      3191  TIP3      H2            -12.9211196295       19.8477728873      -13.2696330134  W2        3191            0.0000000000
      9574      3192  TIP3      OH2           -10.9893596295       33.9624128873      -15.3410730134  W2        3192            0.0000000000
      9575      3192  TIP3      H1            -10.1233396295       34.3291528873      -15.5192530134  W2        3192            0.0000000000
      9576      3192  TIP3      H2            -11.2360796295       33.5232128873      -16.1549930134  W2        3192            0.0000000000
      9577      3193  TIP3      OH2            -4.2803996295       33.5254428873      -12.6619630134  W2        3193            0.0000000000
      9578      3193  TIP3      H1             -4.4746896295       32.7776528873      -13.2270030134  W2        3193            0.0000000000
      9579      3193  TIP3      H2             -4.3193896295       34.2834528873      -13.2451730134  W2        3193            0.0000000000
      9580      3194  TIP3      OH2           -18.6331996295       17.5210828873       -0.9221930134  W2        3194            0.0000000000
      9581      3194  TIP3      H1            -18.9993796295       16.7553428873       -0.4797230134  W2        3194            0.0000000000
      9582      3194  TIP3      H2            -17.7203496295       17.5501028873       -0.6356830134  W2        3194            0.0000000000
      9583      3195  TIP3      OH2           -16.6601196295       16.8715228873        0.6135169866  W2        3195            0.0000000000
      9584      3195  TIP3      H1            -15.7617596295       16.5975428873        0.4288569866  W2        3195            0.0000000000
      9585      3195  TIP3      H2            -17.0468096295       16.1291228873        1.0777769866  W2        3195            0.0000000000
      9586      3196  TIP3      OH2           -18.0355896295       33.6730028873      -16.7134830134  W2        3196            0.0000000000
      9587      3196  TIP3      H1            -18.3031296295       33.9592928873      -15.8401730134  W2        3196            0.0000000000
      9588      3196  TIP3      H2            -17.2643296295       33.1269228873      -16.5612330134  W2        3196            0.0000000000
      9589      3197  TIP3      OH2            -8.2388896295       16.2040528873        0.7957969866  W2        3197            0.0000000000
      9590      3197  TIP3      H1             -8.1621696295       15.7781228873        1.6495669866  W2        3197            0.0000000000
      9591      3197  TIP3      H2             -7.3452296295       16.2175228873        0.4531469866  W2        3197            0.0000000000
      9592      3198  TIP3      OH2            -5.0627796295       32.2766828873       -0.5117830134  W2        3198            0.0000000000
      9593      3198  TIP3      H1             -5.8445896295       32.0904828873       -1.0317230134  W2        3198            0.0000000000
      9594      3198  TIP3      H2             -5.1347896295       33.2061128873       -0.2945330134  W2        3198            0.0000000000
      9595      3199  TIP3      OH2             9.3432603705       26.1631228873      -10.4810630134  W2        3199            0.0000000000
      9596      3199  TIP3      H1              9.4323703705       27.1069428873      -10.6133530134  W2        3199            0.0000000000
      9597      3199  TIP3      H2              8.7050203705       25.8877628873      -11.1391230134  W2        3199            0.0000000000
      9598      3200  TIP3      OH2             8.2763903705       25.4181928873       -7.0622430134  W2        3200            0.0000000000
      9599      3200  TIP3      H1              8.2381403705       24.7718228873       -6.3572830134  W2        3200            0.0000000000
      9600      3200  TIP3      H2              7.9540403705       24.9516328873       -7.8333730134  W2        3200            0.0000000000
      9601      3201  TIP3      OH2             0.6448903705       25.0324028873       -5.4692530134  W2        3201            0.0000000000
      9602      3201  TIP3      H1              0.6861003705       24.4067328873       -4.7460130134  W2        3201            0.0000000000
      9603      3201  TIP3      H2              1.3476603705       25.6562628873       -5.2872130134  W2        3201            0.0000000000
      9604      3202  TIP3      OH2            11.9824103705       28.3572328873       -8.7607330134  W2        3202            0.0000000000
      9605      3202  TIP3      H1             11.5416803705       27.6368328873       -8.3101730134  W2        3202            0.0000000000
      9606      3202  TIP3      H2             11.9693803705       29.0779528873       -8.1309630134  W2        3202            0.0000000000
      9607      3203  TIP3      OH2             1.5682003705       29.4822928873       -6.9343430134  W2        3203            0.0000000000
      9608      3203  TIP3      H1              1.1987203705       28.6803428873       -7.3039130134  W2        3203            0.0000000000
      9609      3203  TIP3      H2              2.5093103705       29.3137828873       -6.8880030134  W2        3203            0.0000000000
      9610      3204  TIP3      OH2            -1.8217496295       23.1425528873      -11.5414630134  W2        3204            0.0000000000
      9611      3204  TIP3      H1             -2.2694096295       23.9884228873      -11.5598130134  W2        3204            0.0000000000
      9612      3204  TIP3      H2             -2.3826296295       22.5629728873      -12.0569530134  W2        3204            0.0000000000
      9613      3205  TIP3      OH2            -1.1111396295       25.3045128873       -9.4156630134  W2        3205            0.0000000000
      9614      3205  TIP3      H1             -0.8977896295       24.5346728873       -8.8883630134  W2        3205            0.0000000000
      9615      3205  TIP3      H2             -0.3733796295       25.3941828873      -10.0189030134  W2        3205            0.0000000000
      9616      3206  TIP3      OH2             9.0939603705       33.4614028873       -8.5486930134  W2        3206            0.0000000000
      9617      3206  TIP3      H1              9.7136003705       32.7848728873       -8.8217730134  W2        3206            0.0000000000
      9618      3206  TIP3      H2              8.8857003705       33.2434828873       -7.6402030134  W2        3206            0.0000000000
      9619      3207  TIP3      OH2             6.6658303705       27.8503328873       -6.6561430134  W2        3207            0.0000000000
      9620      3207  TIP3      H1              6.9696203705       27.1644728873       -7.2507330134  W2        3207            0.0000000000
      9621      3207  TIP3      H2              7.3872303705       27.9692028873       -6.0383430134  W2        3207            0.0000000000
      9622      3208  TIP3      OH2            15.3288103705       19.4518628873       -5.7955230134  W2        3208            0.0000000000
      9623      3208  TIP3      H1             15.3780303705       20.0619828873       -5.0596130134  W2        3208            0.0000000000
      9624      3208  TIP3      H2             15.7543203705       19.9129528873       -6.5184130134  W2        3208            0.0000000000
      9625      3209  TIP3      OH2             9.8065303705       22.2445728873       -6.3286630134  W2        3209            0.0000000000
      9626      3209  TIP3      H1              9.9491203705       21.2982728873       -6.3085030134  W2        3209            0.0000000000
      9627      3209  TIP3      H2              9.7004303705       22.4515528873       -7.2571730134  W2        3209            0.0000000000
      9628      3210  TIP3      OH2             2.9613603705       20.3462128873       -9.0561830134  W2        3210            0.0000000000
      9629      3210  TIP3      H1              3.0044703705       21.2060628873       -9.4745530134  W2        3210            0.0000000000
      9630      3210  TIP3      H2              2.5037703705       19.7936828873       -9.6898630134  W2        3210            0.0000000000
      9631      3211  TIP3      OH2            10.6836303705       20.4767728873      -10.6553530134  W2        3211            0.0000000000
      9632      3211  TIP3      H1             11.3300603705       20.1480928873      -10.0305930134  W2        3211            0.0000000000
      9633      3211  TIP3      H2             11.1935703705       20.9946728873      -11.2782130134  W2        3211            0.0000000000
      9634      3212  TIP3      OH2            -0.4184896295       22.7427928873       -8.2940430134  W2        3212            0.0000000000
      9635      3212  TIP3      H1              0.2351703705       22.1929628873       -7.8620330134  W2        3212            0.0000000000
      9636      3212  TIP3      H2             -0.3945596295       22.4686928873       -9.2108430134  W2        3212            0.0000000000
      9637      3213  TIP3      OH2             4.7379603705       24.2929228873       -9.0788930134  W2        3213            0.0000000000
      9638      3213  TIP3      H1              5.3540603705       23.7664628873       -8.5694930134  W2        3213            0.0000000000
      9639      3213  TIP3      H2              4.1518403705       23.6527928873       -9.4825330134  W2        3213            0.0000000000
      9640      3214  TIP3      OH2            15.7202703705       20.9297828873       -3.5595430134  W2        3214            0.0000000000
      9641      3214  TIP3      H1             15.0317303705       21.5878528873       -3.6548830134  W2        3214            0.0000000000
      9642      3214  TIP3      H2             15.7357303705       20.7325728873       -2.6230030134  W2        3214            0.0000000000
      9643      3215  TIP3      OH2             1.7715503705       19.2640528873       -4.9821030134  W2        3215            0.0000000000
      9644      3215  TIP3      H1              1.5527203705       19.7941128873       -5.7485030134  W2        3215            0.0000000000
      9645      3215  TIP3      H2              1.1036403705       19.4906028873       -4.3349630134  W2        3215            0.0000000000
      9646      3216  TIP3      OH2             9.1405303705       28.7641628873      -11.4381930134  W2        3216            0.0000000000
      9647      3216  TIP3      H1              8.8450403705       28.4413928873      -12.2895030134  W2        3216            0.0000000000
      9648      3216  TIP3      H2              8.8163103705       29.6638328873      -11.3969330134  W2        3216            0.0000000000
      9649      3217  TIP3      OH2             4.3406903705       26.9396228873       -4.6947330134  W2        3217            0.0000000000
      9650      3217  TIP3      H1              3.6006003705       27.5377728873       -4.5912130134  W2        3217            0.0000000000
      9651      3217  TIP3      H2              5.0546403705       27.4935828873       -5.0103730134  W2        3217            0.0000000000
      9652      3218  TIP3      OH2            12.4474703705       19.7677028873       -8.6747630134  W2        3218            0.0000000000
      9653      3218  TIP3      H1             12.2322703705       19.0020428873       -8.1421630134  W2        3218            0.0000000000
      9654      3218  TIP3      H2             13.1032103705       20.2401628873       -8.1619130134  W2        3218            0.0000000000
      9655      3219  TIP3      OH2             1.3652803705       21.1562328873       -7.0298830134  W2        3219            0.0000000000
      9656      3219  TIP3      H1              1.9789103705       21.7889928873       -6.6566430134  W2        3219            0.0000000000
      9657      3219  TIP3      H2              1.8773503705       20.6837328873       -7.6861930134  W2        3219            0.0000000000
      9658      3220  TIP3      OH2             2.7481203705       28.9039228873       -3.9075830134  W2        3220            0.0000000000
      9659      3220  TIP3      H1              2.7428803705       29.7832728873       -4.2856530134  W2        3220            0.0000000000
      9660      3220  TIP3      H2              1.8945303705       28.8203328873       -3.4825930134  W2        3220            0.0000000000
      9661      3221  TIP3      OH2            -1.1307896295       28.5747128873      -13.1256530134  W2        3221            0.0000000000
      9662      3221  TIP3      H1             -1.4026996295       28.8038128873      -14.0143630134  W2        3221            0.0000000000
      9663      3221  TIP3      H2             -1.0852196295       29.4125928873      -12.6651230134  W2        3221            0.0000000000
      9664      3222  TIP3      OH2            12.4941803705       30.1963028873       -6.4128030134  W2        3222            0.0000000000
      9665      3222  TIP3      H1             11.5525503705       30.2546928873       -6.2511130134  W2        3222            0.0000000000
      9666      3222  TIP3      H2             12.7707903705       31.1023528873       -6.5498330134  W2        3222            0.0000000000
      9667      3223  TIP3      OH2            12.7948803705       18.4828328873       -4.9954130134  W2        3223            0.0000000000
      9668      3223  TIP3      H1             12.0588003705       19.0935428873       -5.0332830134  W2        3223            0.0000000000
      9669      3223  TIP3      H2             13.4782803705       18.8977328873       -5.5217730134  W2        3223            0.0000000000
      9670      3224  TIP3      OH2             5.7980203705       16.5695628873       -7.5296130134  W2        3224            0.0000000000
      9671      3224  TIP3      H1              5.6804403705       15.6211628873       -7.5837830134  W2        3224            0.0000000000
      9672      3224  TIP3      H2              4.9430303705       16.9021728873       -7.2565030134  W2        3224            0.0000000000
      9673      3225  TIP3      OH2            10.7463003705       31.9776528873       -9.7876430134  W2        3225            0.0000000000
      9674      3225  TIP3      H1             11.1715303705       31.2704428873      -10.2726830134  W2        3225            0.0000000000
      9675      3225  TIP3      H2             11.0633003705       32.7789228873      -10.2044230134  W2        3225            0.0000000000
      9676      3226  TIP3      OH2            11.9059503705       29.8785028873      -11.2789830134  W2        3226            0.0000000000
      9677      3226  TIP3      H1             11.6484303705       29.1885128873      -11.8903930134  W2        3226            0.0000000000
      9678      3226  TIP3      H2             11.9770303705       29.4356228873      -10.4333930134  W2        3226            0.0000000000
      9679      3227  TIP3      OH2            13.5919703705       28.4451728873       -2.8016330134  W2        3227            0.0000000000
      9680      3227  TIP3      H1             13.7316003705       27.8534228873       -3.5409330134  W2        3227            0.0000000000
      9681      3227  TIP3      H2             13.7592503705       29.3177628873       -3.1577530134  W2        3227            0.0000000000
      9682      3228  TIP3      OH2             8.0645103705       25.4071228873      -13.0290330134  W2        3228            0.0000000000
      9683      3228  TIP3      H1              7.3530603705       25.9420928873      -13.3809830134  W2        3228            0.0000000000
      9684      3228  TIP3      H2              8.7554703705       25.4623328873      -13.6891430134  W2        3228            0.0000000000
      9685      3229  TIP3      OH2             8.1184303705       23.8645528873      -15.9905330134  W2        3229            0.0000000000
      9686      3229  TIP3      H1              8.8194203705       23.8872428873      -15.3391330134  W2        3229            0.0000000000
      9687      3229  TIP3      H2              8.4207203705       23.2365228873      -16.6466030134  W2        3229            0.0000000000
      9688      3230  TIP3      OH2            15.4339003705       24.7849728873       -4.7355930134  W2        3230            0.0000000000
      9689      3230  TIP3      H1             14.7813103705       25.4795328873       -4.6465030134  W2        3230            0.0000000000
      9690      3230  TIP3      H2             15.8989303705       24.9950628873       -5.5454330134  W2        3230            0.0000000000
      9691      3231  TIP3      OH2            11.4702803705       25.6164528873      -12.0774430134  W2        3231            0.0000000000
      9692      3231  TIP3      H1             10.7383803705       25.8448228873      -11.5043830134  W2        3231            0.0000000000
      9693      3231  TIP3      H2             11.9175003705       24.9027228873      -11.6226930134  W2        3231            0.0000000000
      9694      3232  TIP3      OH2            11.3676303705       23.7907128873       -3.0097430134  W2        3232            0.0000000000
      9695      3232  TIP3      H1             11.4475403705       24.5541528873       -2.4378930134  W2        3232            0.0000000000
      9696      3232  TIP3      H2             10.7664003705       24.0699528873       -3.7002330134  W2        3232            0.0000000000
      9697      3233  TIP3      OH2             3.1156503705       26.2470728873      -10.1949430134  W2        3233            0.0000000000
      9698      3233  TIP3      H1              2.7851703705       25.8764128873      -11.0132430134  W2        3233            0.0000000000
      9699      3233  TIP3      H2              3.7040603705       25.5764728873       -9.8481130134  W2        3233            0.0000000000
      9700      3234  TIP3      OH2             4.4824003705       29.6751328873       -7.5137230134  W2        3234            0.0000000000
      9701      3234  TIP3      H1              4.3875303705       29.0964428873       -8.2702630134  W2        3234            0.0000000000
      9702      3234  TIP3      H2              5.2117603705       29.3037028873       -7.0174430134  W2        3234            0.0000000000
      9703      3235  TIP3      OH2             3.4822003705       25.0156328873       -6.5614430134  W2        3235            0.0000000000
      9704      3235  TIP3      H1              4.0474503705       25.1370528873       -7.3243230134  W2        3235            0.0000000000
      9705      3235  TIP3      H2              3.8010903705       25.6531328873       -5.9225930134  W2        3235            0.0000000000
      9706      3236  TIP3      OH2             9.7914203705       30.5188228873       -5.8273930134  W2        3236            0.0000000000
      9707      3236  TIP3      H1              9.5510803705       31.1811328873       -5.1794730134  W2        3236            0.0000000000
      9708      3236  TIP3      H2              9.5932403705       29.6843428873       -5.4024330134  W2        3236            0.0000000000
      9709      3237  TIP3      OH2             4.3622703705       29.4149028873       -1.8442530134  W2        3237            0.0000000000
      9710      3237  TIP3      H1              4.0510203705       30.1972228873       -1.3889330134  W2        3237            0.0000000000
      9711      3237  TIP3      H2              3.7122903705       29.2618128873       -2.5300530134  W2        3237            0.0000000000
      9712      3238  TIP3      OH2            10.3412303705       24.7787428873      -14.3923230134  W2        3238            0.0000000000
      9713      3238  TIP3      H1             10.9207803705       24.9287728873      -13.6454330134  W2        3238            0.0000000000
      9714      3238  TIP3      H2             10.7552303705       25.2494828873      -15.1156830134  W2        3238            0.0000000000
      9715      3239  TIP3      OH2             1.2822603705       25.6130128873       -2.6156830134  W2        3239            0.0000000000
      9716      3239  TIP3      H1              1.3525803705       26.2636928873       -1.9171830134  W2        3239            0.0000000000
      9717      3239  TIP3      H2              0.3914803705       25.7157628873       -2.9505930134  W2        3239            0.0000000000
      9718      3240  TIP3      OH2             8.0677203705       31.5155928873      -10.9570130134  W2        3240            0.0000000000
      9719      3240  TIP3      H1              8.5414803705       31.8112228873      -10.1795930134  W2        3240            0.0000000000
      9720      3240  TIP3      H2              7.5046503705       32.2537528873      -11.1900530134  W2        3240            0.0000000000
      9721      3241  TIP3      OH2             2.6018603705       31.4864028873       -1.0808730134  W2        3241            0.0000000000
      9722      3241  TIP3      H1              2.6093903705       31.3503728873       -2.0283230134  W2        3241            0.0000000000
      9723      3241  TIP3      H2              1.6859003705       31.3692128873       -0.8288730134  W2        3241            0.0000000000
      9724      3242  TIP3      OH2            14.0400703705       16.5287828873      -14.5793530134  W2        3242            0.0000000000
      9725      3242  TIP3      H1             13.1401403705       16.6676828873      -14.2842930134  W2        3242            0.0000000000
      9726      3242  TIP3      H2             14.2919103705       17.3602428873      -14.9811830134  W2        3242            0.0000000000
      9727      3243  TIP3      OH2             2.1059203705       25.3165028873      -12.6056630134  W2        3243            0.0000000000
      9728      3243  TIP3      H1              1.8140503705       26.0846728873      -13.0965330134  W2        3243            0.0000000000
      9729      3243  TIP3      H2              1.4314403705       24.6571228873      -12.7685230134  W2        3243            0.0000000000
      9730      3244  TIP3      OH2            15.2292103705       30.8950228873      -16.2029630134  W2        3244            0.0000000000
      9731      3244  TIP3      H1             15.3025603705       31.8340428873      -16.0324330134  W2        3244            0.0000000000
      9732      3244  TIP3      H2             16.1347203705       30.5898828873      -16.2592330134  W2        3244            0.0000000000
      9733      3245  TIP3      OH2            -1.8010696295       27.6794228873       -3.7906830134  W2        3245            0.0000000000
      9734      3245  TIP3      H1             -2.3022296295       27.6513628873       -4.6057130134  W2        3245            0.0000000000
      9735      3245  TIP3      H2             -1.7956996295       26.7737428873       -3.4809530134  W2        3245            0.0000000000
      9736      3246  TIP3      OH2            -2.0507996295       30.4598028873       -6.9066630134  W2        3246            0.0000000000
      9737      3246  TIP3      H1             -1.1047396295       30.3155028873       -6.9257130134  W2        3246            0.0000000000
      9738      3246  TIP3      H2             -2.1631696295       31.2440828873       -6.3695430134  W2        3246            0.0000000000
      9739      3247  TIP3      OH2            16.1470503705       31.1257728873       -1.2242930134  W2        3247            0.0000000000
      9740      3247  TIP3      H1             16.0977303705       30.1705828873       -1.2615330134  W2        3247            0.0000000000
      9741      3247  TIP3      H2             15.3202803705       31.3933028873       -0.8229130134  W2        3247            0.0000000000
      9742      3248  TIP3      OH2             7.1254503705       30.6996928873       -2.3481530134  W2        3248            0.0000000000
      9743      3248  TIP3      H1              7.2129103705       31.5261528873       -1.8732430134  W2        3248            0.0000000000
      9744      3248  TIP3      H2              6.2619603705       30.3700728873       -2.0992230134  W2        3248            0.0000000000
      9745      3249  TIP3      OH2             7.5400303705       34.4720628873      -12.5420930134  W2        3249            0.0000000000
      9746      3249  TIP3      H1              7.4646303705       34.3507828873      -13.4885730134  W2        3249            0.0000000000
      9747      3249  TIP3      H2              7.5729003705       35.4213328873      -12.4236330134  W2        3249            0.0000000000
      9748      3250  TIP3      OH2             1.1934103705       33.2607628873      -10.7611930134  W2        3250            0.0000000000
      9749      3250  TIP3      H1              1.3454503705       32.9128028873       -9.8825430134  W2        3250            0.0000000000
      9750      3250  TIP3      H2              0.3424503705       32.9044928873      -11.0164730134  W2        3250            0.0000000000
      9751      3251  TIP3      OH2            10.6416303705       33.6260828873      -15.5398530134  W2        3251            0.0000000000
      9752      3251  TIP3      H1             11.0164703705       32.8816928873      -16.0105930134  W2        3251            0.0000000000
      9753      3251  TIP3      H2             10.6460003705       33.3561428873      -14.6215230134  W2        3251            0.0000000000
      9754      3252  TIP3      OH2            10.3104403705       33.5517928873      -12.7906330134  W2        3252            0.0000000000
      9755      3252  TIP3      H1              9.3754203705       33.6519828873      -12.6119330134  W2        3252            0.0000000000
      9756      3252  TIP3      H2             10.5906303705       32.8423928873      -12.2123130134  W2        3252            0.0000000000
      9757      3253  TIP3      OH2            13.2990303705       22.6190228873       -0.7440730134  W2        3253            0.0000000000
      9758      3253  TIP3      H1             12.8917103705       23.0995828873       -1.4647430134  W2        3253            0.0000000000
      9759      3253  TIP3      H2             13.3396003705       21.7136228873       -1.0519930134  W2        3253            0.0000000000
      9760      3254  TIP3      OH2             0.4479803705       29.0029628873       -2.7474030134  W2        3254            0.0000000000
      9761      3254  TIP3      H1              0.6641103705       28.6415228873       -1.8878230134  W2        3254            0.0000000000
      9762      3254  TIP3      H2             -0.4075496295       28.6283428873       -2.9570530134  W2        3254            0.0000000000
      9763      3255  TIP3      OH2             3.0667803705       17.4730128873       -6.7519830134  W2        3255            0.0000000000
      9764      3255  TIP3      H1              2.2051503705       17.3858328873       -7.1596930134  W2        3255            0.0000000000
      9765      3255  TIP3      H2              3.0443503705       18.3290228873       -6.3242230134  W2        3255            0.0000000000
      9766      3256  TIP3      OH2             7.7295603705       17.1950528873       -3.3772830134  W2        3256            0.0000000000
      9767      3256  TIP3      H1              8.1498703705       16.7797628873       -2.6242230134  W2        3256            0.0000000000
      9768      3256  TIP3      H2              6.7965203705       17.0163828873       -3.2600830134  W2        3256            0.0000000000
      9769      3257  TIP3      OH2            11.0560503705       20.9505728873       -2.5238330134  W2        3257            0.0000000000
      9770      3257  TIP3      H1             10.5420003705       20.8247928873       -1.7262330134  W2        3257            0.0000000000
      9771      3257  TIP3      H2             10.9005203705       21.8628828873       -2.7682130134  W2        3257            0.0000000000
      9772      3258  TIP3      OH2            11.8185403705       25.8115728873      -16.7625330134  W2        3258            0.0000000000
      9773      3258  TIP3      H1             11.8606203705       25.5889628873      -17.6925330134  W2        3258            0.0000000000
      9774      3258  TIP3      H2             12.6677503705       26.2102828873      -16.5725430134  W2        3258            0.0000000000
      9775      3259  TIP3      OH2             7.3912903705       19.6873928873      -16.0922030134  W2        3259            0.0000000000
      9776      3259  TIP3      H1              7.1377703705       19.7065528873      -15.1693930134  W2        3259            0.0000000000
      9777      3259  TIP3      H2              7.1345003705       18.8159328873      -16.3935830134  W2        3259            0.0000000000
      9778      3260  TIP3      OH2             3.1577903705       22.4384628873       -5.6569630134  W2        3260            0.0000000000
      9779      3260  TIP3      H1              2.5160003705       22.3981928873       -4.9479530134  W2        3260            0.0000000000
      9780      3260  TIP3      H2              3.1949903705       23.3649328873       -5.8946630134  W2        3260            0.0000000000
      9781      3261  TIP3      OH2             3.1547003705       22.6594728873      -10.7449630134  W2        3261            0.0000000000
      9782      3261  TIP3      H1              2.2619903705       22.3190828873      -10.8035830134  W2        3261            0.0000000000
      9783      3261  TIP3      H2              3.6053603705       22.2825628873      -11.5006430134  W2        3261            0.0000000000
      9784      3262  TIP3      OH2             8.6902503705       23.0755028873      -11.9278830134  W2        3262            0.0000000000
      9785      3262  TIP3      H1              8.2812803705       23.8903628873      -12.2194030134  W2        3262            0.0000000000
      9786      3262  TIP3      H2              9.4108703705       22.9355128873      -12.5421730134  W2        3262            0.0000000000
      9787      3263  TIP3      OH2             7.7924103705       23.2511428873       -0.4398130134  W2        3263            0.0000000000
      9788      3263  TIP3      H1              7.2297903705       22.5463028873       -0.1190330134  W2        3263            0.0000000000
      9789      3263  TIP3      H2              8.6187503705       23.1303328873        0.0279469866  W2        3263            0.0000000000
      9790      3264  TIP3      OH2             9.6950203705       22.5215428873       -9.1139130134  W2        3264            0.0000000000
      9791      3264  TIP3      H1              9.4994703705       23.1272228873       -9.8288530134  W2        3264            0.0000000000
      9792      3264  TIP3      H2              9.8762803705       21.6880628873       -9.5482830134  W2        3264            0.0000000000
      9793      3265  TIP3      OH2             0.9078403705       22.7588128873       -3.7897630134  W2        3265            0.0000000000
      9794      3265  TIP3      H1              0.8697803705       23.1589728873       -2.9210530134  W2        3265            0.0000000000
      9795      3265  TIP3      H2              0.4169503705       21.9420528873       -3.6994730134  W2        3265            0.0000000000
      9796      3266  TIP3      OH2             4.2735803705       20.1330428873      -16.9911630134  W2        3266            0.0000000000
      9797      3266  TIP3      H1              3.8426503705       19.6880528873      -16.2614230134  W2        3266            0.0000000000
      9798      3266  TIP3      H2              3.5554503705       20.5046728873      -17.5034130134  W2        3266            0.0000000000
      9799      3267  TIP3      OH2            -2.4840796295       19.8749928873       -9.9392930134  W2        3267            0.0000000000
      9800      3267  TIP3      H1             -1.8533096295       19.8462028873       -9.2199030134  W2        3267            0.0000000000
      9801      3267  TIP3      H2             -2.0346496295       19.4498628873      -10.6697030134  W2        3267            0.0000000000
      9802      3268  TIP3      OH2            -1.2098696295       20.6211928873      -14.5152530134  W2        3268            0.0000000000
      9803      3268  TIP3      H1             -0.7356996295       21.2121828873      -15.1001630134  W2        3268            0.0000000000
      9804      3268  TIP3      H2             -1.9272296295       21.1514828873      -14.1682430134  W2        3268            0.0000000000
      9805      3269  TIP3      OH2             8.9589403705       24.1596728873       -4.4426730134  W2        3269            0.0000000000
      9806      3269  TIP3      H1              9.2824203705       23.5286428873       -5.0856230134  W2        3269            0.0000000000
      9807      3269  TIP3      H2              8.5188703705       23.6248928873       -3.7819330134  W2        3269            0.0000000000
      9808      3270  TIP3      OH2             5.7362303705       20.0872228873       -9.6585530134  W2        3270            0.0000000000
      9809      3270  TIP3      H1              4.8253403705       20.1439028873       -9.3699530134  W2        3270            0.0000000000
      9810      3270  TIP3      H2              6.2415203705       20.0267728873       -8.8478330134  W2        3270            0.0000000000
      9811      3271  TIP3      OH2             0.5645703705       21.7158528873      -10.8317930134  W2        3271            0.0000000000
      9812      3271  TIP3      H1             -0.3246296295       21.8154028873      -11.1718330134  W2        3271            0.0000000000
      9813      3271  TIP3      H2              0.8610603705       20.8741528873      -11.1780030134  W2        3271            0.0000000000
      9814      3272  TIP3      OH2             4.2177503705       21.7161128873      -13.1753330134  W2        3272            0.0000000000
      9815      3272  TIP3      H1              5.1493003705       21.8451128873      -12.9970230134  W2        3272            0.0000000000
      9816      3272  TIP3      H2              4.0027803705       22.3855428873      -13.8248630134  W2        3272            0.0000000000
      9817      3273  TIP3      OH2            10.1414203705       19.3218528873       -6.3943730134  W2        3273            0.0000000000
      9818      3273  TIP3      H1              9.4645803705       19.4531628873       -5.7304030134  W2        3273            0.0000000000
      9819      3273  TIP3      H2              9.6559103705       19.1668028873       -7.2046030134  W2        3273            0.0000000000
      9820      3274  TIP3      OH2             2.8917703705       22.9103328873      -15.6087230134  W2        3274            0.0000000000
      9821      3274  TIP3      H1              2.3492803705       22.5307128873      -16.2999630134  W2        3274            0.0000000000
      9822      3274  TIP3      H2              3.7252603705       23.1048028873      -16.0373130134  W2        3274            0.0000000000
      9823      3275  TIP3      OH2            13.4289303705       34.9933928873       -0.1176130134  W2        3275            0.0000000000
      9824      3275  TIP3      H1             13.6288003705       35.4175828873       -0.9520830134  W2        3275            0.0000000000
      9825      3275  TIP3      H2             14.0843003705       35.3372128873        0.4894269866  W2        3275            0.0000000000
      9826      3276  TIP3      OH2             1.0269103705       27.4675228873       -0.5095630134  W2        3276            0.0000000000
      9827      3276  TIP3      H1              1.7591503705       27.7221128873        0.0518869866  W2        3276            0.0000000000
      9828      3276  TIP3      H2              0.2467803705       27.6720628873        0.0059769866  W2        3276            0.0000000000
      9829      3277  TIP3      OH2             7.0562003705       22.8745228873       -7.7715930134  W2        3277            0.0000000000
      9830      3277  TIP3      H1              7.6205403705       22.3281828873       -8.3186330134  W2        3277            0.0000000000
      9831      3277  TIP3      H2              6.9085403705       22.3527128873       -6.9828330134  W2        3277            0.0000000000
      9832      3278  TIP3      OH2             2.0581703705       19.0111328873      -11.3531130134  W2        3278            0.0000000000
      9833      3278  TIP3      H1              1.7411203705       18.1086628873      -11.3885730134  W2        3278            0.0000000000
      9834      3278  TIP3      H2              2.8395803705       19.0128728873      -11.9059530134  W2        3278            0.0000000000
      9835      3279  TIP3      OH2             5.6827903705       21.2631328873       -5.3575530134  W2        3279            0.0000000000
      9836      3279  TIP3      H1              4.8473203705       21.7170828873       -5.2473130134  W2        3279            0.0000000000
      9837      3279  TIP3      H2              6.2068503705       21.5389828873       -4.6055630134  W2        3279            0.0000000000
      9838      3280  TIP3      OH2             6.2270503705       27.4759028873      -13.6729130134  W2        3280            0.0000000000
      9839      3280  TIP3      H1              5.4821503705       26.9684328873      -13.9951230134  W2        3280            0.0000000000
      9840      3280  TIP3      H2              6.0927703705       27.5247028873      -12.7264330134  W2        3280            0.0000000000
      9841      3281  TIP3      OH2            13.3769403705       26.6087228873       -4.8861530134  W2        3281            0.0000000000
      9842      3281  TIP3      H1             14.0188203705       27.0653528873       -5.4299330134  W2        3281            0.0000000000
      9843      3281  TIP3      H2             12.5466303705       26.7219628873       -5.3487430134  W2        3281            0.0000000000
      9844      3282  TIP3      OH2            10.1247303705       20.2898928873      -15.4736530134  W2        3282            0.0000000000
      9845      3282  TIP3      H1              9.1861503705       20.4014528873      -15.6247730134  W2        3282            0.0000000000
      9846      3282  TIP3      H2             10.4219403705       21.1465828873      -15.1670830134  W2        3282            0.0000000000
      9847      3283  TIP3      OH2             7.7462603705       27.6602328873       -2.4360030134  W2        3283            0.0000000000
      9848      3283  TIP3      H1              7.4008703705       27.2784728873       -1.6290430134  W2        3283            0.0000000000
      9849      3283  TIP3      H2              7.5462703705       28.5935928873       -2.3647130134  W2        3283            0.0000000000
      9850      3284  TIP3      OH2            10.8430803705       22.1571628873      -13.8129130134  W2        3284            0.0000000000
      9851      3284  TIP3      H1             11.7349803705       22.0196628873      -13.4937930134  W2        3284            0.0000000000
      9852      3284  TIP3      H2             10.8994403705       22.9477728873      -14.3495630134  W2        3284            0.0000000000
      9853      3285  TIP3      OH2             1.3518803705       26.7709028873       -7.9031230134  W2        3285            0.0000000000
      9854      3285  TIP3      H1              2.0966003705       26.7684728873       -8.5044730134  W2        3285            0.0000000000
      9855      3285  TIP3      H2              1.4295403705       25.9472828873       -7.4216130134  W2        3285            0.0000000000
      9856      3286  TIP3      OH2             8.3524603705       28.9343328873      -14.6474530134  W2        3286            0.0000000000
      9857      3286  TIP3      H1              8.0573003705       29.7611228873      -14.2659730134  W2        3286            0.0000000000
      9858      3286  TIP3      H2              7.6494603705       28.3150228873      -14.4513130134  W2        3286            0.0000000000
      9859      3287  TIP3      OH2            -1.6401496295       25.2315928873       -2.5882730134  W2        3287            0.0000000000
      9860      3287  TIP3      H1             -1.4172896295       24.8135528873       -1.7565230134  W2        3287            0.0000000000
      9861      3287  TIP3      H2             -2.2421396295       24.6190928873       -3.0109930134  W2        3287            0.0000000000
      9862      3288  TIP3      OH2             5.3763403705       24.7485828873       -0.3753030134  W2        3288            0.0000000000
      9863      3288  TIP3      H1              5.0804203705       24.5828828873       -1.2703930134  W2        3288            0.0000000000
      9864      3288  TIP3      H2              6.3078603705       24.5286128873       -0.3859130134  W2        3288            0.0000000000
      9865      3289  TIP3      OH2             9.9966203705       30.1217828873       -2.4855030134  W2        3289            0.0000000000
      9866      3289  TIP3      H1              9.0960503705       30.3050428873       -2.7531130134  W2        3289            0.0000000000
      9867      3289  TIP3      H2             10.0307303705       30.3807128873       -1.5646230134  W2        3289            0.0000000000
      9868      3290  TIP3      OH2            15.7279503705       22.3665728873      -14.1182430134  W2        3290            0.0000000000
      9869      3290  TIP3      H1             15.1735803705       21.9703728873      -14.7904930134  W2        3290            0.0000000000
      9870      3290  TIP3      H2             15.8283103705       23.2770928873      -14.3959130134  W2        3290            0.0000000000
      9871      3291  TIP3      OH2            15.6911503705       28.1667428873       -1.2810930134  W2        3291            0.0000000000
      9872      3291  TIP3      H1             14.8400003705       28.4051228873       -1.6484530134  W2        3291            0.0000000000
      9873      3291  TIP3      H2             16.2814903705       28.1500628873       -2.0343830134  W2        3291            0.0000000000
      9874      3292  TIP3      OH2            14.0231203705       31.1526128873      -13.6530330134  W2        3292            0.0000000000
      9875      3292  TIP3      H1             13.6502303705       30.3269928873      -13.3439730134  W2        3292            0.0000000000
      9876      3292  TIP3      H2             14.3004703705       30.9695528873      -14.5506930134  W2        3292            0.0000000000
      9877      3293  TIP3      OH2            11.1835103705       25.9605628873       -6.6318430134  W2        3293            0.0000000000
      9878      3293  TIP3      H1             10.2552003705       25.7287528873       -6.6589130134  W2        3293            0.0000000000
      9879      3293  TIP3      H2             11.6346203705       25.1835428873       -6.9619630134  W2        3293            0.0000000000
      9880      3294  TIP3      OH2             3.7268203705       30.2887228873      -10.4989730134  W2        3294            0.0000000000
      9881      3294  TIP3      H1              4.2540403705       31.0621628873      -10.6990930134  W2        3294            0.0000000000
      9882      3294  TIP3      H2              2.8466703705       30.5136428873      -10.8005730134  W2        3294            0.0000000000
      9883      3295  TIP3      OH2            -0.5184096295       25.1511328873      -15.9117330134  W2        3295            0.0000000000
      9884      3295  TIP3      H1              0.0975803705       25.7778528873      -15.5322530134  W2        3295            0.0000000000
      9885      3295  TIP3      H2             -1.3801496295       25.4671128873      -15.6400830134  W2        3295            0.0000000000
      9886      3296  TIP3      OH2             5.1540503705       27.9517128873      -10.9225430134  W2        3296            0.0000000000
      9887      3296  TIP3      H1              4.9130503705       28.8771528873      -10.8810130134  W2        3296            0.0000000000
      9888      3296  TIP3      H2              4.4134103705       27.4928428873      -10.5261530134  W2        3296            0.0000000000
      9889      3297  TIP3      OH2             5.6687103705       32.1010728873       -4.6074330134  W2        3297            0.0000000000
      9890      3297  TIP3      H1              6.0311803705       32.9556328873       -4.8409930134  W2        3297            0.0000000000
      9891      3297  TIP3      H2              6.2002303705       31.8092328873       -3.8668030134  W2        3297            0.0000000000
      9892      3298  TIP3      OH2             3.8371303705       32.9734728873      -11.3773230134  W2        3298            0.0000000000
      9893      3298  TIP3      H1              2.8871803705       33.0792128873      -11.3259930134  W2        3298            0.0000000000
      9894      3298  TIP3      H2              4.1889403705       33.7942128873      -11.0325730134  W2        3298            0.0000000000
      9895      3299  TIP3      OH2             9.2127903705       28.2001428873       -4.9068730134  W2        3299            0.0000000000
      9896      3299  TIP3      H1              8.7869203705       27.9723128873       -4.0804730134  W2        3299            0.0000000000
      9897      3299  TIP3      H2              9.7933703705       27.4613228873       -5.0893430134  W2        3299            0.0000000000
      9898      3300  TIP3      OH2            11.4156803705       29.1291928873      -15.8329730134  W2        3300            0.0000000000
      9899      3300  TIP3      H1             11.7689903705       28.7491728873      -15.0286230134  W2        3300            0.0000000000
      9900      3300  TIP3      H2             10.4670303705       29.0356728873      -15.7460430134  W2        3300            0.0000000000
      9901      3301  TIP3      OH2            11.8712103705       32.7520928873       -2.4373930134  W2        3301            0.0000000000
      9902      3301  TIP3      H1             11.2695303705       32.1963828873       -2.9327630134  W2        3301            0.0000000000
      9903      3301  TIP3      H2             12.1525803705       33.4190728873       -3.0636530134  W2        3301            0.0000000000
      9904      3302  TIP3      OH2            15.9191203705       33.6084428873      -15.6319530134  W2        3302            0.0000000000
      9905      3302  TIP3      H1             16.6629103705       34.1944928873      -15.7717930134  W2        3302            0.0000000000
      9906      3302  TIP3      H2             15.2249303705       34.1770228873      -15.2987130134  W2        3302            0.0000000000
      9907      3303  TIP3      OH2            -0.0061996295       19.9848628873       -3.0301330134  W2        3303            0.0000000000
      9908      3303  TIP3      H1             -0.8989696295       20.3234028873       -3.0977330134  W2        3303            0.0000000000
      9909      3303  TIP3      H2             -0.1049196295       19.1294728873       -2.6120530134  W2        3303            0.0000000000
      9910      3304  TIP3      OH2            12.2816103705       27.8013928873      -13.6061830134  W2        3304            0.0000000000
      9911      3304  TIP3      H1             12.0043703705       27.0733228873      -13.0500730134  W2        3304            0.0000000000
      9912      3304  TIP3      H2             13.2089103705       27.9205928873      -13.4009230134  W2        3304            0.0000000000
      9913      3305  TIP3      OH2            -0.3549996295       31.7893028873       -4.5951930134  W2        3305            0.0000000000
      9914      3305  TIP3      H1             -0.1379696295       30.8575428873       -4.6262230134  W2        3305            0.0000000000
      9915      3305  TIP3      H2             -0.1086496295       32.0638028873       -3.7119130134  W2        3305            0.0000000000
      9916      3306  TIP3      OH2             5.5064603705       30.2408028873      -17.3859730134  W2        3306            0.0000000000
      9917      3306  TIP3      H1              5.7454403705       29.4926128873      -17.9330830134  W2        3306            0.0000000000
      9918      3306  TIP3      H2              5.2375903705       29.8529728873      -16.5531930134  W2        3306            0.0000000000
      9919      3307  TIP3      OH2             4.4435203705       29.8111828873      -14.9297130134  W2        3307            0.0000000000
      9920      3307  TIP3      H1              4.5903203705       29.2911628873      -14.1396230134  W2        3307            0.0000000000
      9921      3307  TIP3      H2              4.4406903705       30.7179428873      -14.6231230134  W2        3307            0.0000000000
      9922      3308  TIP3      OH2             0.8966303705       27.0635128873      -14.4191730134  W2        3308            0.0000000000
      9923      3308  TIP3      H1              0.2105603705       27.4157628873      -13.8522030134  W2        3308            0.0000000000
      9924      3308  TIP3      H2              1.4194203705       27.8264728873      -14.6657430134  W2        3308            0.0000000000
      9925      3309  TIP3      OH2             8.7281403705       19.7258928873       -4.1402730134  W2        3309            0.0000000000
      9926      3309  TIP3      H1              9.4269303705       19.7997628873       -3.4903030134  W2        3309            0.0000000000
      9927      3309  TIP3      H2              8.3472803705       18.8613928873       -3.9859830134  W2        3309            0.0000000000
      9928      3310  TIP3      OH2             9.5126303705       19.3780628873      -13.0430430134  W2        3310            0.0000000000
      9929      3310  TIP3      H1              9.7324603705       19.8496028873      -13.8465030134  W2        3310            0.0000000000
      9930      3310  TIP3      H2             10.0710303705       19.7723228873      -12.3729830134  W2        3310            0.0000000000
      9931      3311  TIP3      OH2             7.1812403705       31.5085428873      -14.1802930134  W2        3311            0.0000000000
      9932      3311  TIP3      H1              6.3648503705       32.0055128873      -14.1278630134  W2        3311            0.0000000000
      9933      3311  TIP3      H2              7.7108703705       31.9838928873      -14.8204130134  W2        3311            0.0000000000
      9934      3312  TIP3      OH2             6.7126203705       21.1059428873      -12.2082030134  W2        3312            0.0000000000
      9935      3312  TIP3      H1              7.5248803705       21.6102628873      -12.1620330134  W2        3312            0.0000000000
      9936      3312  TIP3      H2              6.4679203705       20.9609128873      -11.2942430134  W2        3312            0.0000000000
      9937      3313  TIP3      OH2             7.2482603705       22.0922128873       -3.0235430134  W2        3313            0.0000000000
      9938      3313  TIP3      H1              7.3672903705       22.6657528873       -2.2665030134  W2        3313            0.0000000000
      9939      3313  TIP3      H2              7.9037203705       21.4041528873       -2.9087630134  W2        3313            0.0000000000
      9940      3314  TIP3      OH2             7.5962903705       18.1872428873      -11.2700930134  W2        3314            0.0000000000
      9941      3314  TIP3      H1              7.2496403705       18.8043028873      -10.6256630134  W2        3314            0.0000000000
      9942      3314  TIP3      H2              8.2549803705       18.6878128873      -11.7515430134  W2        3314            0.0000000000
      9943      3315  TIP3      OH2             4.5195503705       32.5522628873      -14.1986030134  W2        3315            0.0000000000
      9944      3315  TIP3      H1              4.6804203705       33.3520128873      -14.6993430134  W2        3315            0.0000000000
      9945      3315  TIP3      H2              4.3223303705       32.8588628873      -13.3135430134  W2        3315            0.0000000000
      9946      3316  TIP3      OH2             3.2539903705       19.2501828873      -14.5828430134  W2        3316            0.0000000000
      9947      3316  TIP3      H1              3.1704703705       20.1384928873      -14.2362030134  W2        3316            0.0000000000
      9948      3316  TIP3      H2              4.1440203705       18.9848528873      -14.3511630134  W2        3316            0.0000000000
      9949      3317  TIP3      OH2            13.4528403705       19.9992428873       -2.1885730134  W2        3317            0.0000000000
      9950      3317  TIP3      H1             12.5364203705       20.2614128873       -2.2762030134  W2        3317            0.0000000000
      9951      3317  TIP3      H2             13.7883403705       19.9961428873       -3.0850430134  W2        3317            0.0000000000
      9952      3318  TIP3      OH2            12.0549403705       23.7493428873       -8.0928430134  W2        3318            0.0000000000
      9953      3318  TIP3      H1             11.2573803705       23.3343628873       -8.4213430134  W2        3318            0.0000000000
      9954      3318  TIP3      H2             12.5000503705       23.0587128873       -7.6017930134  W2        3318            0.0000000000
      9955      3319  TIP3      OH2             1.5125203705       29.6774028873      -15.5223930134  W2        3319            0.0000000000
      9956      3319  TIP3      H1              2.1046703705       30.3768828873      -15.2461530134  W2        3319            0.0000000000
      9957      3319  TIP3      H2              1.9718203705       29.2443528873      -16.2419330134  W2        3319            0.0000000000
      9958      3320  TIP3      OH2            -0.1715596295       22.3417028873      -16.4064530134  W2        3320            0.0000000000
      9959      3320  TIP3      H1             -0.2162996295       23.2810128873      -16.2277530134  W2        3320            0.0000000000
      9960      3320  TIP3      H2             -1.0592396295       22.1061928873      -16.6762430134  W2        3320            0.0000000000
      9961      3321  TIP3      OH2            13.1414003705       33.0055928873       -6.4704930134  W2        3321            0.0000000000
      9962      3321  TIP3      H1             12.9858303705       33.6840328873       -7.1275630134  W2        3321            0.0000000000
      9963      3321  TIP3      H2             14.0740403705       33.0775228873       -6.2674330134  W2        3321            0.0000000000
      9964      3322  TIP3      OH2             0.6366403705       17.1233628873       -7.7333530134  W2        3322            0.0000000000
      9965      3322  TIP3      H1              0.4076203705       17.1826128873       -8.6608530134  W2        3322            0.0000000000
      9966      3322  TIP3      H2              0.1939803705       16.3319128873       -7.4269430134  W2        3322            0.0000000000
      9967      3323  TIP3      OH2            -0.4330296295       31.0640728873      -11.5727730134  W2        3323            0.0000000000
      9968      3323  TIP3      H1             -1.2651696295       31.5363428873      -11.5456330134  W2        3323            0.0000000000
      9969      3323  TIP3      H2              0.1128003705       31.5738328873      -12.1714630134  W2        3323            0.0000000000
      9970      3324  TIP3      OH2            -1.1446596295       33.6764428873       -0.2429730134  W2        3324            0.0000000000
      9971      3324  TIP3      H1             -0.6044396295       33.4598428873        0.5169469866  W2        3324            0.0000000000
      9972      3324  TIP3      H2             -1.6258596295       32.8710428873       -0.4327230134  W2        3324            0.0000000000
      9973      3325  TIP3      OH2             3.4526803705       32.5958828873        1.3774469866  W2        3325            0.0000000000
      9974      3325  TIP3      H1              4.2204003705       32.1369628873        1.7183669866  W2        3325            0.0000000000
      9975      3325  TIP3      H2              3.4313003705       32.3698628873        0.4475669866  W2        3325            0.0000000000
      9976      3326  TIP3      OH2             7.5446403705       32.1039428873      -17.2473730134  W2        3326            0.0000000000
      9977      3326  TIP3      H1              6.9007403705       31.4728028873      -16.9260030134  W2        3326            0.0000000000
      9978      3326  TIP3      H2              8.3064703705       31.5727428873      -17.4790230134  W2        3326            0.0000000000
      9979      3327  TIP3      OH2            10.0295503705       30.9759928873        0.1065969866  W2        3327            0.0000000000
      9980      3327  TIP3      H1              9.6785003705       30.1192928873        0.3496369866  W2        3327            0.0000000000
      9981      3327  TIP3      H2             10.7558703705       31.1186628873        0.7134969866  W2        3327            0.0000000000
      9982      3328  TIP3      OH2            12.1489303705       31.9209328873      -17.0135730134  W2        3328            0.0000000000
      9983      3328  TIP3      H1             12.4319703705       31.1264528873      -16.5608830134  W2        3328            0.0000000000
      9984      3328  TIP3      H2             12.8887203705       32.1540328873      -17.5744630134  W2        3328            0.0000000000
      9985      3329  TIP3      OH2            -1.2377096295       27.4868528873        0.7114569866  W2        3329            0.0000000000
      9986      3329  TIP3      H1             -1.0936596295       26.5849228873        0.4251269866  W2        3329            0.0000000000
      9987      3329  TIP3      H2             -2.0099696295       27.7730628873        0.2236869866  W2        3329            0.0000000000
      9988      3330  TIP3      OH2             3.1036603705       27.8304228873      -17.1560830134  W2        3330            0.0000000000
      9989      3330  TIP3      H1              3.1680703705       27.0363828873      -16.6254430134  W2        3330            0.0000000000
      9990      3330  TIP3      H2              3.7565803705       27.7117028873      -17.8458830134  W2        3330            0.0000000000
      9991      3331  TIP3      OH2             5.4179003705       27.4566628873        0.1440969866  W2        3331            0.0000000000
      9992      3331  TIP3      H1              5.0892803705       27.7274728873       -0.7131630134  W2        3331            0.0000000000
      9993      3331  TIP3      H2              5.5697203705       26.5156428873        0.0565969866  W2        3331            0.0000000000
      9994      3332  TIP3      OH2             8.4560003705       28.8775928873      -17.4202830134  W2        3332            0.0000000000
      9995      3332  TIP3      H1              8.1874103705       29.0578028873      -16.5193930134  W2        3332            0.0000000000
      9996      3332  TIP3      H2              8.2495603705       27.9522128873      -17.5517030134  W2        3332            0.0000000000
      9997      3333  TIP3      OH2            11.1524203705       27.3723928873       -2.4726730134  W2        3333            0.0000000000
      9998      3333  TIP3      H1             11.8979003705       27.9607628873       -2.5922730134  W2        3333            0.0000000000
      9999      3333  TIP3      H2             10.3951003705       27.9543628873       -2.4093630134  W2        3333            0.0000000000
     10000      3334  TIP3      OH2            -0.4050596295       24.6871828873        0.1313869866  W2        3334            0.0000000000
     10001      3334  TIP3      H1              0.0030603705       23.8298428873        0.0104469866  W2        3334            0.0000000000
     10002      3334  TIP3      H2             -0.6652996295       24.7013128873        1.0524169866  W2        3334            0.0000000000
     10003      3335  TIP3      OH2             4.2530403705       25.8030428873      -14.8502830134  W2        3335            0.0000000000
     10004      3335  TIP3      H1              3.7932403705       25.3188728873      -14.1644330134  W2        3335            0.0000000000
     10005      3335  TIP3      H2              4.5079103705       25.1345828873      -15.4862330134  W2        3335            0.0000000000
     10006      3336  TIP3      OH2             3.5419703705       23.6957528873       -2.4943230134  W2        3336            0.0000000000
     10007      3336  TIP3      H1              2.9235803705       24.3704128873       -2.2138530134  W2        3336            0.0000000000
     10008      3336  TIP3      H2              3.8860903705       24.0171428873       -3.3277030134  W2        3336            0.0000000000
     10009      3337  TIP3      OH2             5.3240803705       24.0462228873      -16.5879630134  W2        3337            0.0000000000
     10010      3337  TIP3      H1              5.1435803705       23.8913428873      -17.5151330134  W2        3337            0.0000000000
     10011      3337  TIP3      H2              6.2741303705       24.1540928873      -16.5431730134  W2        3337            0.0000000000
     10012      3338  TIP3      OH2             8.5617903705       26.1672828873        0.7831569866  W2        3338            0.0000000000
     10013      3338  TIP3      H1              9.5149103705       26.2511928873        0.7557569866  W2        3338            0.0000000000
     10014      3338  TIP3      H2              8.4012503705       25.4554628873        1.4026469866  W2        3338            0.0000000000
     10015      3339  TIP3      OH2            14.7139103705       26.4006428873      -17.1421530134  W2        3339            0.0000000000
     10016      3339  TIP3      H1             14.4403903705       25.9761928873      -17.9553230134  W2        3339            0.0000000000
     10017      3339  TIP3      H2             14.7533203705       27.3320928873      -17.3591130134  W2        3339            0.0000000000
     10018      3340  TIP3      OH2             3.8813403705       21.0508328873       -1.4120130134  W2        3340            0.0000000000
     10019      3340  TIP3      H1              4.0314303705       20.3219628873       -2.0140430134  W2        3340            0.0000000000
     10020      3340  TIP3      H2              3.8835803705       21.8280028873       -1.9707930134  W2        3340            0.0000000000
     10021      3341  TIP3      OH2             4.2939103705       19.4204128873       -3.9192730134  W2        3341            0.0000000000
     10022      3341  TIP3      H1              4.8296603705       19.8720828873       -4.5713430134  W2        3341            0.0000000000
     10023      3341  TIP3      H2              3.4418703705       19.3123928873       -4.3418630134  W2        3341            0.0000000000
     10024      3342  TIP3      OH2             5.8757503705       24.8600328873       -3.6797530134  W2        3342            0.0000000000
     10025      3342  TIP3      H1              6.6262303705       24.7037828873       -4.2529730134  W2        3342            0.0000000000
     10026      3342  TIP3      H2              5.5365803705       25.7116928873       -3.9552030134  W2        3342            0.0000000000
     10027      3343  TIP3      OH2            10.2913703705       22.6752128873        1.3487769866  W2        3343            0.0000000000
     10028      3343  TIP3      H1             10.4835003705       21.7441528873        1.2372269866  W2        3343            0.0000000000
     10029      3343  TIP3      H2             11.1490003705       23.1001628873        1.3383169866  W2        3343            0.0000000000
     10030      3344  TIP3      OH2            11.6080903705       25.4637328873       -0.5739530134  W2        3344            0.0000000000
     10031      3344  TIP3      H1             11.3265903705       26.1731928873       -1.1515730134  W2        3344            0.0000000000
     10032      3344  TIP3      H2             12.5505203705       25.3910328873       -0.7248330134  W2        3344            0.0000000000
     10033      3345  TIP3      OH2             2.3599703705       22.2491828873        0.4995469866  W2        3345            0.0000000000
     10034      3345  TIP3      H1              1.5928703705       21.7166628873        0.2893069866  W2        3345            0.0000000000
     10035      3345  TIP3      H2              3.0388703705       21.9392228873       -0.0998230134  W2        3345            0.0000000000
     10036      3346  TIP3      OH2             5.0994603705       16.8769828873       -3.4879130134  W2        3346            0.0000000000
     10037      3346  TIP3      H1              5.0014203705       17.8233028873       -3.5932930134  W2        3346            0.0000000000
     10038      3346  TIP3      H2              4.3570803705       16.5043628873       -3.9635630134  W2        3346            0.0000000000
     10039      3347  TIP3      OH2             6.3635103705       21.1985228873        0.0759269866  W2        3347            0.0000000000
     10040      3347  TIP3      H1              6.1280503705       20.9791928873        0.9774169866  W2        3347            0.0000000000
     10041      3347  TIP3      H2              5.5802003705       20.9916428873       -0.4338230134  W2        3347            0.0000000000
     10042      3348  TIP3      OH2             9.0791703705       20.3258728873       -0.8487230134  W2        3348            0.0000000000
     10043      3348  TIP3      H1              8.1317103705       20.3578428873       -0.7163930134  W2        3348            0.0000000000
     10044      3348  TIP3      H2              9.3918403705       19.7005828873       -0.1949030134  W2        3348            0.0000000000
     10045      3349  TIP3      OH2            10.7133203705       18.9599828873        1.1564669866  W2        3349            0.0000000000
     10046      3349  TIP3      H1             10.6165003705       18.0077128873        1.1506569866  W2        3349            0.0000000000
     10047      3349  TIP3      H2             10.3916303705       19.2286628873        2.0170169866  W2        3349            0.0000000000
     10048      3350  TIP3      OH2             0.5402503705       20.1695628873        0.2040169866  W2        3350            0.0000000000
     10049      3350  TIP3      H1              0.7519903705       19.4631728873       -0.4062330134  W2        3350            0.0000000000
     10050      3350  TIP3      H2              0.4290003705       19.7321628873        1.0481369866  W2        3350            0.0000000000
     10051      3351  TIP3      OH2             5.3212703705       16.1707228873       -0.8166330134  W2        3351            0.0000000000
     10052      3351  TIP3      H1              6.0331103705       15.5309428873       -0.8307230134  W2        3351            0.0000000000
     10053      3351  TIP3      H2              5.2203103705       16.4375528873       -1.7303230134  W2        3351            0.0000000000
     10054      3352  TIP3      OH2             5.6750203705       17.8535628873        1.2369969866  W2        3352            0.0000000000
     10055      3352  TIP3      H1              5.5432403705       17.3779428873        0.4168469866  W2        3352            0.0000000000
     10056      3352  TIP3      H2              5.0757603705       18.5979228873        1.1817069866  W2        3352            0.0000000000
     10057      3353  TIP3      OH2             5.2212503705       34.7365928873      -15.5866030134  W2        3353            0.0000000000
     10058      3353  TIP3      H1              6.1543203705       34.8944628873      -15.4427630134  W2        3353            0.0000000000
     10059      3353  TIP3      H2              4.9571303705       35.4118928873      -16.2114530134  W2        3353            0.0000000000
     10060      3354  TIP3      OH2            -1.2102596295       29.3729728873      -16.1037930134  W2        3354            0.0000000000
     10061      3354  TIP3      H1             -0.2963396295       29.4518628873      -15.8304030134  W2        3354            0.0000000000
     10062      3354  TIP3      H2             -1.2029496295       28.6859328873      -16.7702330134  W2        3354            0.0000000000
     10063      3355  TIP3      OH2            -2.5611996295       34.7658228873      -11.0264030134  W2        3355            0.0000000000
     10064      3355  TIP3      H1             -3.2084896295       34.3039928873      -11.5592830134  W2        3355            0.0000000000
     10065      3355  TIP3      H2             -2.2067396295       34.0941528873      -10.4437830134  W2        3355            0.0000000000
     10066      3356  TIP3      OH2            -1.6912796295       32.8465228873       -9.2217830134  W2        3356            0.0000000000
     10067      3356  TIP3      H1             -2.0255996295       31.9662528873       -9.0497630134  W2        3356            0.0000000000
     10068      3356  TIP3      H2             -1.4690396295       33.1920228873       -8.3572230134  W2        3356            0.0000000000
     10069      3357  TIP3      OH2            15.8572003705       33.6561628873       -6.2413030134  W2        3357            0.0000000000
     10070      3357  TIP3      H1             15.8358703705       33.8410028873       -5.3023630134  W2        3357            0.0000000000
     10071      3357  TIP3      H2             16.5478203705       34.2245628873       -6.5821630134  W2        3357            0.0000000000
     10072      3358  TIP3      OH2            15.4204903705       33.2232728873       -3.3193930134  W2        3358            0.0000000000
     10073      3358  TIP3      H1             14.9333603705       32.4876828873       -3.6906530134  W2        3358            0.0000000000
     10074      3358  TIP3      H2             15.9697603705       32.8296628873       -2.6414530134  W2        3358            0.0000000000
     10075      3359  TIP3      OH2            13.8712203705       29.0130828873        1.3186369866  W2        3359            0.0000000000
     10076      3359  TIP3      H1             13.0053303705       28.9080528873        1.7128669866  W2        3359            0.0000000000
     10077      3359  TIP3      H2             14.2478103705       29.7714128873        1.7651069866  W2        3359            0.0000000000
     10078      3360  TIP3      OH2            15.1721903705       27.2694528873      -13.1671130134  W2        3360            0.0000000000
     10079      3360  TIP3      H1             16.0223303705       27.6905428873      -13.0399530134  W2        3360            0.0000000000
     10080      3360  TIP3      H2             15.1777003705       26.5294628873      -12.5599730134  W2        3360            0.0000000000
     10081      3361  TIP3      OH2            15.5667503705       25.3231928873      -11.3435430134  W2        3361            0.0000000000
     10082      3361  TIP3      H1             14.8402103705       24.8434528873      -10.9457830134  W2        3361            0.0000000000
     10083      3361  TIP3      H2             16.1480803705       25.5286628873      -10.6113830134  W2        3361            0.0000000000
     10084      3362  TIP3      OH2            15.3258703705       28.1079428873       -6.3957830134  W2        3362            0.0000000000
     10085      3362  TIP3      H1             16.1592903705       27.7299428873       -6.6764230134  W2        3362            0.0000000000
     10086      3362  TIP3      H2             15.4379003705       29.0510628873       -6.5148730134  W2        3362            0.0000000000
     10087      3363  TIP3      OH2            13.8121003705       30.9856928873       -4.0889430134  W2        3363            0.0000000000
     10088      3363  TIP3      H1             13.1646303705       31.3108428873       -3.4634230134  W2        3363            0.0000000000
     10089      3363  TIP3      H2             13.2945003705       30.5454628873       -4.7631130134  W2        3363            0.0000000000
     10090      3364  TIP3      OH2            15.8350603705       25.2240428873      -14.9524130134  W2        3364            0.0000000000
     10091      3364  TIP3      H1             15.3131703705       25.5804528873      -15.6713230134  W2        3364            0.0000000000
     10092      3364  TIP3      H2             15.8019803705       25.8988228873      -14.2743230134  W2        3364            0.0000000000
     10093      3365  TIP3      OH2            14.1839603705       22.4636028873      -16.4017030134  W2        3365            0.0000000000
     10094      3365  TIP3      H1             14.2804003705       23.1303028873      -17.0817330134  W2        3365            0.0000000000
     10095      3365  TIP3      H2             14.0439203705       21.6482328873      -16.8831530134  W2        3365            0.0000000000
     10096      3366  TIP3      OH2            13.3534303705       23.8438428873      -10.7806730134  W2        3366            0.0000000000
     10097      3366  TIP3      H1             13.2033103705       22.8987028873      -10.8008930134  W2        3366            0.0000000000
     10098      3366  TIP3      H2             12.9998803705       24.1249828873       -9.9367630134  W2        3366            0.0000000000
     10099      3367  TIP3      OH2            -1.6113296295       25.9220628873       -6.7702930134  W2        3367            0.0000000000
     10100      3367  TIP3      H1             -1.4270396295       25.8402328873       -7.7060030134  W2        3367            0.0000000000
     10101      3367  TIP3      H2             -0.7620396295       25.7977628873       -6.3466530134  W2        3367            0.0000000000
     10102      3368  TIP3      OH2            14.2097203705       25.8141728873       -1.1418430134  W2        3368            0.0000000000
     10103      3368  TIP3      H1             14.7924503705       25.0794028873       -0.9501230134  W2        3368            0.0000000000
     10104      3368  TIP3      H2             14.7736503705       26.5862028873       -1.0952630134  W2        3368            0.0000000000
     10105      3369  TIP3      OH2            15.7064303705       23.7167528873       -0.4573030134  W2        3369            0.0000000000
     10106      3369  TIP3      H1             14.8431003705       23.3379628873       -0.6228330134  W2        3369            0.0000000000
     10107      3369  TIP3      H2             16.3108003705       22.9782328873       -0.5317230134  W2        3369            0.0000000000
     10108      3370  TIP3      OH2            13.4313403705       19.8715828873      -17.2841530134  W2        3370            0.0000000000
     10109      3370  TIP3      H1             14.0419203705       19.5002628873      -16.6473330134  W2        3370            0.0000000000
     10110      3370  TIP3      H2             12.5944903705       19.4502728873      -17.0881530134  W2        3370            0.0000000000
     10111      3371  TIP3      OH2            13.0639103705       21.4264228873      -12.3181630134  W2        3371            0.0000000000
     10112      3371  TIP3      H1             13.3436203705       20.5194628873      -12.1939930134  W2        3371            0.0000000000
     10113      3371  TIP3      H2             13.8230803705       21.8605728873      -12.7072430134  W2        3371            0.0000000000
     10114      3372  TIP3      OH2            13.6757403705       22.0081628873       -6.8822730134  W2        3372            0.0000000000
     10115      3372  TIP3      H1             14.6085403705       22.2201528873       -6.9166730134  W2        3372            0.0000000000
     10116      3372  TIP3      H2             13.4404903705       22.1093728873       -5.9599730134  W2        3372            0.0000000000
     10117      3373  TIP3      OH2            13.7049303705       22.7446928873       -4.1063330134  W2        3373            0.0000000000
     10118      3373  TIP3      H1             12.8620603705       23.0127328873       -3.7403530134  W2        3373            0.0000000000
     10119      3373  TIP3      H2             14.1473603705       23.5668828873       -4.3172230134  W2        3373            0.0000000000
     10120      3374  TIP3      OH2            -2.0138496295       21.1925628873       -0.6294130134  W2        3374            0.0000000000
     10121      3374  TIP3      H1             -1.0943596295       21.0703928873       -0.3931030134  W2        3374            0.0000000000
     10122      3374  TIP3      H2             -2.4633996295       20.4425328873       -0.2400630134  W2        3374            0.0000000000
     10123      3375  TIP3      OH2            15.9880903705       16.7247128873        1.2471669866  W2        3375            0.0000000000
     10124      3375  TIP3      H1             16.3377903705       16.0710628873        0.6416369866  W2        3375            0.0000000000
     10125      3375  TIP3      H2             16.1350403705       17.5621228873        0.8074269866  W2        3375            0.0000000000
     10126      3376  TIP3      OH2            13.6773903705       18.6893528873      -12.2699630134  W2        3376            0.0000000000
     10127      3376  TIP3      H1             13.8598903705       18.2405028873      -11.4444630134  W2        3376            0.0000000000
     10128      3376  TIP3      H2             13.0776803705       18.1047928873      -12.7335030134  W2        3376            0.0000000000
     10129      3377  TIP3      OH2            -0.7925996295       19.5047228873       -7.7381230134  W2        3377            0.0000000000
     10130      3377  TIP3      H1             -0.3474396295       18.7129728873       -7.4361530134  W2        3377            0.0000000000
     10131      3377  TIP3      H2             -0.3262996295       20.2212428873       -7.3075630134  W2        3377            0.0000000000
     10132      3378  TIP3      OH2            -2.4885696295       22.5040228873       -6.6691030134  W2        3378            0.0000000000
     10133      3378  TIP3      H1             -1.9965896295       22.2830728873       -7.4599030134  W2        3378            0.0000000000
     10134      3378  TIP3      H2             -2.1264796295       23.3443628873       -6.3881530134  W2        3378            0.0000000000
     10135      3379  TIP3      OH2            15.5078103705       18.8341728873       -0.4037030134  W2        3379            0.0000000000
     10136      3379  TIP3      H1             14.5903803705       19.1048828873       -0.4393530134  W2        3379            0.0000000000
     10137      3379  TIP3      H2             15.6307503705       18.2990128873       -1.1877330134  W2        3379            0.0000000000
     10138      3380  TIP3      OH2            15.5440103705       18.7571628873      -15.7419330134  W2        3380            0.0000000000
     10139      3380  TIP3      H1             15.9562703705       18.0357328873      -16.2171330134  W2        3380            0.0000000000
     10140      3380  TIP3      H2             16.2256603705       19.4266228873      -15.6835030134  W2        3380            0.0000000000
     10141      3381  TIP3      OH2            -2.1749196295       18.7619328873      -12.6148630134  W2        3381            0.0000000000
     10142      3381  TIP3      H1             -3.1000796295       18.9705928873      -12.7443130134  W2        3381            0.0000000000
     10143      3381  TIP3      H2             -1.7209296295       19.2460128873      -13.3046330134  W2        3381            0.0000000000
     10144      3382  TIP3      OH2            12.5958003705       33.7461028873      -10.6691230134  W2        3382            0.0000000000
     10145      3382  TIP3      H1             13.2480903705       33.3983128873      -11.2772130134  W2        3382            0.0000000000
     10146      3382  TIP3      H2             13.1061803705       34.2344228873      -10.0231530134  W2        3382            0.0000000000
     10147      3383  TIP3      OH2            -2.2113796295       17.4998328873       -4.2706130134  W2        3383            0.0000000000
     10148      3383  TIP3      H1             -2.8763296295       17.2538628873       -3.6275230134  W2        3383            0.0000000000
     10149      3383  TIP3      H2             -2.6542496295       18.1218728873       -4.8478130134  W2        3383            0.0000000000
     10150      3384  TIP3      OH2            -0.0194496295       30.6752428873       -0.1260330134  W2        3384            0.0000000000
     10151      3384  TIP3      H1             -0.8401996295       30.8498928873       -0.5865630134  W2        3384            0.0000000000
     10152      3384  TIP3      H2             -0.2716696295       30.6017128873        0.7944069866  W2        3384            0.0000000000
     10153      3385  TIP3      OH2             2.9348403705       31.6493628873       -3.8676330134  W2        3385            0.0000000000
     10154      3385  TIP3      H1              2.5099503705       32.4592128873       -4.1501730134  W2        3385            0.0000000000
     10155      3385  TIP3      H2              3.8391203705       31.7347728873       -4.1696530134  W2        3385            0.0000000000
     10156      3386  TIP3      OH2             7.2459803705       33.0483628873       -0.9082630134  W2        3386            0.0000000000
     10157      3386  TIP3      H1              7.4307303705       32.7149728873       -0.0302330134  W2        3386            0.0000000000
     10158      3386  TIP3      H2              8.0924303705       33.3582228873       -1.2303430134  W2        3386            0.0000000000
     10159      3387  TIP3      OH2             9.5910203705       34.3342528873       -1.6641230134  W2        3387            0.0000000000
     10160      3387  TIP3      H1             10.2679103705       33.7014828873       -1.9042030134  W2        3387            0.0000000000
     10161      3387  TIP3      H2              9.9129003705       34.7353028873       -0.8567930134  W2        3387            0.0000000000
     10162      3388  TIP3      OH2            14.5084003705       16.9238028873       -2.5846230134  W2        3388            0.0000000000
     10163      3388  TIP3      H1             13.6957503705       17.2488328873       -2.9721530134  W2        3388            0.0000000000
     10164      3388  TIP3      H2             14.7412503705       16.1636528873       -3.1177130134  W2        3388            0.0000000000
     10165      3389  TIP3      OH2             0.3365103705       34.9057528873       -3.8201030134  W2        3389            0.0000000000
     10166      3389  TIP3      H1             -0.3838496295       35.3458528873       -4.2713330134  W2        3389            0.0000000000
     10167      3389  TIP3      H2             -0.0290896295       34.6552228873       -2.9717030134  W2        3389            0.0000000000
     10168      3390  TIP3      OH2             2.8037703705       34.5061428873       -4.7903830134  W2        3390            0.0000000000
     10169      3390  TIP3      H1              1.9389903705       34.5779928873       -4.3863730134  W2        3390            0.0000000000
     10170      3390  TIP3      H2              2.7486703705       35.0528728873       -5.5741330134  W2        3390            0.0000000000
     10171      3391  TIP3      OH2             7.5143303705       34.3940328873       -5.6147830134  W2        3391            0.0000000000
     10172      3391  TIP3      H1              7.0577303705       34.9230028873       -6.2689430134  W2        3391            0.0000000000
     10173      3391  TIP3      H2              7.6771303705       34.9971728873       -4.8895530134  W2        3391            0.0000000000
     10174      3392  TIP3      OH2             9.8419603705       33.2719928873       -4.6697530134  W2        3392            0.0000000000
     10175      3392  TIP3      H1              8.9373303705       33.4370128873       -4.9355430134  W2        3392            0.0000000000
     10176      3392  TIP3      H2             10.2708203705       34.1252128873       -4.7354130134  W2        3392            0.0000000000
     10177      3393  TIP3      OH2            12.4461503705       34.8419028873       -4.3749730134  W2        3393            0.0000000000
     10178      3393  TIP3      H1             12.2643503705       35.7577928873       -4.5854830134  W2        3393            0.0000000000
     10179      3393  TIP3      H2             12.6229303705       34.4316128873       -5.2215130134  W2        3393            0.0000000000
     10180      3394  TIP3      OH2            -0.2486796295       33.5290028873       -6.9099230134  W2        3394            0.0000000000
     10181      3394  TIP3      H1             -0.2670796295       33.1035128873       -6.0526930134  W2        3394            0.0000000000
     10182      3394  TIP3      H2              0.5561103705       33.2105028873       -7.3187030134  W2        3394            0.0000000000
     10183      3395  TIP3      OH2             1.8926303705       32.2388728873       -8.2549330134  W2        3395            0.0000000000
     10184      3395  TIP3      H1              1.6737003705       31.3226128873       -8.0853330134  W2        3395            0.0000000000
     10185      3395  TIP3      H2              2.7168503705       32.3789128873       -7.7887930134  W2        3395            0.0000000000
     10186      3396  TIP3      OH2             4.4298803705       32.7088028873       -7.4061330134  W2        3396            0.0000000000
     10187      3396  TIP3      H1              4.6424503705       31.8207028873       -7.6930430134  W2        3396            0.0000000000
     10188      3396  TIP3      H2              4.4943903705       32.6745728873       -6.4517330134  W2        3396            0.0000000000
     10189      3397  TIP3      OH2             7.9382503705       18.3728628873       -8.2618030134  W2        3397            0.0000000000
     10190      3397  TIP3      H1              7.2639303705       17.7434228873       -8.0062230134  W2        3397            0.0000000000
     10191      3397  TIP3      H2              8.5021703705       17.8887528873       -8.8650130134  W2        3397            0.0000000000
     10192      3398  TIP3      OH2            13.0809703705       16.4802628873       -8.1490930134  W2        3398            0.0000000000
     10193      3398  TIP3      H1             13.6847303705       17.0278028873       -8.6509930134  W2        3398            0.0000000000
     10194      3398  TIP3      H2             12.2111703705       16.7993028873       -8.3896830134  W2        3398            0.0000000000
     10195      3399  TIP3      OH2            14.8080103705       17.6191328873       -9.8160030134  W2        3399            0.0000000000
     10196      3399  TIP3      H1             15.4197603705       17.1047028873      -10.3426430134  W2        3399            0.0000000000
     10197      3399  TIP3      H2             15.1903503705       18.4963428873       -9.7925630134  W2        3399            0.0000000000
     10198      3400  TIP3      OH2             0.2650003705       17.0068928873      -10.4398130134  W2        3400            0.0000000000
     10199      3400  TIP3      H1             -0.5120196295       16.7723828873      -10.9472230134  W2        3400            0.0000000000
     10200      3400  TIP3      H2              0.7953603705       16.2101028873      -10.4310130134  W2        3400            0.0000000000
     10201      3401  TIP3      OH2            -0.8986596295       16.8047028873      -14.6362030134  W2        3401            0.0000000000
     10202      3401  TIP3      H1             -0.4595896295       17.4157528873      -15.2278530134  W2        3401            0.0000000000
     10203      3401  TIP3      H2             -1.5324196295       17.3431128873      -14.1622030134  W2        3401            0.0000000000
     10204      3402  TIP3      OH2             4.8442603705       16.9336028873      -10.6265030134  W2        3402            0.0000000000
     10205      3402  TIP3      H1              5.7186003705       17.3220328873      -10.6560730134  W2        3402            0.0000000000
     10206      3402  TIP3      H2              4.7083403705       16.7183828873       -9.7037830134  W2        3402            0.0000000000
     10207      3403  TIP3      OH2            10.4011003705       16.9635828873       -8.9773330134  W2        3403            0.0000000000
     10208      3403  TIP3      H1             10.4772603705       17.0587428873       -9.9267330134  W2        3403            0.0000000000
     10209      3403  TIP3      H2             10.1260203705       16.0558728873       -8.8484230134  W2        3403            0.0000000000
     10210      3404  TIP3      OH2            11.7543603705       16.9893628873      -13.2848330134  W2        3404            0.0000000000
     10211      3404  TIP3      H1             11.0514703705       17.6042828873      -13.4946930134  W2        3404            0.0000000000
     10212      3404  TIP3      H2             11.3095003705       16.1520328873      -13.1537430134  W2        3404            0.0000000000
     10213      3405  TIP3      OH2            -0.9977096295       32.7529228873      -13.7386930134  W2        3405            0.0000000000
     10214      3405  TIP3      H1             -1.6827196295       32.7148128873      -14.4061830134  W2        3405            0.0000000000
     10215      3405  TIP3      H2             -0.9939896295       33.6656828873      -13.4504830134  W2        3405            0.0000000000
     10216      3406  TIP3      OH2             0.9622503705       18.7208528873      -16.1937930134  W2        3406            0.0000000000
     10217      3406  TIP3      H1              1.4535903705       18.0910928873      -16.7212430134  W2        3406            0.0000000000
     10218      3406  TIP3      H2              1.5858803705       19.0167928873      -15.5306730134  W2        3406            0.0000000000
     10219      3407  TIP3      OH2             5.9882603705       19.0140028873      -13.7367430134  W2        3407            0.0000000000
     10220      3407  TIP3      H1              6.1663903705       18.3673228873      -13.0538830134  W2        3407            0.0000000000
     10221      3407  TIP3      H2              5.9348803705       19.8477728873      -13.2696330134  W2        3407            0.0000000000
     10222      3408  TIP3      OH2             7.8666403705       33.9624128873      -15.3410730134  W2        3408            0.0000000000
     10223      3408  TIP3      H1              8.7326603705       34.3291528873      -15.5192530134  W2        3408            0.0000000000
     10224      3408  TIP3      H2              7.6199203705       33.5232128873      -16.1549930134  W2        3408            0.0000000000
     10225      3409  TIP3      OH2            14.5756003705       33.5254428873      -12.6619630134  W2        3409            0.0000000000
     10226      3409  TIP3      H1             14.3813103705       32.7776528873      -13.2270030134  W2        3409            0.0000000000
     10227      3409  TIP3      H2             14.5366103705       34.2834528873      -13.2451730134  W2        3409            0.0000000000
     10228      3410  TIP3      OH2             0.2228003705       17.5210828873       -0.9221930134  W2        3410            0.0000000000
     10229      3410  TIP3      H1             -0.1433796295       16.7553428873       -0.4797230134  W2        3410            0.0000000000
     10230      3410  TIP3      H2              1.1356503705       17.5501028873       -0.6356830134  W2        3410            0.0000000000
     10231      3411  TIP3      OH2             2.1958803705       16.8715228873        0.6135169866  W2        3411            0.0000000000
     10232      3411  TIP3      H1              3.0942403705       16.5975428873        0.4288569866  W2        3411            0.0000000000
     10233      3411  TIP3      H2              1.8091903705       16.1291228873        1.0777769866  W2        3411            0.0000000000
     10234      3412  TIP3      OH2             0.8204103705       33.6730028873      -16.7134830134  W2        3412            0.0000000000
     10235      3412  TIP3      H1              0.5528703705       33.9592928873      -15.8401730134  W2        3412            0.0000000000
     10236      3412  TIP3      H2              1.5916703705       33.1269228873      -16.5612330134  W2        3412            0.0000000000
     10237      3413  TIP3      OH2            10.6171103705       16.2040528873        0.7957969866  W2        3413            0.0000000000
     10238      3413  TIP3      H1             10.6938303705       15.7781228873        1.6495669866  W2        3413            0.0000000000
     10239      3413  TIP3      H2             11.5107703705       16.2175228873        0.4531469866  W2        3413            0.0000000000
     10240      3414  TIP3      OH2            13.7932203705       32.2766828873       -0.5117830134  W2        3414            0.0000000000
     10241      3414  TIP3      H1             13.0114103705       32.0904828873       -1.0317230134  W2        3414            0.0000000000
     10242      3414  TIP3      H2             13.7212103705       33.2061128873       -0.2945330134  W2        3414            0.0000000000
     10243      3415  TIP3      OH2            28.1992603705       26.1631228873      -10.4810630134  W2        3415            0.0000000000
     10244      3415  TIP3      H1             28.2883703705       27.1069428873      -10.6133530134  W2        3415            0.0000000000
     10245      3415  TIP3      H2             27.5610203705       25.8877628873      -11.1391230134  W2        3415            0.0000000000
     10246      3416  TIP3      OH2            27.1323903705       25.4181928873       -7.0622430134  W2        3416            0.0000000000
     10247      3416  TIP3      H1             27.0941403705       24.7718228873       -6.3572830134  W2        3416            0.0000000000
     10248      3416  TIP3      H2             26.8100403705       24.9516328873       -7.8333730134  W2        3416            0.0000000000
     10249      3417  TIP3      OH2            19.5008903705       25.0324028873       -5.4692530134  W2        3417            0.0000000000
     10250      3417  TIP3      H1             19.5421003705       24.4067328873       -4.7460130134  W2        3417            0.0000000000
     10251      3417  TIP3      H2             20.2036603705       25.6562628873       -5.2872130134  W2        3417            0.0000000000
     10252      3418  TIP3      OH2            30.8384103705       28.3572328873       -8.7607330134  W2        3418            0.0000000000
     10253      3418  TIP3      H1             30.3976803705       27.6368328873       -8.3101730134  W2        3418            0.0000000000
     10254      3418  TIP3      H2             30.8253803705       29.0779528873       -8.1309630134  W2        3418            0.0000000000
     10255      3419  TIP3      OH2            20.4242003705       29.4822928873       -6.9343430134  W2        3419            0.0000000000
     10256      3419  TIP3      H1             20.0547203705       28.6803428873       -7.3039130134  W2        3419            0.0000000000
     10257      3419  TIP3      H2             21.3653103705       29.3137828873       -6.8880030134  W2        3419            0.0000000000
     10258      3420  TIP3      OH2            17.0342503705       23.1425528873      -11.5414630134  W2        3420            0.0000000000
     10259      3420  TIP3      H1             16.5865903705       23.9884228873      -11.5598130134  W2        3420            0.0000000000
     10260      3420  TIP3      H2             16.4733703705       22.5629728873      -12.0569530134  W2        3420            0.0000000000
     10261      3421  TIP3      OH2            17.7448603705       25.3045128873       -9.4156630134  W2        3421            0.0000000000
     10262      3421  TIP3      H1             17.9582103705       24.5346728873       -8.8883630134  W2        3421            0.0000000000
     10263      3421  TIP3      H2             18.4826203705       25.3941828873      -10.0189030134  W2        3421            0.0000000000
     10264      3422  TIP3      OH2            27.9499603705       33.4614028873       -8.5486930134  W2        3422            0.0000000000
     10265      3422  TIP3      H1             28.5696003705       32.7848728873       -8.8217730134  W2        3422            0.0000000000
     10266      3422  TIP3      H2             27.7417003705       33.2434828873       -7.6402030134  W2        3422            0.0000000000
     10267      3423  TIP3      OH2            25.5218303705       27.8503328873       -6.6561430134  W2        3423            0.0000000000
     10268      3423  TIP3      H1             25.8256203705       27.1644728873       -7.2507330134  W2        3423            0.0000000000
     10269      3423  TIP3      H2             26.2432303705       27.9692028873       -6.0383430134  W2        3423            0.0000000000
     10270      3424  TIP3      OH2            34.1848103705       19.4518628873       -5.7955230134  W2        3424            0.0000000000
     10271      3424  TIP3      H1             34.2340303705       20.0619828873       -5.0596130134  W2        3424            0.0000000000
     10272      3424  TIP3      H2             34.6103203705       19.9129528873       -6.5184130134  W2        3424            0.0000000000
     10273      3425  TIP3      OH2            28.6625303705       22.2445728873       -6.3286630134  W2        3425            0.0000000000
     10274      3425  TIP3      H1             28.8051203705       21.2982728873       -6.3085030134  W2        3425            0.0000000000
     10275      3425  TIP3      H2             28.5564303705       22.4515528873       -7.2571730134  W2        3425            0.0000000000
     10276      3426  TIP3      OH2            21.8173603705       20.3462128873       -9.0561830134  W2        3426            0.0000000000
     10277      3426  TIP3      H1             21.8604703705       21.2060628873       -9.4745530134  W2        3426            0.0000000000
     10278      3426  TIP3      H2             21.3597703705       19.7936828873       -9.6898630134  W2        3426            0.0000000000
     10279      3427  TIP3      OH2            29.5396303705       20.4767728873      -10.6553530134  W2        3427            0.0000000000
     10280      3427  TIP3      H1             30.1860603705       20.1480928873      -10.0305930134  W2        3427            0.0000000000
     10281      3427  TIP3      H2             30.0495703705       20.9946728873      -11.2782130134  W2        3427            0.0000000000
     10282      3428  TIP3      OH2            18.4375103705       22.7427928873       -8.2940430134  W2        3428            0.0000000000
     10283      3428  TIP3      H1             19.0911703705       22.1929628873       -7.8620330134  W2        3428            0.0000000000
     10284      3428  TIP3      H2             18.4614403705       22.4686928873       -9.2108430134  W2        3428            0.0000000000
     10285      3429  TIP3      OH2            23.5939603705       24.2929228873       -9.0788930134  W2        3429            0.0000000000
     10286      3429  TIP3      H1             24.2100603705       23.7664628873       -8.5694930134  W2        3429            0.0000000000
     10287      3429  TIP3      H2             23.0078403705       23.6527928873       -9.4825330134  W2        3429            0.0000000000
     10288      3430  TIP3      OH2            34.5762703705       20.9297828873       -3.5595430134  W2        3430            0.0000000000
     10289      3430  TIP3      H1             33.8877303705       21.5878528873       -3.6548830134  W2        3430            0.0000000000
     10290      3430  TIP3      H2             34.5917303705       20.7325728873       -2.6230030134  W2        3430            0.0000000000
     10291      3431  TIP3      OH2            20.6275503705       19.2640528873       -4.9821030134  W2        3431            0.0000000000
     10292      3431  TIP3      H1             20.4087203705       19.7941128873       -5.7485030134  W2        3431            0.0000000000
     10293      3431  TIP3      H2             19.9596403705       19.4906028873       -4.3349630134  W2        3431            0.0000000000
     10294      3432  TIP3      OH2            27.9965303705       28.7641628873      -11.4381930134  W2        3432            0.0000000000
     10295      3432  TIP3      H1             27.7010403705       28.4413928873      -12.2895030134  W2        3432            0.0000000000
     10296      3432  TIP3      H2             27.6723103705       29.6638328873      -11.3969330134  W2        3432            0.0000000000
     10297      3433  TIP3      OH2            23.1966903705       26.9396228873       -4.6947330134  W2        3433            0.0000000000
     10298      3433  TIP3      H1             22.4566003705       27.5377728873       -4.5912130134  W2        3433            0.0000000000
     10299      3433  TIP3      H2             23.9106403705       27.4935828873       -5.0103730134  W2        3433            0.0000000000
     10300      3434  TIP3      OH2            31.3034703705       19.7677028873       -8.6747630134  W2        3434            0.0000000000
     10301      3434  TIP3      H1             31.0882703705       19.0020428873       -8.1421630134  W2        3434            0.0000000000
     10302      3434  TIP3      H2             31.9592103705       20.2401628873       -8.1619130134  W2        3434            0.0000000000
     10303      3435  TIP3      OH2            20.2212803705       21.1562328873       -7.0298830134  W2        3435            0.0000000000
     10304      3435  TIP3      H1             20.8349103705       21.7889928873       -6.6566430134  W2        3435            0.0000000000
     10305      3435  TIP3      H2             20.7333503705       20.6837328873       -7.6861930134  W2        3435            0.0000000000
     10306      3436  TIP3      OH2            21.6041203705       28.9039228873       -3.9075830134  W2        3436            0.0000000000
     10307      3436  TIP3      H1             21.5988803705       29.7832728873       -4.2856530134  W2        3436            0.0000000000
     10308      3436  TIP3      H2             20.7505303705       28.8203328873       -3.4825930134  W2        3436            0.0000000000
     10309      3437  TIP3      OH2            17.7252103705       28.5747128873      -13.1256530134  W2        3437            0.0000000000
     10310      3437  TIP3      H1             17.4533003705       28.8038128873      -14.0143630134  W2        3437            0.0000000000
     10311      3437  TIP3      H2             17.7707803705       29.4125928873      -12.6651230134  W2        3437            0.0000000000
     10312      3438  TIP3      OH2            31.3501803705       30.1963028873       -6.4128030134  W2        3438            0.0000000000
     10313      3438  TIP3      H1             30.4085503705       30.2546928873       -6.2511130134  W2        3438            0.0000000000
     10314      3438  TIP3      H2             31.6267903705       31.1023528873       -6.5498330134  W2        3438            0.0000000000
     10315      3439  TIP3      OH2            31.6508803705       18.4828328873       -4.9954130134  W2        3439            0.0000000000
     10316      3439  TIP3      H1             30.9148003705       19.0935428873       -5.0332830134  W2        3439            0.0000000000
     10317      3439  TIP3      H2             32.3342803705       18.8977328873       -5.5217730134  W2        3439            0.0000000000
     10318      3440  TIP3      OH2            24.6540203705       16.5695628873       -7.5296130134  W2        3440            0.0000000000
     10319      3440  TIP3      H1             24.5364403705       15.6211628873       -7.5837830134  W2        3440            0.0000000000
     10320      3440  TIP3      H2             23.7990303705       16.9021728873       -7.2565030134  W2        3440            0.0000000000
     10321      3441  TIP3      OH2            29.6023003705       31.9776528873       -9.7876430134  W2        3441            0.0000000000
     10322      3441  TIP3      H1             30.0275303705       31.2704428873      -10.2726830134  W2        3441            0.0000000000
     10323      3441  TIP3      H2             29.9193003705       32.7789228873      -10.2044230134  W2        3441            0.0000000000
     10324      3442  TIP3      OH2            30.7619503705       29.8785028873      -11.2789830134  W2        3442            0.0000000000
     10325      3442  TIP3      H1             30.5044303705       29.1885128873      -11.8903930134  W2        3442            0.0000000000
     10326      3442  TIP3      H2             30.8330303705       29.4356228873      -10.4333930134  W2        3442            0.0000000000
     10327      3443  TIP3      OH2            32.4479703705       28.4451728873       -2.8016330134  W2        3443            0.0000000000
     10328      3443  TIP3      H1             32.5876003705       27.8534228873       -3.5409330134  W2        3443            0.0000000000
     10329      3443  TIP3      H2             32.6152503705       29.3177628873       -3.1577530134  W2        3443            0.0000000000
     10330      3444  TIP3      OH2            26.9205103705       25.4071228873      -13.0290330134  W2        3444            0.0000000000
     10331      3444  TIP3      H1             26.2090603705       25.9420928873      -13.3809830134  W2        3444            0.0000000000
     10332      3444  TIP3      H2             27.6114703705       25.4623328873      -13.6891430134  W2        3444            0.0000000000
     10333      3445  TIP3      OH2            26.9744303705       23.8645528873      -15.9905330134  W2        3445            0.0000000000
     10334      3445  TIP3      H1             27.6754203705       23.8872428873      -15.3391330134  W2        3445            0.0000000000
     10335      3445  TIP3      H2             27.2767203705       23.2365228873      -16.6466030134  W2        3445            0.0000000000
     10336      3446  TIP3      OH2            34.2899003705       24.7849728873       -4.7355930134  W2        3446            0.0000000000
     10337      3446  TIP3      H1             33.6373103705       25.4795328873       -4.6465030134  W2        3446            0.0000000000
     10338      3446  TIP3      H2             34.7549303705       24.9950628873       -5.5454330134  W2        3446            0.0000000000
     10339      3447  TIP3      OH2            30.3262803705       25.6164528873      -12.0774430134  W2        3447            0.0000000000
     10340      3447  TIP3      H1             29.5943803705       25.8448228873      -11.5043830134  W2        3447            0.0000000000
     10341      3447  TIP3      H2             30.7735003705       24.9027228873      -11.6226930134  W2        3447            0.0000000000
     10342      3448  TIP3      OH2            30.2236303705       23.7907128873       -3.0097430134  W2        3448            0.0000000000
     10343      3448  TIP3      H1             30.3035403705       24.5541528873       -2.4378930134  W2        3448            0.0000000000
     10344      3448  TIP3      H2             29.6224003705       24.0699528873       -3.7002330134  W2        3448            0.0000000000
     10345      3449  TIP3      OH2            21.9716503705       26.2470728873      -10.1949430134  W2        3449            0.0000000000
     10346      3449  TIP3      H1             21.6411703705       25.8764128873      -11.0132430134  W2        3449            0.0000000000
     10347      3449  TIP3      H2             22.5600603705       25.5764728873       -9.8481130134  W2        3449            0.0000000000
     10348      3450  TIP3      OH2            23.3384003705       29.6751328873       -7.5137230134  W2        3450            0.0000000000
     10349      3450  TIP3      H1             23.2435303705       29.0964428873       -8.2702630134  W2        3450            0.0000000000
     10350      3450  TIP3      H2             24.0677603705       29.3037028873       -7.0174430134  W2        3450            0.0000000000
     10351      3451  TIP3      OH2            22.3382003705       25.0156328873       -6.5614430134  W2        3451            0.0000000000
     10352      3451  TIP3      H1             22.9034503705       25.1370528873       -7.3243230134  W2        3451            0.0000000000
     10353      3451  TIP3      H2             22.6570903705       25.6531328873       -5.9225930134  W2        3451            0.0000000000
     10354      3452  TIP3      OH2            28.6474203705       30.5188228873       -5.8273930134  W2        3452            0.0000000000
     10355      3452  TIP3      H1             28.4070803705       31.1811328873       -5.1794730134  W2        3452            0.0000000000
     10356      3452  TIP3      H2             28.4492403705       29.6843428873       -5.4024330134  W2        3452            0.0000000000
     10357      3453  TIP3      OH2            23.2182703705       29.4149028873       -1.8442530134  W2        3453            0.0000000000
     10358      3453  TIP3      H1             22.9070203705       30.1972228873       -1.3889330134  W2        3453            0.0000000000
     10359      3453  TIP3      H2             22.5682903705       29.2618128873       -2.5300530134  W2        3453            0.0000000000
     10360      3454  TIP3      OH2            29.1972303705       24.7787428873      -14.3923230134  W2        3454            0.0000000000
     10361      3454  TIP3      H1             29.7767803705       24.9287728873      -13.6454330134  W2        3454            0.0000000000
     10362      3454  TIP3      H2             29.6112303705       25.2494828873      -15.1156830134  W2        3454            0.0000000000
     10363      3455  TIP3      OH2            20.1382603705       25.6130128873       -2.6156830134  W2        3455            0.0000000000
     10364      3455  TIP3      H1             20.2085803705       26.2636928873       -1.9171830134  W2        3455            0.0000000000
     10365      3455  TIP3      H2             19.2474803705       25.7157628873       -2.9505930134  W2        3455            0.0000000000
     10366      3456  TIP3      OH2            26.9237203705       31.5155928873      -10.9570130134  W2        3456            0.0000000000
     10367      3456  TIP3      H1             27.3974803705       31.8112228873      -10.1795930134  W2        3456            0.0000000000
     10368      3456  TIP3      H2             26.3606503705       32.2537528873      -11.1900530134  W2        3456            0.0000000000
     10369      3457  TIP3      OH2            21.4578603705       31.4864028873       -1.0808730134  W2        3457            0.0000000000
     10370      3457  TIP3      H1             21.4653903705       31.3503728873       -2.0283230134  W2        3457            0.0000000000
     10371      3457  TIP3      H2             20.5419003705       31.3692128873       -0.8288730134  W2        3457            0.0000000000
     10372      3458  TIP3      OH2            32.8960703705       16.5287828873      -14.5793530134  W2        3458            0.0000000000
     10373      3458  TIP3      H1             31.9961403705       16.6676828873      -14.2842930134  W2        3458            0.0000000000
     10374      3458  TIP3      H2             33.1479103705       17.3602428873      -14.9811830134  W2        3458            0.0000000000
     10375      3459  TIP3      OH2            20.9619203705       25.3165028873      -12.6056630134  W2        3459            0.0000000000
     10376      3459  TIP3      H1             20.6700503705       26.0846728873      -13.0965330134  W2        3459            0.0000000000
     10377      3459  TIP3      H2             20.2874403705       24.6571228873      -12.7685230134  W2        3459            0.0000000000
     10378      3460  TIP3      OH2            34.0852103705       30.8950228873      -16.2029630134  W2        3460            0.0000000000
     10379      3460  TIP3      H1             34.1585603705       31.8340428873      -16.0324330134  W2        3460            0.0000000000
     10380      3460  TIP3      H2             34.9907203705       30.5898828873      -16.2592330134  W2        3460            0.0000000000
     10381      3461  TIP3      OH2            17.0549303705       27.6794228873       -3.7906830134  W2        3461            0.0000000000
     10382      3461  TIP3      H1             16.5537703705       27.6513628873       -4.6057130134  W2        3461            0.0000000000
     10383      3461  TIP3      H2             17.0603003705       26.7737428873       -3.4809530134  W2        3461            0.0000000000
     10384      3462  TIP3      OH2            16.8052003705       30.4598028873       -6.9066630134  W2        3462            0.0000000000
     10385      3462  TIP3      H1             17.7512603705       30.3155028873       -6.9257130134  W2        3462            0.0000000000
     10386      3462  TIP3      H2             16.6928303705       31.2440828873       -6.3695430134  W2        3462            0.0000000000
     10387      3463  TIP3      OH2            35.0030503705       31.1257728873       -1.2242930134  W2        3463            0.0000000000
     10388      3463  TIP3      H1             34.9537303705       30.1705828873       -1.2615330134  W2        3463            0.0000000000
     10389      3463  TIP3      H2             34.1762803705       31.3933028873       -0.8229130134  W2        3463            0.0000000000
     10390      3464  TIP3      OH2            25.9814503705       30.6996928873       -2.3481530134  W2        3464            0.0000000000
     10391      3464  TIP3      H1             26.0689103705       31.5261528873       -1.8732430134  W2        3464            0.0000000000
     10392      3464  TIP3      H2             25.1179603705       30.3700728873       -2.0992230134  W2        3464            0.0000000000
     10393      3465  TIP3      OH2            26.3960303705       34.4720628873      -12.5420930134  W2        3465            0.0000000000
     10394      3465  TIP3      H1             26.3206303705       34.3507828873      -13.4885730134  W2        3465            0.0000000000
     10395      3465  TIP3      H2             26.4289003705       35.4213328873      -12.4236330134  W2        3465            0.0000000000
     10396      3466  TIP3      OH2            20.0494103705       33.2607628873      -10.7611930134  W2        3466            0.0000000000
     10397      3466  TIP3      H1             20.2014503705       32.9128028873       -9.8825430134  W2        3466            0.0000000000
     10398      3466  TIP3      H2             19.1984503705       32.9044928873      -11.0164730134  W2        3466            0.0000000000
     10399      3467  TIP3      OH2            29.4976303705       33.6260828873      -15.5398530134  W2        3467            0.0000000000
     10400      3467  TIP3      H1             29.8724703705       32.8816928873      -16.0105930134  W2        3467            0.0000000000
     10401      3467  TIP3      H2             29.5020003705       33.3561428873      -14.6215230134  W2        3467            0.0000000000
     10402      3468  TIP3      OH2            29.1664403705       33.5517928873      -12.7906330134  W2        3468            0.0000000000
     10403      3468  TIP3      H1             28.2314203705       33.6519828873      -12.6119330134  W2        3468            0.0000000000
     10404      3468  TIP3      H2             29.4466303705       32.8423928873      -12.2123130134  W2        3468            0.0000000000
     10405      3469  TIP3      OH2            32.1550303705       22.6190228873       -0.7440730134  W2        3469            0.0000000000
     10406      3469  TIP3      H1             31.7477103705       23.0995828873       -1.4647430134  W2        3469            0.0000000000
     10407      3469  TIP3      H2             32.1956003705       21.7136228873       -1.0519930134  W2        3469            0.0000000000
     10408      3470  TIP3      OH2            19.3039803705       29.0029628873       -2.7474030134  W2        3470            0.0000000000
     10409      3470  TIP3      H1             19.5201103705       28.6415228873       -1.8878230134  W2        3470            0.0000000000
     10410      3470  TIP3      H2             18.4484503705       28.6283428873       -2.9570530134  W2        3470            0.0000000000
     10411      3471  TIP3      OH2            21.9227803705       17.4730128873       -6.7519830134  W2        3471            0.0000000000
     10412      3471  TIP3      H1             21.0611503705       17.3858328873       -7.1596930134  W2        3471            0.0000000000
     10413      3471  TIP3      H2             21.9003503705       18.3290228873       -6.3242230134  W2        3471            0.0000000000
     10414      3472  TIP3      OH2            26.5855603705       17.1950528873       -3.3772830134  W2        3472            0.0000000000
     10415      3472  TIP3      H1             27.0058703705       16.7797628873       -2.6242230134  W2        3472            0.0000000000
     10416      3472  TIP3      H2             25.6525203705       17.0163828873       -3.2600830134  W2        3472            0.0000000000
     10417      3473  TIP3      OH2            29.9120503705       20.9505728873       -2.5238330134  W2        3473            0.0000000000
     10418      3473  TIP3      H1             29.3980003705       20.8247928873       -1.7262330134  W2        3473            0.0000000000
     10419      3473  TIP3      H2             29.7565203705       21.8628828873       -2.7682130134  W2        3473            0.0000000000
     10420      3474  TIP3      OH2            30.6745403705       25.8115728873      -16.7625330134  W2        3474            0.0000000000
     10421      3474  TIP3      H1             30.7166203705       25.5889628873      -17.6925330134  W2        3474            0.0000000000
     10422      3474  TIP3      H2             31.5237503705       26.2102828873      -16.5725430134  W2        3474            0.0000000000
     10423      3475  TIP3      OH2            26.2472903705       19.6873928873      -16.0922030134  W2        3475            0.0000000000
     10424      3475  TIP3      H1             25.9937703705       19.7065528873      -15.1693930134  W2        3475            0.0000000000
     10425      3475  TIP3      H2             25.9905003705       18.8159328873      -16.3935830134  W2        3475            0.0000000000
     10426      3476  TIP3      OH2            22.0137903705       22.4384628873       -5.6569630134  W2        3476            0.0000000000
     10427      3476  TIP3      H1             21.3720003705       22.3981928873       -4.9479530134  W2        3476            0.0000000000
     10428      3476  TIP3      H2             22.0509903705       23.3649328873       -5.8946630134  W2        3476            0.0000000000
     10429      3477  TIP3      OH2            22.0107003705       22.6594728873      -10.7449630134  W2        3477            0.0000000000
     10430      3477  TIP3      H1             21.1179903705       22.3190828873      -10.8035830134  W2        3477            0.0000000000
     10431      3477  TIP3      H2             22.4613603705       22.2825628873      -11.5006430134  W2        3477            0.0000000000
     10432      3478  TIP3      OH2            27.5462503705       23.0755028873      -11.9278830134  W2        3478            0.0000000000
     10433      3478  TIP3      H1             27.1372803705       23.8903628873      -12.2194030134  W2        3478            0.0000000000
     10434      3478  TIP3      H2             28.2668703705       22.9355128873      -12.5421730134  W2        3478            0.0000000000
     10435      3479  TIP3      OH2            26.6484103705       23.2511428873       -0.4398130134  W2        3479            0.0000000000
     10436      3479  TIP3      H1             26.0857903705       22.5463028873       -0.1190330134  W2        3479            0.0000000000
     10437      3479  TIP3      H2             27.4747503705       23.1303328873        0.0279469866  W2        3479            0.0000000000
     10438      3480  TIP3      OH2            28.5510203705       22.5215428873       -9.1139130134  W2        3480            0.0000000000
     10439      3480  TIP3      H1             28.3554703705       23.1272228873       -9.8288530134  W2        3480            0.0000000000
     10440      3480  TIP3      H2             28.7322803705       21.6880628873       -9.5482830134  W2        3480            0.0000000000
     10441      3481  TIP3      OH2            19.7638403705       22.7588128873       -3.7897630134  W2        3481            0.0000000000
     10442      3481  TIP3      H1             19.7257803705       23.1589728873       -2.9210530134  W2        3481            0.0000000000
     10443      3481  TIP3      H2             19.2729503705       21.9420528873       -3.6994730134  W2        3481            0.0000000000
     10444      3482  TIP3      OH2            23.1295803705       20.1330428873      -16.9911630134  W2        3482            0.0000000000
     10445      3482  TIP3      H1             22.6986503705       19.6880528873      -16.2614230134  W2        3482            0.0000000000
     10446      3482  TIP3      H2             22.4114503705       20.5046728873      -17.5034130134  W2        3482            0.0000000000
     10447      3483  TIP3      OH2            16.3719203705       19.8749928873       -9.9392930134  W2        3483            0.0000000000
     10448      3483  TIP3      H1             17.0026903705       19.8462028873       -9.2199030134  W2        3483            0.0000000000
     10449      3483  TIP3      H2             16.8213503705       19.4498628873      -10.6697030134  W2        3483            0.0000000000
     10450      3484  TIP3      OH2            17.6461303705       20.6211928873      -14.5152530134  W2        3484            0.0000000000
     10451      3484  TIP3      H1             18.1203003705       21.2121828873      -15.1001630134  W2        3484            0.0000000000
     10452      3484  TIP3      H2             16.9287703705       21.1514828873      -14.1682430134  W2        3484            0.0000000000
     10453      3485  TIP3      OH2            27.8149403705       24.1596728873       -4.4426730134  W2        3485            0.0000000000
     10454      3485  TIP3      H1             28.1384203705       23.5286428873       -5.0856230134  W2        3485            0.0000000000
     10455      3485  TIP3      H2             27.3748703705       23.6248928873       -3.7819330134  W2        3485            0.0000000000
     10456      3486  TIP3      OH2            24.5922303705       20.0872228873       -9.6585530134  W2        3486            0.0000000000
     10457      3486  TIP3      H1             23.6813403705       20.1439028873       -9.3699530134  W2        3486            0.0000000000
     10458      3486  TIP3      H2             25.0975203705       20.0267728873       -8.8478330134  W2        3486            0.0000000000
     10459      3487  TIP3      OH2            19.4205703705       21.7158528873      -10.8317930134  W2        3487            0.0000000000
     10460      3487  TIP3      H1             18.5313703705       21.8154028873      -11.1718330134  W2        3487            0.0000000000
     10461      3487  TIP3      H2             19.7170603705       20.8741528873      -11.1780030134  W2        3487            0.0000000000
     10462      3488  TIP3      OH2            23.0737503705       21.7161128873      -13.1753330134  W2        3488            0.0000000000
     10463      3488  TIP3      H1             24.0053003705       21.8451128873      -12.9970230134  W2        3488            0.0000000000
     10464      3488  TIP3      H2             22.8587803705       22.3855428873      -13.8248630134  W2        3488            0.0000000000
     10465      3489  TIP3      OH2            28.9974203705       19.3218528873       -6.3943730134  W2        3489            0.0000000000
     10466      3489  TIP3      H1             28.3205803705       19.4531628873       -5.7304030134  W2        3489            0.0000000000
     10467      3489  TIP3      H2             28.5119103705       19.1668028873       -7.2046030134  W2        3489            0.0000000000
     10468      3490  TIP3      OH2            21.7477703705       22.9103328873      -15.6087230134  W2        3490            0.0000000000
     10469      3490  TIP3      H1             21.2052803705       22.5307128873      -16.2999630134  W2        3490            0.0000000000
     10470      3490  TIP3      H2             22.5812603705       23.1048028873      -16.0373130134  W2        3490            0.0000000000
     10471      3491  TIP3      OH2            32.2849303705       34.9933928873       -0.1176130134  W2        3491            0.0000000000
     10472      3491  TIP3      H1             32.4848003705       35.4175828873       -0.9520830134  W2        3491            0.0000000000
     10473      3491  TIP3      H2             32.9403003705       35.3372128873        0.4894269866  W2        3491            0.0000000000
     10474      3492  TIP3      OH2            19.8829103705       27.4675228873       -0.5095630134  W2        3492            0.0000000000
     10475      3492  TIP3      H1             20.6151503705       27.7221128873        0.0518869866  W2        3492            0.0000000000
     10476      3492  TIP3      H2             19.1027803705       27.6720628873        0.0059769866  W2        3492            0.0000000000
     10477      3493  TIP3      OH2            25.9122003705       22.8745228873       -7.7715930134  W2        3493            0.0000000000
     10478      3493  TIP3      H1             26.4765403705       22.3281828873       -8.3186330134  W2        3493            0.0000000000
     10479      3493  TIP3      H2             25.7645403705       22.3527128873       -6.9828330134  W2        3493            0.0000000000
     10480      3494  TIP3      OH2            20.9141703705       19.0111328873      -11.3531130134  W2        3494            0.0000000000
     10481      3494  TIP3      H1             20.5971203705       18.1086628873      -11.3885730134  W2        3494            0.0000000000
     10482      3494  TIP3      H2             21.6955803705       19.0128728873      -11.9059530134  W2        3494            0.0000000000
     10483      3495  TIP3      OH2            24.5387903705       21.2631328873       -5.3575530134  W2        3495            0.0000000000
     10484      3495  TIP3      H1             23.7033203705       21.7170828873       -5.2473130134  W2        3495            0.0000000000
     10485      3495  TIP3      H2             25.0628503705       21.5389828873       -4.6055630134  W2        3495            0.0000000000
     10486      3496  TIP3      OH2            25.0830503705       27.4759028873      -13.6729130134  W2        3496            0.0000000000
     10487      3496  TIP3      H1             24.3381503705       26.9684328873      -13.9951230134  W2        3496            0.0000000000
     10488      3496  TIP3      H2             24.9487703705       27.5247028873      -12.7264330134  W2        3496            0.0000000000
     10489      3497  TIP3      OH2            32.2329403705       26.6087228873       -4.8861530134  W2        3497            0.0000000000
     10490      3497  TIP3      H1             32.8748203705       27.0653528873       -5.4299330134  W2        3497            0.0000000000
     10491      3497  TIP3      H2             31.4026303705       26.7219628873       -5.3487430134  W2        3497            0.0000000000
     10492      3498  TIP3      OH2            28.9807303705       20.2898928873      -15.4736530134  W2        3498            0.0000000000
     10493      3498  TIP3      H1             28.0421503705       20.4014528873      -15.6247730134  W2        3498            0.0000000000
     10494      3498  TIP3      H2             29.2779403705       21.1465828873      -15.1670830134  W2        3498            0.0000000000
     10495      3499  TIP3      OH2            26.6022603705       27.6602328873       -2.4360030134  W2        3499            0.0000000000
     10496      3499  TIP3      H1             26.2568703705       27.2784728873       -1.6290430134  W2        3499            0.0000000000
     10497      3499  TIP3      H2             26.4022703705       28.5935928873       -2.3647130134  W2        3499            0.0000000000
     10498      3500  TIP3      OH2            29.6990803705       22.1571628873      -13.8129130134  W2        3500            0.0000000000
     10499      3500  TIP3      H1             30.5909803705       22.0196628873      -13.4937930134  W2        3500            0.0000000000
     10500      3500  TIP3      H2             29.7554403705       22.9477728873      -14.3495630134  W2        3500            0.0000000000
     10501      3501  TIP3      OH2            20.2078803705       26.7709028873       -7.9031230134  W2        3501            0.0000000000
     10502      3501  TIP3      H1             20.9526003705       26.7684728873       -8.5044730134  W2        3501            0.0000000000
     10503      3501  TIP3      H2             20.2855403705       25.9472828873       -7.4216130134  W2        3501            0.0000000000
     10504      3502  TIP3      OH2            27.2084603705       28.9343328873      -14.6474530134  W2        3502            0.0000000000
     10505      3502  TIP3      H1             26.9133003705       29.7611228873      -14.2659730134  W2        3502            0.0000000000
     10506      3502  TIP3      H2             26.5054603705       28.3150228873      -14.4513130134  W2        3502            0.0000000000
     10507      3503  TIP3      OH2            17.2158503705       25.2315928873       -2.5882730134  W2        3503            0.0000000000
     10508      3503  TIP3      H1             17.4387103705       24.8135528873       -1.7565230134  W2        3503            0.0000000000
     10509      3503  TIP3      H2             16.6138603705       24.6190928873       -3.0109930134  W2        3503            0.0000000000
     10510      3504  TIP3      OH2            24.2323403705       24.7485828873       -0.3753030134  W2        3504            0.0000000000
     10511      3504  TIP3      H1             23.9364203705       24.5828828873       -1.2703930134  W2        3504            0.0000000000
     10512      3504  TIP3      H2             25.1638603705       24.5286128873       -0.3859130134  W2        3504            0.0000000000
     10513      3505  TIP3      OH2            28.8526203705       30.1217828873       -2.4855030134  W2        3505            0.0000000000
     10514      3505  TIP3      H1             27.9520503705       30.3050428873       -2.7531130134  W2        3505            0.0000000000
     10515      3505  TIP3      H2             28.8867303705       30.3807128873       -1.5646230134  W2        3505            0.0000000000
     10516      3506  TIP3      OH2            34.5839503705       22.3665728873      -14.1182430134  W2        3506            0.0000000000
     10517      3506  TIP3      H1             34.0295803705       21.9703728873      -14.7904930134  W2        3506            0.0000000000
     10518      3506  TIP3      H2             34.6843103705       23.2770928873      -14.3959130134  W2        3506            0.0000000000
     10519      3507  TIP3      OH2            34.5471503705       28.1667428873       -1.2810930134  W2        3507            0.0000000000
     10520      3507  TIP3      H1             33.6960003705       28.4051228873       -1.6484530134  W2        3507            0.0000000000
     10521      3507  TIP3      H2             35.1374903705       28.1500628873       -2.0343830134  W2        3507            0.0000000000
     10522      3508  TIP3      OH2            32.8791203705       31.1526128873      -13.6530330134  W2        3508            0.0000000000
     10523      3508  TIP3      H1             32.5062303705       30.3269928873      -13.3439730134  W2        3508            0.0000000000
     10524      3508  TIP3      H2             33.1564703705       30.9695528873      -14.5506930134  W2        3508            0.0000000000
     10525      3509  TIP3      OH2            30.0395103705       25.9605628873       -6.6318430134  W2        3509            0.0000000000
     10526      3509  TIP3      H1             29.1112003705       25.7287528873       -6.6589130134  W2        3509            0.0000000000
     10527      3509  TIP3      H2             30.4906203705       25.1835428873       -6.9619630134  W2        3509            0.0000000000
     10528      3510  TIP3      OH2            22.5828203705       30.2887228873      -10.4989730134  W2        3510            0.0000000000
     10529      3510  TIP3      H1             23.1100403705       31.0621628873      -10.6990930134  W2        3510            0.0000000000
     10530      3510  TIP3      H2             21.7026703705       30.5136428873      -10.8005730134  W2        3510            0.0000000000
     10531      3511  TIP3      OH2            18.3375903705       25.1511328873      -15.9117330134  W2        3511            0.0000000000
     10532      3511  TIP3      H1             18.9535803705       25.7778528873      -15.5322530134  W2        3511            0.0000000000
     10533      3511  TIP3      H2             17.4758503705       25.4671128873      -15.6400830134  W2        3511            0.0000000000
     10534      3512  TIP3      OH2            24.0100503705       27.9517128873      -10.9225430134  W2        3512            0.0000000000
     10535      3512  TIP3      H1             23.7690503705       28.8771528873      -10.8810130134  W2        3512            0.0000000000
     10536      3512  TIP3      H2             23.2694103705       27.4928428873      -10.5261530134  W2        3512            0.0000000000
     10537      3513  TIP3      OH2            24.5247103705       32.1010728873       -4.6074330134  W2        3513            0.0000000000
     10538      3513  TIP3      H1             24.8871803705       32.9556328873       -4.8409930134  W2        3513            0.0000000000
     10539      3513  TIP3      H2             25.0562303705       31.8092328873       -3.8668030134  W2        3513            0.0000000000
     10540      3514  TIP3      OH2            22.6931303705       32.9734728873      -11.3773230134  W2        3514            0.0000000000
     10541      3514  TIP3      H1             21.7431803705       33.0792128873      -11.3259930134  W2        3514            0.0000000000
     10542      3514  TIP3      H2             23.0449403705       33.7942128873      -11.0325730134  W2        3514            0.0000000000
     10543      3515  TIP3      OH2            28.0687903705       28.2001428873       -4.9068730134  W2        3515            0.0000000000
     10544      3515  TIP3      H1             27.6429203705       27.9723128873       -4.0804730134  W2        3515            0.0000000000
     10545      3515  TIP3      H2             28.6493703705       27.4613228873       -5.0893430134  W2        3515            0.0000000000
     10546      3516  TIP3      OH2            30.2716803705       29.1291928873      -15.8329730134  W2        3516            0.0000000000
     10547      3516  TIP3      H1             30.6249903705       28.7491728873      -15.0286230134  W2        3516            0.0000000000
     10548      3516  TIP3      H2             29.3230303705       29.0356728873      -15.7460430134  W2        3516            0.0000000000
     10549      3517  TIP3      OH2            30.7272103705       32.7520928873       -2.4373930134  W2        3517            0.0000000000
     10550      3517  TIP3      H1             30.1255303705       32.1963828873       -2.9327630134  W2        3517            0.0000000000
     10551      3517  TIP3      H2             31.0085803705       33.4190728873       -3.0636530134  W2        3517            0.0000000000
     10552      3518  TIP3      OH2            34.7751203705       33.6084428873      -15.6319530134  W2        3518            0.0000000000
     10553      3518  TIP3      H1             35.5189103705       34.1944928873      -15.7717930134  W2        3518            0.0000000000
     10554      3518  TIP3      H2             34.0809303705       34.1770228873      -15.2987130134  W2        3518            0.0000000000
     10555      3519  TIP3      OH2            18.8498003705       19.9848628873       -3.0301330134  W2        3519            0.0000000000
     10556      3519  TIP3      H1             17.9570303705       20.3234028873       -3.0977330134  W2        3519            0.0000000000
     10557      3519  TIP3      H2             18.7510803705       19.1294728873       -2.6120530134  W2        3519            0.0000000000
     10558      3520  TIP3      OH2            31.1376103705       27.8013928873      -13.6061830134  W2        3520            0.0000000000
     10559      3520  TIP3      H1             30.8603703705       27.0733228873      -13.0500730134  W2        3520            0.0000000000
     10560      3520  TIP3      H2             32.0649103705       27.9205928873      -13.4009230134  W2        3520            0.0000000000
     10561      3521  TIP3      OH2            18.5010003705       31.7893028873       -4.5951930134  W2        3521            0.0000000000
     10562      3521  TIP3      H1             18.7180303705       30.8575428873       -4.6262230134  W2        3521            0.0000000000
     10563      3521  TIP3      H2             18.7473503705       32.0638028873       -3.7119130134  W2        3521            0.0000000000
     10564      3522  TIP3      OH2            24.3624603705       30.2408028873      -17.3859730134  W2        3522            0.0000000000
     10565      3522  TIP3      H1             24.6014403705       29.4926128873      -17.9330830134  W2        3522            0.0000000000
     10566      3522  TIP3      H2             24.0935903705       29.8529728873      -16.5531930134  W2        3522            0.0000000000
     10567      3523  TIP3      OH2            23.2995203705       29.8111828873      -14.9297130134  W2        3523            0.0000000000
     10568      3523  TIP3      H1             23.4463203705       29.2911628873      -14.1396230134  W2        3523            0.0000000000
     10569      3523  TIP3      H2             23.2966903705       30.7179428873      -14.6231230134  W2        3523            0.0000000000
     10570      3524  TIP3      OH2            19.7526303705       27.0635128873      -14.4191730134  W2        3524            0.0000000000
     10571      3524  TIP3      H1             19.0665603705       27.4157628873      -13.8522030134  W2        3524            0.0000000000
     10572      3524  TIP3      H2             20.2754203705       27.8264728873      -14.6657430134  W2        3524            0.0000000000
     10573      3525  TIP3      OH2            27.5841403705       19.7258928873       -4.1402730134  W2        3525            0.0000000000
     10574      3525  TIP3      H1             28.2829303705       19.7997628873       -3.4903030134  W2        3525            0.0000000000
     10575      3525  TIP3      H2             27.2032803705       18.8613928873       -3.9859830134  W2        3525            0.0000000000
     10576      3526  TIP3      OH2            28.3686303705       19.3780628873      -13.0430430134  W2        3526            0.0000000000
     10577      3526  TIP3      H1             28.5884603705       19.8496028873      -13.8465030134  W2        3526            0.0000000000
     10578      3526  TIP3      H2             28.9270303705       19.7723228873      -12.3729830134  W2        3526            0.0000000000
     10579      3527  TIP3      OH2            26.0372403705       31.5085428873      -14.1802930134  W2        3527            0.0000000000
     10580      3527  TIP3      H1             25.2208503705       32.0055128873      -14.1278630134  W2        3527            0.0000000000
     10581      3527  TIP3      H2             26.5668703705       31.9838928873      -14.8204130134  W2        3527            0.0000000000
     10582      3528  TIP3      OH2            25.5686203705       21.1059428873      -12.2082030134  W2        3528            0.0000000000
     10583      3528  TIP3      H1             26.3808803705       21.6102628873      -12.1620330134  W2        3528            0.0000000000
     10584      3528  TIP3      H2             25.3239203705       20.9609128873      -11.2942430134  W2        3528            0.0000000000
     10585      3529  TIP3      OH2            26.1042603705       22.0922128873       -3.0235430134  W2        3529            0.0000000000
     10586      3529  TIP3      H1             26.2232903705       22.6657528873       -2.2665030134  W2        3529            0.0000000000
     10587      3529  TIP3      H2             26.7597203705       21.4041528873       -2.9087630134  W2        3529            0.0000000000
     10588      3530  TIP3      OH2            26.4522903705       18.1872428873      -11.2700930134  W2        3530            0.0000000000
     10589      3530  TIP3      H1             26.1056403705       18.8043028873      -10.6256630134  W2        3530            0.0000000000
     10590      3530  TIP3      H2             27.1109803705       18.6878128873      -11.7515430134  W2        3530            0.0000000000
     10591      3531  TIP3      OH2            23.3755503705       32.5522628873      -14.1986030134  W2        3531            0.0000000000
     10592      3531  TIP3      H1             23.5364203705       33.3520128873      -14.6993430134  W2        3531            0.0000000000
     10593      3531  TIP3      H2             23.1783303705       32.8588628873      -13.3135430134  W2        3531            0.0000000000
     10594      3532  TIP3      OH2            22.1099903705       19.2501828873      -14.5828430134  W2        3532            0.0000000000
     10595      3532  TIP3      H1             22.0264703705       20.1384928873      -14.2362030134  W2        3532            0.0000000000
     10596      3532  TIP3      H2             23.0000203705       18.9848528873      -14.3511630134  W2        3532            0.0000000000
     10597      3533  TIP3      OH2            32.3088403705       19.9992428873       -2.1885730134  W2        3533            0.0000000000
     10598      3533  TIP3      H1             31.3924203705       20.2614128873       -2.2762030134  W2        3533            0.0000000000
     10599      3533  TIP3      H2             32.6443403705       19.9961428873       -3.0850430134  W2        3533            0.0000000000
     10600      3534  TIP3      OH2            30.9109403705       23.7493428873       -8.0928430134  W2        3534            0.0000000000
     10601      3534  TIP3      H1             30.1133803705       23.3343628873       -8.4213430134  W2        3534            0.0000000000
     10602      3534  TIP3      H2             31.3560503705       23.0587128873       -7.6017930134  W2        3534            0.0000000000
     10603      3535  TIP3      OH2            20.3685203705       29.6774028873      -15.5223930134  W2        3535            0.0000000000
     10604      3535  TIP3      H1             20.9606703705       30.3768828873      -15.2461530134  W2        3535            0.0000000000
     10605      3535  TIP3      H2             20.8278203705       29.2443528873      -16.2419330134  W2        3535            0.0000000000
     10606      3536  TIP3      OH2            18.6844403705       22.3417028873      -16.4064530134  W2        3536            0.0000000000
     10607      3536  TIP3      H1             18.6397003705       23.2810128873      -16.2277530134  W2        3536            0.0000000000
     10608      3536  TIP3      H2             17.7967603705       22.1061928873      -16.6762430134  W2        3536            0.0000000000
     10609      3537  TIP3      OH2            31.9974003705       33.0055928873       -6.4704930134  W2        3537            0.0000000000
     10610      3537  TIP3      H1             31.8418303705       33.6840328873       -7.1275630134  W2        3537            0.0000000000
     10611      3537  TIP3      H2             32.9300403705       33.0775228873       -6.2674330134  W2        3537            0.0000000000
     10612      3538  TIP3      OH2            19.4926403705       17.1233628873       -7.7333530134  W2        3538            0.0000000000
     10613      3538  TIP3      H1             19.2636203705       17.1826128873       -8.6608530134  W2        3538            0.0000000000
     10614      3538  TIP3      H2             19.0499803705       16.3319128873       -7.4269430134  W2        3538            0.0000000000
     10615      3539  TIP3      OH2            18.4229703705       31.0640728873      -11.5727730134  W2        3539            0.0000000000
     10616      3539  TIP3      H1             17.5908303705       31.5363428873      -11.5456330134  W2        3539            0.0000000000
     10617      3539  TIP3      H2             18.9688003705       31.5738328873      -12.1714630134  W2        3539            0.0000000000
     10618      3540  TIP3      OH2            17.7113403705       33.6764428873       -0.2429730134  W2        3540            0.0000000000
     10619      3540  TIP3      H1             18.2515603705       33.4598428873        0.5169469866  W2        3540            0.0000000000
     10620      3540  TIP3      H2             17.2301403705       32.8710428873       -0.4327230134  W2        3540            0.0000000000
     10621      3541  TIP3      OH2            22.3086803705       32.5958828873        1.3774469866  W2        3541            0.0000000000
     10622      3541  TIP3      H1             23.0764003705       32.1369628873        1.7183669866  W2        3541            0.0000000000
     10623      3541  TIP3      H2             22.2873003705       32.3698628873        0.4475669866  W2        3541            0.0000000000
     10624      3542  TIP3      OH2            26.4006403705       32.1039428873      -17.2473730134  W2        3542            0.0000000000
     10625      3542  TIP3      H1             25.7567403705       31.4728028873      -16.9260030134  W2        3542            0.0000000000
     10626      3542  TIP3      H2             27.1624703705       31.5727428873      -17.4790230134  W2        3542            0.0000000000
     10627      3543  TIP3      OH2            28.8855503705       30.9759928873        0.1065969866  W2        3543            0.0000000000
     10628      3543  TIP3      H1             28.5345003705       30.1192928873        0.3496369866  W2        3543            0.0000000000
     10629      3543  TIP3      H2             29.6118703705       31.1186628873        0.7134969866  W2        3543            0.0000000000
     10630      3544  TIP3      OH2            31.0049303705       31.9209328873      -17.0135730134  W2        3544            0.0000000000
     10631      3544  TIP3      H1             31.2879703705       31.1264528873      -16.5608830134  W2        3544            0.0000000000
     10632      3544  TIP3      H2             31.7447203705       32.1540328873      -17.5744630134  W2        3544            0.0000000000
     10633      3545  TIP3      OH2            17.6182903705       27.4868528873        0.7114569866  W2        3545            0.0000000000
     10634      3545  TIP3      H1             17.7623403705       26.5849228873        0.4251269866  W2        3545            0.0000000000
     10635      3545  TIP3      H2             16.8460303705       27.7730628873        0.2236869866  W2        3545            0.0000000000
     10636      3546  TIP3      OH2            21.9596603705       27.8304228873      -17.1560830134  W2        3546            0.0000000000
     10637      3546  TIP3      H1             22.0240703705       27.0363828873      -16.6254430134  W2        3546            0.0000000000
     10638      3546  TIP3      H2             22.6125803705       27.7117028873      -17.8458830134  W2        3546            0.0000000000
     10639      3547  TIP3      OH2            24.2739003705       27.4566628873        0.1440969866  W2        3547            0.0000000000
     10640      3547  TIP3      H1             23.9452803705       27.7274728873       -0.7131630134  W2        3547            0.0000000000
     10641      3547  TIP3      H2             24.4257203705       26.5156428873        0.0565969866  W2        3547            0.0000000000
     10642      3548  TIP3      OH2            27.3120003705       28.8775928873      -17.4202830134  W2        3548            0.0000000000
     10643      3548  TIP3      H1             27.0434103705       29.0578028873      -16.5193930134  W2        3548            0.0000000000
     10644      3548  TIP3      H2             27.1055603705       27.9522128873      -17.5517030134  W2        3548            0.0000000000
     10645      3549  TIP3      OH2            30.0084203705       27.3723928873       -2.4726730134  W2        3549            0.0000000000
     10646      3549  TIP3      H1             30.7539003705       27.9607628873       -2.5922730134  W2        3549            0.0000000000
     10647      3549  TIP3      H2             29.2511003705       27.9543628873       -2.4093630134  W2        3549            0.0000000000
     10648      3550  TIP3      OH2            18.4509403705       24.6871828873        0.1313869866  W2        3550            0.0000000000
     10649      3550  TIP3      H1             18.8590603705       23.8298428873        0.0104469866  W2        3550            0.0000000000
     10650      3550  TIP3      H2             18.1907003705       24.7013128873        1.0524169866  W2        3550            0.0000000000
     10651      3551  TIP3      OH2            23.1090403705       25.8030428873      -14.8502830134  W2        3551            0.0000000000
     10652      3551  TIP3      H1             22.6492403705       25.3188728873      -14.1644330134  W2        3551            0.0000000000
     10653      3551  TIP3      H2             23.3639103705       25.1345828873      -15.4862330134  W2        3551            0.0000000000
     10654      3552  TIP3      OH2            22.3979703705       23.6957528873       -2.4943230134  W2        3552            0.0000000000
     10655      3552  TIP3      H1             21.7795803705       24.3704128873       -2.2138530134  W2        3552            0.0000000000
     10656      3552  TIP3      H2             22.7420903705       24.0171428873       -3.3277030134  W2        3552            0.0000000000
     10657      3553  TIP3      OH2            24.1800803705       24.0462228873      -16.5879630134  W2        3553            0.0000000000
     10658      3553  TIP3      H1             23.9995803705       23.8913428873      -17.5151330134  W2        3553            0.0000000000
     10659      3553  TIP3      H2             25.1301303705       24.1540928873      -16.5431730134  W2        3553            0.0000000000
     10660      3554  TIP3      OH2            27.4177903705       26.1672828873        0.7831569866  W2        3554            0.0000000000
     10661      3554  TIP3      H1             28.3709103705       26.2511928873        0.7557569866  W2        3554            0.0000000000
     10662      3554  TIP3      H2             27.2572503705       25.4554628873        1.4026469866  W2        3554            0.0000000000
     10663      3555  TIP3      OH2            33.5699103705       26.4006428873      -17.1421530134  W2        3555            0.0000000000
     10664      3555  TIP3      H1             33.2963903705       25.9761928873      -17.9553230134  W2        3555            0.0000000000
     10665      3555  TIP3      H2             33.6093203705       27.3320928873      -17.3591130134  W2        3555            0.0000000000
     10666      3556  TIP3      OH2            22.7373403705       21.0508328873       -1.4120130134  W2        3556            0.0000000000
     10667      3556  TIP3      H1             22.8874303705       20.3219628873       -2.0140430134  W2        3556            0.0000000000
     10668      3556  TIP3      H2             22.7395803705       21.8280028873       -1.9707930134  W2        3556            0.0000000000
     10669      3557  TIP3      OH2            23.1499103705       19.4204128873       -3.9192730134  W2        3557            0.0000000000
     10670      3557  TIP3      H1             23.6856603705       19.8720828873       -4.5713430134  W2        3557            0.0000000000
     10671      3557  TIP3      H2             22.2978703705       19.3123928873       -4.3418630134  W2        3557            0.0000000000
     10672      3558  TIP3      OH2            24.7317503705       24.8600328873       -3.6797530134  W2        3558            0.0000000000
     10673      3558  TIP3      H1             25.4822303705       24.7037828873       -4.2529730134  W2        3558            0.0000000000
     10674      3558  TIP3      H2             24.3925803705       25.7116928873       -3.9552030134  W2        3558            0.0000000000
     10675      3559  TIP3      OH2            29.1473703705       22.6752128873        1.3487769866  W2        3559            0.0000000000
     10676      3559  TIP3      H1             29.3395003705       21.7441528873        1.2372269866  W2        3559            0.0000000000
     10677      3559  TIP3      H2             30.0050003705       23.1001628873        1.3383169866  W2        3559            0.0000000000
     10678      3560  TIP3      OH2            30.4640903705       25.4637328873       -0.5739530134  W2        3560            0.0000000000
     10679      3560  TIP3      H1             30.1825903705       26.1731928873       -1.1515730134  W2        3560            0.0000000000
     10680      3560  TIP3      H2             31.4065203705       25.3910328873       -0.7248330134  W2        3560            0.0000000000
     10681      3561  TIP3      OH2            21.2159703705       22.2491828873        0.4995469866  W2        3561            0.0000000000
     10682      3561  TIP3      H1             20.4488703705       21.7166628873        0.2893069866  W2        3561            0.0000000000
     10683      3561  TIP3      H2             21.8948703705       21.9392228873       -0.0998230134  W2        3561            0.0000000000
     10684      3562  TIP3      OH2            23.9554603705       16.8769828873       -3.4879130134  W2        3562            0.0000000000
     10685      3562  TIP3      H1             23.8574203705       17.8233028873       -3.5932930134  W2        3562            0.0000000000
     10686      3562  TIP3      H2             23.2130803705       16.5043628873       -3.9635630134  W2        3562            0.0000000000
     10687      3563  TIP3      OH2            25.2195103705       21.1985228873        0.0759269866  W2        3563            0.0000000000
     10688      3563  TIP3      H1             24.9840503705       20.9791928873        0.9774169866  W2        3563            0.0000000000
     10689      3563  TIP3      H2             24.4362003705       20.9916428873       -0.4338230134  W2        3563            0.0000000000
     10690      3564  TIP3      OH2            27.9351703705       20.3258728873       -0.8487230134  W2        3564            0.0000000000
     10691      3564  TIP3      H1             26.9877103705       20.3578428873       -0.7163930134  W2        3564            0.0000000000
     10692      3564  TIP3      H2             28.2478403705       19.7005828873       -0.1949030134  W2        3564            0.0000000000
     10693      3565  TIP3      OH2            29.5693203705       18.9599828873        1.1564669866  W2        3565            0.0000000000
     10694      3565  TIP3      H1             29.4725003705       18.0077128873        1.1506569866  W2        3565            0.0000000000
     10695      3565  TIP3      H2             29.2476303705       19.2286628873        2.0170169866  W2        3565            0.0000000000
     10696      3566  TIP3      OH2            19.3962503705       20.1695628873        0.2040169866  W2        3566            0.0000000000
     10697      3566  TIP3      H1             19.6079903705       19.4631728873       -0.4062330134  W2        3566            0.0000000000
     10698      3566  TIP3      H2             19.2850003705       19.7321628873        1.0481369866  W2        3566            0.0000000000
     10699      3567  TIP3      OH2            24.1772703705       16.1707228873       -0.8166330134  W2        3567            0.0000000000
     10700      3567  TIP3      H1             24.8891103705       15.5309428873       -0.8307230134  W2        3567            0.0000000000
     10701      3567  TIP3      H2             24.0763103705       16.4375528873       -1.7303230134  W2        3567            0.0000000000
     10702      3568  TIP3      OH2            24.5310203705       17.8535628873        1.2369969866  W2        3568            0.0000000000
     10703      3568  TIP3      H1             24.3992403705       17.3779428873        0.4168469866  W2        3568            0.0000000000
     10704      3568  TIP3      H2             23.9317603705       18.5979228873        1.1817069866  W2        3568            0.0000000000
     10705      3569  TIP3      OH2            24.0772503705       34.7365928873      -15.5866030134  W2        3569            0.0000000000
     10706      3569  TIP3      H1             25.0103203705       34.8944628873      -15.4427630134  W2        3569            0.0000000000
     10707      3569  TIP3      H2             23.8131303705       35.4118928873      -16.2114530134  W2        3569            0.0000000000
     10708      3570  TIP3      OH2            17.6457403705       29.3729728873      -16.1037930134  W2        3570            0.0000000000
     10709      3570  TIP3      H1             18.5596603705       29.4518628873      -15.8304030134  W2        3570            0.0000000000
     10710      3570  TIP3      H2             17.6530503705       28.6859328873      -16.7702330134  W2        3570            0.0000000000
     10711      3571  TIP3      OH2            16.2948003705       34.7658228873      -11.0264030134  W2        3571            0.0000000000
     10712      3571  TIP3      H1             15.6475103705       34.3039928873      -11.5592830134  W2        3571            0.0000000000
     10713      3571  TIP3      H2             16.6492603705       34.0941528873      -10.4437830134  W2        3571            0.0000000000
     10714      3572  TIP3      OH2            17.1647203705       32.8465228873       -9.2217830134  W2        3572            0.0000000000
     10715      3572  TIP3      H1             16.8304003705       31.9662528873       -9.0497630134  W2        3572            0.0000000000
     10716      3572  TIP3      H2             17.3869603705       33.1920228873       -8.3572230134  W2        3572            0.0000000000
     10717      3573  TIP3      OH2            34.7132003705       33.6561628873       -6.2413030134  W2        3573            0.0000000000
     10718      3573  TIP3      H1             34.6918703705       33.8410028873       -5.3023630134  W2        3573            0.0000000000
     10719      3573  TIP3      H2             35.4038203705       34.2245628873       -6.5821630134  W2        3573            0.0000000000
     10720      3574  TIP3      OH2            34.2764903705       33.2232728873       -3.3193930134  W2        3574            0.0000000000
     10721      3574  TIP3      H1             33.7893603705       32.4876828873       -3.6906530134  W2        3574            0.0000000000
     10722      3574  TIP3      H2             34.8257603705       32.8296628873       -2.6414530134  W2        3574            0.0000000000
     10723      3575  TIP3      OH2            32.7272203705       29.0130828873        1.3186369866  W2        3575            0.0000000000
     10724      3575  TIP3      H1             31.8613303705       28.9080528873        1.7128669866  W2        3575            0.0000000000
     10725      3575  TIP3      H2             33.1038103705       29.7714128873        1.7651069866  W2        3575            0.0000000000
     10726      3576  TIP3      OH2            34.0281903705       27.2694528873      -13.1671130134  W2        3576            0.0000000000
     10727      3576  TIP3      H1             34.8783303705       27.6905428873      -13.0399530134  W2        3576            0.0000000000
     10728      3576  TIP3      H2             34.0337003705       26.5294628873      -12.5599730134  W2        3576            0.0000000000
     10729      3577  TIP3      OH2            34.4227503705       25.3231928873      -11.3435430134  W2        3577            0.0000000000
     10730      3577  TIP3      H1             33.6962103705       24.8434528873      -10.9457830134  W2        3577            0.0000000000
     10731      3577  TIP3      H2             35.0040803705       25.5286628873      -10.6113830134  W2        3577            0.0000000000
     10732      3578  TIP3      OH2            34.1818703705       28.1079428873       -6.3957830134  W2        3578            0.0000000000
     10733      3578  TIP3      H1             35.0152903705       27.7299428873       -6.6764230134  W2        3578            0.0000000000
     10734      3578  TIP3      H2             34.2939003705       29.0510628873       -6.5148730134  W2        3578            0.0000000000
     10735      3579  TIP3      OH2            32.6681003705       30.9856928873       -4.0889430134  W2        3579            0.0000000000
     10736      3579  TIP3      H1             32.0206303705       31.3108428873       -3.4634230134  W2        3579            0.0000000000
     10737      3579  TIP3      H2             32.1505003705       30.5454628873       -4.7631130134  W2        3579            0.0000000000
     10738      3580  TIP3      OH2            34.6910603705       25.2240428873      -14.9524130134  W2        3580            0.0000000000
     10739      3580  TIP3      H1             34.1691703705       25.5804528873      -15.6713230134  W2        3580            0.0000000000
     10740      3580  TIP3      H2             34.6579803705       25.8988228873      -14.2743230134  W2        3580            0.0000000000
     10741      3581  TIP3      OH2            33.0399603705       22.4636028873      -16.4017030134  W2        3581            0.0000000000
     10742      3581  TIP3      H1             33.1364003705       23.1303028873      -17.0817330134  W2        3581            0.0000000000
     10743      3581  TIP3      H2             32.8999203705       21.6482328873      -16.8831530134  W2        3581            0.0000000000
     10744      3582  TIP3      OH2            32.2094303705       23.8438428873      -10.7806730134  W2        3582            0.0000000000
     10745      3582  TIP3      H1             32.0593103705       22.8987028873      -10.8008930134  W2        3582            0.0000000000
     10746      3582  TIP3      H2             31.8558803705       24.1249828873       -9.9367630134  W2        3582            0.0000000000
     10747      3583  TIP3      OH2            17.2446703705       25.9220628873       -6.7702930134  W2        3583            0.0000000000
     10748      3583  TIP3      H1             17.4289603705       25.8402328873       -7.7060030134  W2        3583            0.0000000000
     10749      3583  TIP3      H2             18.0939603705       25.7977628873       -6.3466530134  W2        3583            0.0000000000
     10750      3584  TIP3      OH2            33.0657203705       25.8141728873       -1.1418430134  W2        3584            0.0000000000
     10751      3584  TIP3      H1             33.6484503705       25.0794028873       -0.9501230134  W2        3584            0.0000000000
     10752      3584  TIP3      H2             33.6296503705       26.5862028873       -1.0952630134  W2        3584            0.0000000000
     10753      3585  TIP3      OH2            34.5624303705       23.7167528873       -0.4573030134  W2        3585            0.0000000000
     10754      3585  TIP3      H1             33.6991003705       23.3379628873       -0.6228330134  W2        3585            0.0000000000
     10755      3585  TIP3      H2             35.1668003705       22.9782328873       -0.5317230134  W2        3585            0.0000000000
     10756      3586  TIP3      OH2            32.2873403705       19.8715828873      -17.2841530134  W2        3586            0.0000000000
     10757      3586  TIP3      H1             32.8979203705       19.5002628873      -16.6473330134  W2        3586            0.0000000000
     10758      3586  TIP3      H2             31.4504903705       19.4502728873      -17.0881530134  W2        3586            0.0000000000
     10759      3587  TIP3      OH2            31.9199103705       21.4264228873      -12.3181630134  W2        3587            0.0000000000
     10760      3587  TIP3      H1             32.1996203705       20.5194628873      -12.1939930134  W2        3587            0.0000000000
     10761      3587  TIP3      H2             32.6790803705       21.8605728873      -12.7072430134  W2        3587            0.0000000000
     10762      3588  TIP3      OH2            32.5317403705       22.0081628873       -6.8822730134  W2        3588            0.0000000000
     10763      3588  TIP3      H1             33.4645403705       22.2201528873       -6.9166730134  W2        3588            0.0000000000
     10764      3588  TIP3      H2             32.2964903705       22.1093728873       -5.9599730134  W2        3588            0.0000000000
     10765      3589  TIP3      OH2            32.5609303705       22.7446928873       -4.1063330134  W2        3589            0.0000000000
     10766      3589  TIP3      H1             31.7180603705       23.0127328873       -3.7403530134  W2        3589            0.0000000000
     10767      3589  TIP3      H2             33.0033603705       23.5668828873       -4.3172230134  W2        3589            0.0000000000
     10768      3590  TIP3      OH2            16.8421503705       21.1925628873       -0.6294130134  W2        3590            0.0000000000
     10769      3590  TIP3      H1             17.7616403705       21.0703928873       -0.3931030134  W2        3590            0.0000000000
     10770      3590  TIP3      H2             16.3926003705       20.4425328873       -0.2400630134  W2        3590            0.0000000000
     10771      3591  TIP3      OH2            34.8440903705       16.7247128873        1.2471669866  W2        3591            0.0000000000
     10772      3591  TIP3      H1             35.1937903705       16.0710628873        0.6416369866  W2        3591            0.0000000000
     10773      3591  TIP3      H2             34.9910403705       17.5621228873        0.8074269866  W2        3591            0.0000000000
     10774      3592  TIP3      OH2            32.5333903705       18.6893528873      -12.2699630134  W2        3592            0.0000000000
     10775      3592  TIP3      H1             32.7158903705       18.2405028873      -11.4444630134  W2        3592            0.0000000000
     10776      3592  TIP3      H2             31.9336803705       18.1047928873      -12.7335030134  W2        3592            0.0000000000
     10777      3593  TIP3      OH2            18.0634003705       19.5047228873       -7.7381230134  W2        3593            0.0000000000
     10778      3593  TIP3      H1             18.5085603705       18.7129728873       -7.4361530134  W2        3593            0.0000000000
     10779      3593  TIP3      H2             18.5297003705       20.2212428873       -7.3075630134  W2        3593            0.0000000000
     10780      3594  TIP3      OH2            16.3674303705       22.5040228873       -6.6691030134  W2        3594            0.0000000000
     10781      3594  TIP3      H1             16.8594103705       22.2830728873       -7.4599030134  W2        3594            0.0000000000
     10782      3594  TIP3      H2             16.7295203705       23.3443628873       -6.3881530134  W2        3594            0.0000000000
     10783      3595  TIP3      OH2            34.3638103705       18.8341728873       -0.4037030134  W2        3595            0.0000000000
     10784      3595  TIP3      H1             33.4463803705       19.1048828873       -0.4393530134  W2        3595            0.0000000000
     10785      3595  TIP3      H2             34.4867503705       18.2990128873       -1.1877330134  W2        3595            0.0000000000
     10786      3596  TIP3      OH2            34.4000103705       18.7571628873      -15.7419330134  W2        3596            0.0000000000
     10787      3596  TIP3      H1             34.8122703705       18.0357328873      -16.2171330134  W2        3596            0.0000000000
     10788      3596  TIP3      H2             35.0816603705       19.4266228873      -15.6835030134  W2        3596            0.0000000000
     10789      3597  TIP3      OH2            16.6810803705       18.7619328873      -12.6148630134  W2        3597            0.0000000000
     10790      3597  TIP3      H1             15.7559203705       18.9705928873      -12.7443130134  W2        3597            0.0000000000
     10791      3597  TIP3      H2             17.1350703705       19.2460128873      -13.3046330134  W2        3597            0.0000000000
     10792      3598  TIP3      OH2            31.4518003705       33.7461028873      -10.6691230134  W2        3598            0.0000000000
     10793      3598  TIP3      H1             32.1040903705       33.3983128873      -11.2772130134  W2        3598            0.0000000000
     10794      3598  TIP3      H2             31.9621803705       34.2344228873      -10.0231530134  W2        3598            0.0000000000
     10795      3599  TIP3      OH2            16.6446203705       17.4998328873       -4.2706130134  W2        3599            0.0000000000
     10796      3599  TIP3      H1             15.9796703705       17.2538628873       -3.6275230134  W2        3599            0.0000000000
     10797      3599  TIP3      H2             16.2017503705       18.1218728873       -4.8478130134  W2        3599            0.0000000000
     10798      3600  TIP3      OH2            18.8365503705       30.6752428873       -0.1260330134  W2        3600            0.0000000000
     10799      3600  TIP3      H1             18.0158003705       30.8498928873       -0.5865630134  W2        3600            0.0000000000
     10800      3600  TIP3      H2             18.5843303705       30.6017128873        0.7944069866  W2        3600            0.0000000000
     10801      3601  TIP3      OH2            21.7908403705       31.6493628873       -3.8676330134  W2        3601            0.0000000000
     10802      3601  TIP3      H1             21.3659503705       32.4592128873       -4.1501730134  W2        3601            0.0000000000
     10803      3601  TIP3      H2             22.6951203705       31.7347728873       -4.1696530134  W2        3601            0.0000000000
     10804      3602  TIP3      OH2            26.1019803705       33.0483628873       -0.9082630134  W2        3602            0.0000000000
     10805      3602  TIP3      H1             26.2867303705       32.7149728873       -0.0302330134  W2        3602            0.0000000000
     10806      3602  TIP3      H2             26.9484303705       33.3582228873       -1.2303430134  W2        3602            0.0000000000
     10807      3603  TIP3      OH2            28.4470203705       34.3342528873       -1.6641230134  W2        3603            0.0000000000
     10808      3603  TIP3      H1             29.1239103705       33.7014828873       -1.9042030134  W2        3603            0.0000000000
     10809      3603  TIP3      H2             28.7689003705       34.7353028873       -0.8567930134  W2        3603            0.0000000000
     10810      3604  TIP3      OH2            33.3644003705       16.9238028873       -2.5846230134  W2        3604            0.0000000000
     10811      3604  TIP3      H1             32.5517503705       17.2488328873       -2.9721530134  W2        3604            0.0000000000
     10812      3604  TIP3      H2             33.5972503705       16.1636528873       -3.1177130134  W2        3604            0.0000000000
     10813      3605  TIP3      OH2            19.1925103705       34.9057528873       -3.8201030134  W2        3605            0.0000000000
     10814      3605  TIP3      H1             18.4721503705       35.3458528873       -4.2713330134  W2        3605            0.0000000000
     10815      3605  TIP3      H2             18.8269103705       34.6552228873       -2.9717030134  W2        3605            0.0000000000
     10816      3606  TIP3      OH2            21.6597703705       34.5061428873       -4.7903830134  W2        3606            0.0000000000
     10817      3606  TIP3      H1             20.7949903705       34.5779928873       -4.3863730134  W2        3606            0.0000000000
     10818      3606  TIP3      H2             21.6046703705       35.0528728873       -5.5741330134  W2        3606            0.0000000000
     10819      3607  TIP3      OH2            26.3703303705       34.3940328873       -5.6147830134  W2        3607            0.0000000000
     10820      3607  TIP3      H1             25.9137303705       34.9230028873       -6.2689430134  W2        3607            0.0000000000
     10821      3607  TIP3      H2             26.5331303705       34.9971728873       -4.8895530134  W2        3607            0.0000000000
     10822      3608  TIP3      OH2            28.6979603705       33.2719928873       -4.6697530134  W2        3608            0.0000000000
     10823      3608  TIP3      H1             27.7933303705       33.4370128873       -4.9355430134  W2        3608            0.0000000000
     10824      3608  TIP3      H2             29.1268203705       34.1252128873       -4.7354130134  W2        3608            0.0000000000
     10825      3609  TIP3      OH2            31.3021503705       34.8419028873       -4.3749730134  W2        3609            0.0000000000
     10826      3609  TIP3      H1             31.1203503705       35.7577928873       -4.5854830134  W2        3609            0.0000000000
     10827      3609  TIP3      H2             31.4789303705       34.4316128873       -5.2215130134  W2        3609            0.0000000000
     10828      3610  TIP3      OH2            18.6073203705       33.5290028873       -6.9099230134  W2        3610            0.0000000000
     10829      3610  TIP3      H1             18.5889203705       33.1035128873       -6.0526930134  W2        3610            0.0000000000
     10830      3610  TIP3      H2             19.4121103705       33.2105028873       -7.3187030134  W2        3610            0.0000000000
     10831      3611  TIP3      OH2            20.7486303705       32.2388728873       -8.2549330134  W2        3611            0.0000000000
     10832      3611  TIP3      H1             20.5297003705       31.3226128873       -8.0853330134  W2        3611            0.0000000000
     10833      3611  TIP3      H2             21.5728503705       32.3789128873       -7.7887930134  W2        3611            0.0000000000
     10834      3612  TIP3      OH2            23.2858803705       32.7088028873       -7.4061330134  W2        3612            0.0000000000
     10835      3612  TIP3      H1             23.4984503705       31.8207028873       -7.6930430134  W2        3612            0.0000000000
     10836      3612  TIP3      H2             23.3503903705       32.6745728873       -6.4517330134  W2        3612            0.0000000000
     10837      3613  TIP3      OH2            26.7942503705       18.3728628873       -8.2618030134  W2        3613            0.0000000000
     10838      3613  TIP3      H1             26.1199303705       17.7434228873       -8.0062230134  W2        3613            0.0000000000
     10839      3613  TIP3      H2             27.3581703705       17.8887528873       -8.8650130134  W2        3613            0.0000000000
     10840      3614  TIP3      OH2            31.9369703705       16.4802628873       -8.1490930134  W2        3614            0.0000000000
     10841      3614  TIP3      H1             32.5407303705       17.0278028873       -8.6509930134  W2        3614            0.0000000000
     10842      3614  TIP3      H2             31.0671703705       16.7993028873       -8.3896830134  W2        3614            0.0000000000
     10843      3615  TIP3      OH2            33.6640103705       17.6191328873       -9.8160030134  W2        3615            0.0000000000
     10844      3615  TIP3      H1             34.2757603705       17.1047028873      -10.3426430134  W2        3615            0.0000000000
     10845      3615  TIP3      H2             34.0463503705       18.4963428873       -9.7925630134  W2        3615            0.0000000000
     10846      3616  TIP3      OH2            19.1210003705       17.0068928873      -10.4398130134  W2        3616            0.0000000000
     10847      3616  TIP3      H1             18.3439803705       16.7723828873      -10.9472230134  W2        3616            0.0000000000
     10848      3616  TIP3      H2             19.6513603705       16.2101028873      -10.4310130134  W2        3616            0.0000000000
     10849      3617  TIP3      OH2            17.9573403705       16.8047028873      -14.6362030134  W2        3617            0.0000000000
     10850      3617  TIP3      H1             18.3964103705       17.4157528873      -15.2278530134  W2        3617            0.0000000000
     10851      3617  TIP3      H2             17.3235803705       17.3431128873      -14.1622030134  W2        3617            0.0000000000
     10852      3618  TIP3      OH2            23.7002603705       16.9336028873      -10.6265030134  W2        3618            0.0000000000
     10853      3618  TIP3      H1             24.5746003705       17.3220328873      -10.6560730134  W2        3618            0.0000000000
     10854      3618  TIP3      H2             23.5643403705       16.7183828873       -9.7037830134  W2        3618            0.0000000000
     10855      3619  TIP3      OH2            29.2571003705       16.9635828873       -8.9773330134  W2        3619            0.0000000000
     10856      3619  TIP3      H1             29.3332603705       17.0587428873       -9.9267330134  W2        3619            0.0000000000
     10857      3619  TIP3      H2             28.9820203705       16.0558728873       -8.8484230134  W2        3619            0.0000000000
     10858      3620  TIP3      OH2            30.6103603705       16.9893628873      -13.2848330134  W2        3620            0.0000000000
     10859      3620  TIP3      H1             29.9074703705       17.6042828873      -13.4946930134  W2        3620            0.0000000000
     10860      3620  TIP3      H2             30.1655003705       16.1520328873      -13.1537430134  W2        3620            0.0000000000
     10861      3621  TIP3      OH2            17.8582903705       32.7529228873      -13.7386930134  W2        3621            0.0000000000
     10862      3621  TIP3      H1             17.1732803705       32.7148128873      -14.4061830134  W2        3621            0.0000000000
     10863      3621  TIP3      H2             17.8620103705       33.6656828873      -13.4504830134  W2        3621            0.0000000000
     10864      3622  TIP3      OH2            19.8182503705       18.7208528873      -16.1937930134  W2        3622            0.0000000000
     10865      3622  TIP3      H1             20.3095903705       18.0910928873      -16.7212430134  W2        3622            0.0000000000
     10866      3622  TIP3      H2             20.4418803705       19.0167928873      -15.5306730134  W2        3622            0.0000000000
     10867      3623  TIP3      OH2            24.8442603705       19.0140028873      -13.7367430134  W2        3623            0.0000000000
     10868      3623  TIP3      H1             25.0223903705       18.3673228873      -13.0538830134  W2        3623            0.0000000000
     10869      3623  TIP3      H2             24.7908803705       19.8477728873      -13.2696330134  W2        3623            0.0000000000
     10870      3624  TIP3      OH2            26.7226403705       33.9624128873      -15.3410730134  W2        3624            0.0000000000
     10871      3624  TIP3      H1             27.5886603705       34.3291528873      -15.5192530134  W2        3624            0.0000000000
     10872      3624  TIP3      H2             26.4759203705       33.5232128873      -16.1549930134  W2        3624            0.0000000000
     10873      3625  TIP3      OH2            33.4316003705       33.5254428873      -12.6619630134  W2        3625            0.0000000000
     10874      3625  TIP3      H1             33.2373103705       32.7776528873      -13.2270030134  W2        3625            0.0000000000
     10875      3625  TIP3      H2             33.3926103705       34.2834528873      -13.2451730134  W2        3625            0.0000000000
     10876      3626  TIP3      OH2            19.0788003705       17.5210828873       -0.9221930134  W2        3626            0.0000000000
     10877      3626  TIP3      H1             18.7126203705       16.7553428873       -0.4797230134  W2        3626            0.0000000000
     10878      3626  TIP3      H2             19.9916503705       17.5501028873       -0.6356830134  W2        3626            0.0000000000
     10879      3627  TIP3      OH2            21.0518803705       16.8715228873        0.6135169866  W2        3627            0.0000000000
     10880      3627  TIP3      H1             21.9502403705       16.5975428873        0.4288569866  W2        3627            0.0000000000
     10881      3627  TIP3      H2             20.6651903705       16.1291228873        1.0777769866  W2        3627            0.0000000000
     10882      3628  TIP3      OH2            19.6764103705       33.6730028873      -16.7134830134  W2        3628            0.0000000000
     10883      3628  TIP3      H1             19.4088703705       33.9592928873      -15.8401730134  W2        3628            0.0000000000
     10884      3628  TIP3      H2             20.4476703705       33.1269228873      -16.5612330134  W2        3628            0.0000000000
     10885      3629  TIP3      OH2            29.4731103705       16.2040528873        0.7957969866  W2        3629            0.0000000000
     10886      3629  TIP3      H1             29.5498303705       15.7781228873        1.6495669866  W2        3629            0.0000000000
     10887      3629  TIP3      H2             30.3667703705       16.2175228873        0.4531469866  W2        3629            0.0000000000
     10888      3630  TIP3      OH2            32.6492203705       32.2766828873       -0.5117830134  W2        3630            0.0000000000
     10889      3630  TIP3      H1             31.8674103705       32.0904828873       -1.0317230134  W2        3630            0.0000000000
     10890      3630  TIP3      H2             32.5772103705       33.2061128873       -0.2945330134  W2        3630            0.0000000000
     10891      3631  TIP3      OH2            38.3568903705       25.0324028873       -5.4692530134  W2        3631            0.0000000000
     10892      3631  TIP3      H1             38.3981003705       24.4067328873       -4.7460130134  W2        3631            0.0000000000
     10893      3631  TIP3      H2             39.0596603705       25.6562628873       -5.2872130134  W2        3631            0.0000000000
     10894      3632  TIP3      OH2            39.2802003705       29.4822928873       -6.9343430134  W2        3632            0.0000000000
     10895      3632  TIP3      H1             38.9107203705       28.6803428873       -7.3039130134  W2        3632            0.0000000000
     10896      3632  TIP3      H2             40.2213103705       29.3137828873       -6.8880030134  W2        3632            0.0000000000
     10897      3633  TIP3      OH2            35.8902503705       23.1425528873      -11.5414630134  W2        3633            0.0000000000
     10898      3633  TIP3      H1             35.4425903705       23.9884228873      -11.5598130134  W2        3633            0.0000000000
     10899      3633  TIP3      H2             35.3293703705       22.5629728873      -12.0569530134  W2        3633            0.0000000000
     10900      3634  TIP3      OH2            36.6008603705       25.3045128873       -9.4156630134  W2        3634            0.0000000000
     10901      3634  TIP3      H1             36.8142103705       24.5346728873       -8.8883630134  W2        3634            0.0000000000
     10902      3634  TIP3      H2             37.3386203705       25.3941828873      -10.0189030134  W2        3634            0.0000000000
     10903      3635  TIP3      OH2            37.2935103705       22.7427928873       -8.2940430134  W2        3635            0.0000000000
     10904      3635  TIP3      H1             37.9471703705       22.1929628873       -7.8620330134  W2        3635            0.0000000000
     10905      3635  TIP3      H2             37.3174403705       22.4686928873       -9.2108430134  W2        3635            0.0000000000
     10906      3636  TIP3      OH2            39.4835503705       19.2640528873       -4.9821030134  W2        3636            0.0000000000
     10907      3636  TIP3      H1             39.2647203705       19.7941128873       -5.7485030134  W2        3636            0.0000000000
     10908      3636  TIP3      H2             38.8156403705       19.4906028873       -4.3349630134  W2        3636            0.0000000000
     10909      3637  TIP3      OH2            39.0772803705       21.1562328873       -7.0298830134  W2        3637            0.0000000000
     10910      3637  TIP3      H1             39.6909103705       21.7889928873       -6.6566430134  W2        3637            0.0000000000
     10911      3637  TIP3      H2             39.5893503705       20.6837328873       -7.6861930134  W2        3637            0.0000000000
     10912      3638  TIP3      OH2            40.4601203705       28.9039228873       -3.9075830134  W2        3638            0.0000000000
     10913      3638  TIP3      H1             40.4548803705       29.7832728873       -4.2856530134  W2        3638            0.0000000000
     10914      3638  TIP3      H2             39.6065303705       28.8203328873       -3.4825930134  W2        3638            0.0000000000
     10915      3639  TIP3      OH2            36.5812103705       28.5747128873      -13.1256530134  W2        3639            0.0000000000
     10916      3639  TIP3      H1             36.3093003705       28.8038128873      -14.0143630134  W2        3639            0.0000000000
     10917      3639  TIP3      H2             36.6267803705       29.4125928873      -12.6651230134  W2        3639            0.0000000000
     10918      3640  TIP3      OH2            38.9942603705       25.6130128873       -2.6156830134  W2        3640            0.0000000000
     10919      3640  TIP3      H1             39.0645803705       26.2636928873       -1.9171830134  W2        3640            0.0000000000
     10920      3640  TIP3      H2             38.1034803705       25.7157628873       -2.9505930134  W2        3640            0.0000000000
     10921      3641  TIP3      OH2            40.3138603705       31.4864028873       -1.0808730134  W2        3641            0.0000000000
     10922      3641  TIP3      H1             40.3213903705       31.3503728873       -2.0283230134  W2        3641            0.0000000000
     10923      3641  TIP3      H2             39.3979003705       31.3692128873       -0.8288730134  W2        3641            0.0000000000
     10924      3642  TIP3      OH2            39.8179203705       25.3165028873      -12.6056630134  W2        3642            0.0000000000
     10925      3642  TIP3      H1             39.5260503705       26.0846728873      -13.0965330134  W2        3642            0.0000000000
     10926      3642  TIP3      H2             39.1434403705       24.6571228873      -12.7685230134  W2        3642            0.0000000000
     10927      3643  TIP3      OH2            35.9109303705       27.6794228873       -3.7906830134  W2        3643            0.0000000000
     10928      3643  TIP3      H1             35.4097703705       27.6513628873       -4.6057130134  W2        3643            0.0000000000
     10929      3643  TIP3      H2             35.9163003705       26.7737428873       -3.4809530134  W2        3643            0.0000000000
     10930      3644  TIP3      OH2            35.6612003705       30.4598028873       -6.9066630134  W2        3644            0.0000000000
     10931      3644  TIP3      H1             36.6072603705       30.3155028873       -6.9257130134  W2        3644            0.0000000000
     10932      3644  TIP3      H2             35.5488303705       31.2440828873       -6.3695430134  W2        3644            0.0000000000
     10933      3645  TIP3      OH2            38.9054103705       33.2607628873      -10.7611930134  W2        3645            0.0000000000
     10934      3645  TIP3      H1             39.0574503705       32.9128028873       -9.8825430134  W2        3645            0.0000000000
     10935      3645  TIP3      H2             38.0544503705       32.9044928873      -11.0164730134  W2        3645            0.0000000000
     10936      3646  TIP3      OH2            38.1599803705       29.0029628873       -2.7474030134  W2        3646            0.0000000000
     10937      3646  TIP3      H1             38.3761103705       28.6415228873       -1.8878230134  W2        3646            0.0000000000
     10938      3646  TIP3      H2             37.3044503705       28.6283428873       -2.9570530134  W2        3646            0.0000000000
     10939      3647  TIP3      OH2            38.6198403705       22.7588128873       -3.7897630134  W2        3647            0.0000000000
     10940      3647  TIP3      H1             38.5817803705       23.1589728873       -2.9210530134  W2        3647            0.0000000000
     10941      3647  TIP3      H2             38.1289503705       21.9420528873       -3.6994730134  W2        3647            0.0000000000
     10942      3648  TIP3      OH2            35.2279203705       19.8749928873       -9.9392930134  W2        3648            0.0000000000
     10943      3648  TIP3      H1             35.8586903705       19.8462028873       -9.2199030134  W2        3648            0.0000000000
     10944      3648  TIP3      H2             35.6773503705       19.4498628873      -10.6697030134  W2        3648            0.0000000000
     10945      3649  TIP3      OH2            36.5021303705       20.6211928873      -14.5152530134  W2        3649            0.0000000000
     10946      3649  TIP3      H1             36.9763003705       21.2121828873      -15.1001630134  W2        3649            0.0000000000
     10947      3649  TIP3      H2             35.7847703705       21.1514828873      -14.1682430134  W2        3649            0.0000000000
     10948      3650  TIP3      OH2            38.2765703705       21.7158528873      -10.8317930134  W2        3650            0.0000000000
     10949      3650  TIP3      H1             37.3873703705       21.8154028873      -11.1718330134  W2        3650            0.0000000000
     10950      3650  TIP3      H2             38.5730603705       20.8741528873      -11.1780030134  W2        3650            0.0000000000
     10951      3651  TIP3      OH2            38.7389103705       27.4675228873       -0.5095630134  W2        3651            0.0000000000
     10952      3651  TIP3      H1             39.4711503705       27.7221128873        0.0518869866  W2        3651            0.0000000000
     10953      3651  TIP3      H2             37.9587803705       27.6720628873        0.0059769866  W2        3651            0.0000000000
     10954      3652  TIP3      OH2            39.7701703705       19.0111328873      -11.3531130134  W2        3652            0.0000000000
     10955      3652  TIP3      H1             39.4531203705       18.1086628873      -11.3885730134  W2        3652            0.0000000000
     10956      3652  TIP3      H2             40.5515803705       19.0128728873      -11.9059530134  W2        3652            0.0000000000
     10957      3653  TIP3      OH2            39.0638803705       26.7709028873       -7.9031230134  W2        3653            0.0000000000
     10958      3653  TIP3      H1             39.8086003705       26.7684728873       -8.5044730134  W2        3653            0.0000000000
     10959      3653  TIP3      H2             39.1415403705       25.9472828873       -7.4216130134  W2        3653            0.0000000000
     10960      3654  TIP3      OH2            36.0718503705       25.2315928873       -2.5882730134  W2        3654            0.0000000000
     10961      3654  TIP3      H1             36.2947103705       24.8135528873       -1.7565230134  W2        3654            0.0000000000
     10962      3654  TIP3      H2             35.4698603705       24.6190928873       -3.0109930134  W2        3654            0.0000000000
     10963      3655  TIP3      OH2            37.1935903705       25.1511328873      -15.9117330134  W2        3655            0.0000000000
     10964      3655  TIP3      H1             37.8095803705       25.7778528873      -15.5322530134  W2        3655            0.0000000000
     10965      3655  TIP3      H2             36.3318503705       25.4671128873      -15.6400830134  W2        3655            0.0000000000
     10966      3656  TIP3      OH2            37.7058003705       19.9848628873       -3.0301330134  W2        3656            0.0000000000
     10967      3656  TIP3      H1             36.8130303705       20.3234028873       -3.0977330134  W2        3656            0.0000000000
     10968      3656  TIP3      H2             37.6070803705       19.1294728873       -2.6120530134  W2        3656            0.0000000000
     10969      3657  TIP3      OH2            37.3570003705       31.7893028873       -4.5951930134  W2        3657            0.0000000000
     10970      3657  TIP3      H1             37.5740303705       30.8575428873       -4.6262230134  W2        3657            0.0000000000
     10971      3657  TIP3      H2             37.6033503705       32.0638028873       -3.7119130134  W2        3657            0.0000000000
     10972      3658  TIP3      OH2            38.6086303705       27.0635128873      -14.4191730134  W2        3658            0.0000000000
     10973      3658  TIP3      H1             37.9225603705       27.4157628873      -13.8522030134  W2        3658            0.0000000000
     10974      3658  TIP3      H2             39.1314203705       27.8264728873      -14.6657430134  W2        3658            0.0000000000
     10975      3659  TIP3      OH2            39.2245203705       29.6774028873      -15.5223930134  W2        3659            0.0000000000
     10976      3659  TIP3      H1             39.8166703705       30.3768828873      -15.2461530134  W2        3659            0.0000000000
     10977      3659  TIP3      H2             39.6838203705       29.2443528873      -16.2419330134  W2        3659            0.0000000000
     10978      3660  TIP3      OH2            37.5404403705       22.3417028873      -16.4064530134  W2        3660            0.0000000000
     10979      3660  TIP3      H1             37.4957003705       23.2810128873      -16.2277530134  W2        3660            0.0000000000
     10980      3660  TIP3      H2             36.6527603705       22.1061928873      -16.6762430134  W2        3660            0.0000000000
     10981      3661  TIP3      OH2            38.3486403705       17.1233628873       -7.7333530134  W2        3661            0.0000000000
     10982      3661  TIP3      H1             38.1196203705       17.1826128873       -8.6608530134  W2        3661            0.0000000000
     10983      3661  TIP3      H2             37.9059803705       16.3319128873       -7.4269430134  W2        3661            0.0000000000
     10984      3662  TIP3      OH2            37.2789703705       31.0640728873      -11.5727730134  W2        3662            0.0000000000
     10985      3662  TIP3      H1             36.4468303705       31.5363428873      -11.5456330134  W2        3662            0.0000000000
     10986      3662  TIP3      H2             37.8248003705       31.5738328873      -12.1714630134  W2        3662            0.0000000000
     10987      3663  TIP3      OH2            36.5673403705       33.6764428873       -0.2429730134  W2        3663            0.0000000000
     10988      3663  TIP3      H1             37.1075603705       33.4598428873        0.5169469866  W2        3663            0.0000000000
     10989      3663  TIP3      H2             36.0861403705       32.8710428873       -0.4327230134  W2        3663            0.0000000000
     10990      3664  TIP3      OH2            36.4742903705       27.4868528873        0.7114569866  W2        3664            0.0000000000
     10991      3664  TIP3      H1             36.6183403705       26.5849228873        0.4251269866  W2        3664            0.0000000000
     10992      3664  TIP3      H2             35.7020303705       27.7730628873        0.2236869866  W2        3664            0.0000000000
     10993      3665  TIP3      OH2            37.3069403705       24.6871828873        0.1313869866  W2        3665            0.0000000000
     10994      3665  TIP3      H1             37.7150603705       23.8298428873        0.0104469866  W2        3665            0.0000000000
     10995      3665  TIP3      H2             37.0467003705       24.7013128873        1.0524169866  W2        3665            0.0000000000
     10996      3666  TIP3      OH2            40.0719703705       22.2491828873        0.4995469866  W2        3666            0.0000000000
     10997      3666  TIP3      H1             39.3048703705       21.7166628873        0.2893069866  W2        3666            0.0000000000
     10998      3666  TIP3      H2             40.7508703705       21.9392228873       -0.0998230134  W2        3666            0.0000000000
     10999      3667  TIP3      OH2            38.2522503705       20.1695628873        0.2040169866  W2        3667            0.0000000000
     11000      3667  TIP3      H1             38.4639903705       19.4631728873       -0.4062330134  W2        3667            0.0000000000
     11001      3667  TIP3      H2             38.1410003705       19.7321628873        1.0481369866  W2        3667            0.0000000000
     11002      3668  TIP3      OH2            36.5017403705       29.3729728873      -16.1037930134  W2        3668            0.0000000000
     11003      3668  TIP3      H1             37.4156603705       29.4518628873      -15.8304030134  W2        3668            0.0000000000
     11004      3668  TIP3      H2             36.5090503705       28.6859328873      -16.7702330134  W2        3668            0.0000000000
     11005      3669  TIP3      OH2            35.1508003705       34.7658228873      -11.0264030134  W2        3669            0.0000000000
     11006      3669  TIP3      H1             34.5035103705       34.3039928873      -11.5592830134  W2        3669            0.0000000000
     11007      3669  TIP3      H2             35.5052603705       34.0941528873      -10.4437830134  W2        3669            0.0000000000
     11008      3670  TIP3      OH2            36.0207203705       32.8465228873       -9.2217830134  W2        3670            0.0000000000
     11009      3670  TIP3      H1             35.6864003705       31.9662528873       -9.0497630134  W2        3670            0.0000000000
     11010      3670  TIP3      H2             36.2429603705       33.1920228873       -8.3572230134  W2        3670            0.0000000000
     11011      3671  TIP3      OH2            36.1006703705       25.9220628873       -6.7702930134  W2        3671            0.0000000000
     11012      3671  TIP3      H1             36.2849603705       25.8402328873       -7.7060030134  W2        3671            0.0000000000
     11013      3671  TIP3      H2             36.9499603705       25.7977628873       -6.3466530134  W2        3671            0.0000000000
     11014      3672  TIP3      OH2            35.6981503705       21.1925628873       -0.6294130134  W2        3672            0.0000000000
     11015      3672  TIP3      H1             36.6176403705       21.0703928873       -0.3931030134  W2        3672            0.0000000000
     11016      3672  TIP3      H2             35.2486003705       20.4425328873       -0.2400630134  W2        3672            0.0000000000
     11017      3673  TIP3      OH2            36.9194003705       19.5047228873       -7.7381230134  W2        3673            0.0000000000
     11018      3673  TIP3      H1             37.3645603705       18.7129728873       -7.4361530134  W2        3673            0.0000000000
     11019      3673  TIP3      H2             37.3857003705       20.2212428873       -7.3075630134  W2        3673            0.0000000000
     11020      3674  TIP3      OH2            35.2234303705       22.5040228873       -6.6691030134  W2        3674            0.0000000000
     11021      3674  TIP3      H1             35.7154103705       22.2830728873       -7.4599030134  W2        3674            0.0000000000
     11022      3674  TIP3      H2             35.5855203705       23.3443628873       -6.3881530134  W2        3674            0.0000000000
     11023      3675  TIP3      OH2            35.5370803705       18.7619328873      -12.6148630134  W2        3675            0.0000000000
     11024      3675  TIP3      H1             34.6119203705       18.9705928873      -12.7443130134  W2        3675            0.0000000000
     11025      3675  TIP3      H2             35.9910703705       19.2460128873      -13.3046330134  W2        3675            0.0000000000
     11026      3676  TIP3      OH2            35.5006203705       17.4998328873       -4.2706130134  W2        3676            0.0000000000
     11027      3676  TIP3      H1             34.8356703705       17.2538628873       -3.6275230134  W2        3676            0.0000000000
     11028      3676  TIP3      H2             35.0577503705       18.1218728873       -4.8478130134  W2        3676            0.0000000000
     11029      3677  TIP3      OH2            37.6925503705       30.6752428873       -0.1260330134  W2        3677            0.0000000000
     11030      3677  TIP3      H1             36.8718003705       30.8498928873       -0.5865630134  W2        3677            0.0000000000
     11031      3677  TIP3      H2             37.4403303705       30.6017128873        0.7944069866  W2        3677            0.0000000000
     11032      3678  TIP3      OH2            38.0485103705       34.9057528873       -3.8201030134  W2        3678            0.0000000000
     11033      3678  TIP3      H1             37.3281503705       35.3458528873       -4.2713330134  W2        3678            0.0000000000
     11034      3678  TIP3      H2             37.6829103705       34.6552228873       -2.9717030134  W2        3678            0.0000000000
     11035      3679  TIP3      OH2            40.5157703705       34.5061428873       -4.7903830134  W2        3679            0.0000000000
     11036      3679  TIP3      H1             39.6509903705       34.5779928873       -4.3863730134  W2        3679            0.0000000000
     11037      3679  TIP3      H2             40.4606703705       35.0528728873       -5.5741330134  W2        3679            0.0000000000
     11038      3680  TIP3      OH2            37.4633203705       33.5290028873       -6.9099230134  W2        3680            0.0000000000
     11039      3680  TIP3      H1             37.4449203705       33.1035128873       -6.0526930134  W2        3680            0.0000000000
     11040      3680  TIP3      H2             38.2681103705       33.2105028873       -7.3187030134  W2        3680            0.0000000000
     11041      3681  TIP3      OH2            39.6046303705       32.2388728873       -8.2549330134  W2        3681            0.0000000000
     11042      3681  TIP3      H1             39.3857003705       31.3226128873       -8.0853330134  W2        3681            0.0000000000
     11043      3681  TIP3      H2             40.4288503705       32.3789128873       -7.7887930134  W2        3681            0.0000000000
     11044      3682  TIP3      OH2            37.9770003705       17.0068928873      -10.4398130134  W2        3682            0.0000000000
     11045      3682  TIP3      H1             37.1999803705       16.7723828873      -10.9472230134  W2        3682            0.0000000000
     11046      3682  TIP3      H2             38.5073603705       16.2101028873      -10.4310130134  W2        3682            0.0000000000
     11047      3683  TIP3      OH2            36.8133403705       16.8047028873      -14.6362030134  W2        3683            0.0000000000
     11048      3683  TIP3      H1             37.2524103705       17.4157528873      -15.2278530134  W2        3683            0.0000000000
     11049      3683  TIP3      H2             36.1795803705       17.3431128873      -14.1622030134  W2        3683            0.0000000000
     11050      3684  TIP3      OH2            36.7142903705       32.7529228873      -13.7386930134  W2        3684            0.0000000000
     11051      3684  TIP3      H1             36.0292803705       32.7148128873      -14.4061830134  W2        3684            0.0000000000
     11052      3684  TIP3      H2             36.7180103705       33.6656828873      -13.4504830134  W2        3684            0.0000000000
     11053      3685  TIP3      OH2            38.6742503705       18.7208528873      -16.1937930134  W2        3685            0.0000000000
     11054      3685  TIP3      H1             39.1655903705       18.0910928873      -16.7212430134  W2        3685            0.0000000000
     11055      3685  TIP3      H2             39.2978803705       19.0167928873      -15.5306730134  W2        3685            0.0000000000
     11056      3686  TIP3      OH2            37.9348003705       17.5210828873       -0.9221930134  W2        3686            0.0000000000
     11057      3686  TIP3      H1             37.5686203705       16.7553428873       -0.4797230134  W2        3686            0.0000000000
     11058      3686  TIP3      H2             38.8476503705       17.5501028873       -0.6356830134  W2        3686            0.0000000000
     11059      3687  TIP3      OH2            39.9078803705       16.8715228873        0.6135169866  W2        3687            0.0000000000
     11060      3687  TIP3      H1             40.8062403705       16.5975428873        0.4288569866  W2        3687            0.0000000000
     11061      3687  TIP3      H2             39.5211903705       16.1291228873        1.0777769866  W2        3687            0.0000000000
     11062      3688  TIP3      OH2            38.5324103705       33.6730028873      -16.7134830134  W2        3688            0.0000000000
     11063      3688  TIP3      H1             38.2648703705       33.9592928873      -15.8401730134  W2        3688            0.0000000000
     11064      3688  TIP3      H2             39.3036703705       33.1269228873      -16.5612330134  W2        3688            0.0000000000
     11065      3689  TIP3      OH2           -22.3831896295       38.3078628873       -5.7955230134  W2        3689            0.0000000000
     11066      3689  TIP3      H1            -22.3339696295       38.9179828873       -5.0596130134  W2        3689            0.0000000000
     11067      3689  TIP3      H2            -21.9576796295       38.7689528873       -6.5184130134  W2        3689            0.0000000000
     11068      3690  TIP3      OH2           -34.7506396295       39.2022128873       -9.0561830134  W2        3690            0.0000000000
     11069      3690  TIP3      H1            -34.7075296295       40.0620628873       -9.4745530134  W2        3690            0.0000000000
     11070      3690  TIP3      H2            -35.2082296295       38.6496828873       -9.6898630134  W2        3690            0.0000000000
     11071      3691  TIP3      OH2           -27.0283696295       39.3327728873      -10.6553530134  W2        3691            0.0000000000
     11072      3691  TIP3      H1            -26.3819396295       39.0040928873      -10.0305930134  W2        3691            0.0000000000
     11073      3691  TIP3      H2            -26.5184296295       39.8506728873      -11.2782130134  W2        3691            0.0000000000
     11074      3692  TIP3      OH2           -21.9917296295       39.7857828873       -3.5595430134  W2        3692            0.0000000000
     11075      3692  TIP3      H1            -22.6802696295       40.4438528873       -3.6548830134  W2        3692            0.0000000000
     11076      3692  TIP3      H2            -21.9762696295       39.5885728873       -2.6230030134  W2        3692            0.0000000000
     11077      3693  TIP3      OH2           -35.9404496295       38.1200528873       -4.9821030134  W2        3693            0.0000000000
     11078      3693  TIP3      H1            -36.1592796295       38.6501128873       -5.7485030134  W2        3693            0.0000000000
     11079      3693  TIP3      H2            -36.6083596295       38.3466028873       -4.3349630134  W2        3693            0.0000000000
     11080      3694  TIP3      OH2           -25.2645296295       38.6237028873       -8.6747630134  W2        3694            0.0000000000
     11081      3694  TIP3      H1            -25.4797296295       37.8580428873       -8.1421630134  W2        3694            0.0000000000
     11082      3694  TIP3      H2            -24.6087896295       39.0961628873       -8.1619130134  W2        3694            0.0000000000
     11083      3695  TIP3      OH2           -36.3467196295       40.0122328873       -7.0298830134  W2        3695            0.0000000000
     11084      3695  TIP3      H1            -35.7330896295       40.6449928873       -6.6566430134  W2        3695            0.0000000000
     11085      3695  TIP3      H2            -35.8346496295       39.5397328873       -7.6861930134  W2        3695            0.0000000000
     11086      3696  TIP3      OH2           -24.9171196295       37.3388328873       -4.9954130134  W2        3696            0.0000000000
     11087      3696  TIP3      H1            -25.6531996295       37.9495428873       -5.0332830134  W2        3696            0.0000000000
     11088      3696  TIP3      H2            -24.2337196295       37.7537328873       -5.5217730134  W2        3696            0.0000000000
     11089      3697  TIP3      OH2           -31.9139796295       35.4255628873       -7.5296130134  W2        3697            0.0000000000
     11090      3697  TIP3      H1            -32.0315596295       34.4771628873       -7.5837830134  W2        3697            0.0000000000
     11091      3697  TIP3      H2            -32.7689696295       35.7581728873       -7.2565030134  W2        3697            0.0000000000
     11092      3698  TIP3      OH2           -23.6719296295       35.3847828873      -14.5793530134  W2        3698            0.0000000000
     11093      3698  TIP3      H1            -24.5718596295       35.5236828873      -14.2842930134  W2        3698            0.0000000000
     11094      3698  TIP3      H2            -23.4200896295       36.2162428873      -14.9811830134  W2        3698            0.0000000000
     11095      3699  TIP3      OH2           -34.6452196295       36.3290128873       -6.7519830134  W2        3699            0.0000000000
     11096      3699  TIP3      H1            -35.5068496295       36.2418328873       -7.1596930134  W2        3699            0.0000000000
     11097      3699  TIP3      H2            -34.6676496295       37.1850228873       -6.3242230134  W2        3699            0.0000000000
     11098      3700  TIP3      OH2           -29.9824396295       36.0510528873       -3.3772830134  W2        3700            0.0000000000
     11099      3700  TIP3      H1            -29.5621296295       35.6357628873       -2.6242230134  W2        3700            0.0000000000
     11100      3700  TIP3      H2            -30.9154796295       35.8723828873       -3.2600830134  W2        3700            0.0000000000
     11101      3701  TIP3      OH2           -26.6559496295       39.8065728873       -2.5238330134  W2        3701            0.0000000000
     11102      3701  TIP3      H1            -27.1699996295       39.6807928873       -1.7262330134  W2        3701            0.0000000000
     11103      3701  TIP3      H2            -26.8114796295       40.7188828873       -2.7682130134  W2        3701            0.0000000000
     11104      3702  TIP3      OH2           -30.3207096295       38.5433928873      -16.0922030134  W2        3702            0.0000000000
     11105      3702  TIP3      H1            -30.5742296295       38.5625528873      -15.1693930134  W2        3702            0.0000000000
     11106      3702  TIP3      H2            -30.5774996295       37.6719328873      -16.3935830134  W2        3702            0.0000000000
     11107      3703  TIP3      OH2           -33.4384196295       38.9890428873      -16.9911630134  W2        3703            0.0000000000
     11108      3703  TIP3      H1            -33.8693496295       38.5440528873      -16.2614230134  W2        3703            0.0000000000
     11109      3703  TIP3      H2            -34.1565496295       39.3606728873      -17.5034130134  W2        3703            0.0000000000
     11110      3704  TIP3      OH2           -40.1960796295       38.7309928873       -9.9392930134  W2        3704            0.0000000000
     11111      3704  TIP3      H1            -39.5653096295       38.7022028873       -9.2199030134  W2        3704            0.0000000000
     11112      3704  TIP3      H2            -39.7466496295       38.3058628873      -10.6697030134  W2        3704            0.0000000000
     11113      3705  TIP3      OH2           -38.9218696295       39.4771928873      -14.5152530134  W2        3705            0.0000000000
     11114      3705  TIP3      H1            -38.4476996295       40.0681828873      -15.1001630134  W2        3705            0.0000000000
     11115      3705  TIP3      H2            -39.6392296295       40.0074828873      -14.1682430134  W2        3705            0.0000000000
     11116      3706  TIP3      OH2           -31.9757696295       38.9432228873       -9.6585530134  W2        3706            0.0000000000
     11117      3706  TIP3      H1            -32.8866596295       38.9999028873       -9.3699530134  W2        3706            0.0000000000
     11118      3706  TIP3      H2            -31.4704796295       38.8827728873       -8.8478330134  W2        3706            0.0000000000
     11119      3707  TIP3      OH2           -27.5705796295       38.1778528873       -6.3943730134  W2        3707            0.0000000000
     11120      3707  TIP3      H1            -28.2474196295       38.3091628873       -5.7304030134  W2        3707            0.0000000000
     11121      3707  TIP3      H2            -28.0560896295       38.0228028873       -7.2046030134  W2        3707            0.0000000000
     11122      3708  TIP3      OH2           -35.6538296295       37.8671328873      -11.3531130134  W2        3708            0.0000000000
     11123      3708  TIP3      H1            -35.9708796295       36.9646628873      -11.3885730134  W2        3708            0.0000000000
     11124      3708  TIP3      H2            -34.8724196295       37.8688728873      -11.9059530134  W2        3708            0.0000000000
     11125      3709  TIP3      OH2           -32.0292096295       40.1191328873       -5.3575530134  W2        3709            0.0000000000
     11126      3709  TIP3      H1            -32.8646796295       40.5730828873       -5.2473130134  W2        3709            0.0000000000
     11127      3709  TIP3      H2            -31.5051496295       40.3949828873       -4.6055630134  W2        3709            0.0000000000
     11128      3710  TIP3      OH2           -27.5872696295       39.1458928873      -15.4736530134  W2        3710            0.0000000000
     11129      3710  TIP3      H1            -28.5258496295       39.2574528873      -15.6247730134  W2        3710            0.0000000000
     11130      3710  TIP3      H2            -27.2900596295       40.0025828873      -15.1670830134  W2        3710            0.0000000000
     11131      3711  TIP3      OH2           -37.7181996295       38.8408628873       -3.0301330134  W2        3711            0.0000000000
     11132      3711  TIP3      H1            -38.6109696295       39.1794028873       -3.0977330134  W2        3711            0.0000000000
     11133      3711  TIP3      H2            -37.8169196295       37.9854728873       -2.6120530134  W2        3711            0.0000000000
     11134      3712  TIP3      OH2           -28.9838596295       38.5818928873       -4.1402730134  W2        3712            0.0000000000
     11135      3712  TIP3      H1            -28.2850696295       38.6557628873       -3.4903030134  W2        3712            0.0000000000
     11136      3712  TIP3      H2            -29.3647196295       37.7173928873       -3.9859830134  W2        3712            0.0000000000
     11137      3713  TIP3      OH2           -28.1993696295       38.2340628873      -13.0430430134  W2        3713            0.0000000000
     11138      3713  TIP3      H1            -27.9795396295       38.7056028873      -13.8465030134  W2        3713            0.0000000000
     11139      3713  TIP3      H2            -27.6409696295       38.6283228873      -12.3729830134  W2        3713            0.0000000000
     11140      3714  TIP3      OH2           -30.9993796295       39.9619428873      -12.2082030134  W2        3714            0.0000000000
     11141      3714  TIP3      H1            -30.1871196295       40.4662628873      -12.1620330134  W2        3714            0.0000000000
     11142      3714  TIP3      H2            -31.2440796295       39.8169128873      -11.2942430134  W2        3714            0.0000000000
     11143      3715  TIP3      OH2           -30.1157096295       37.0432428873      -11.2700930134  W2        3715            0.0000000000
     11144      3715  TIP3      H1            -30.4623596295       37.6603028873      -10.6256630134  W2        3715            0.0000000000
     11145      3715  TIP3      H2            -29.4570196295       37.5438128873      -11.7515430134  W2        3715            0.0000000000
     11146      3716  TIP3      OH2           -34.4580096295       38.1061828873      -14.5828430134  W2        3716            0.0000000000
     11147      3716  TIP3      H1            -34.5415296295       38.9944928873      -14.2362030134  W2        3716            0.0000000000
     11148      3716  TIP3      H2            -33.5679796295       37.8408528873      -14.3511630134  W2        3716            0.0000000000
     11149      3717  TIP3      OH2           -24.2591596295       38.8552428873       -2.1885730134  W2        3717            0.0000000000
     11150      3717  TIP3      H1            -25.1755796295       39.1174128873       -2.2762030134  W2        3717            0.0000000000
     11151      3717  TIP3      H2            -23.9236596295       38.8521428873       -3.0850430134  W2        3717            0.0000000000
     11152      3718  TIP3      OH2           -37.0753596295       35.9793628873       -7.7333530134  W2        3718            0.0000000000
     11153      3718  TIP3      H1            -37.3043796295       36.0386128873       -8.6608530134  W2        3718            0.0000000000
     11154      3718  TIP3      H2            -37.5180196295       35.1879128873       -7.4269430134  W2        3718            0.0000000000
     11155      3719  TIP3      OH2           -33.8306596295       39.9068328873       -1.4120130134  W2        3719            0.0000000000
     11156      3719  TIP3      H1            -33.6805696295       39.1779628873       -2.0140430134  W2        3719            0.0000000000
     11157      3719  TIP3      H2            -33.8284196295       40.6840028873       -1.9707930134  W2        3719            0.0000000000
     11158      3720  TIP3      OH2           -33.4180896295       38.2764128873       -3.9192730134  W2        3720            0.0000000000
     11159      3720  TIP3      H1            -32.8823396295       38.7280828873       -4.5713430134  W2        3720            0.0000000000
     11160      3720  TIP3      H2            -34.2701296295       38.1683928873       -4.3418630134  W2        3720            0.0000000000
     11161      3721  TIP3      OH2           -32.6125396295       35.7329828873       -3.4879130134  W2        3721            0.0000000000
     11162      3721  TIP3      H1            -32.7105796295       36.6793028873       -3.5932930134  W2        3721            0.0000000000
     11163      3721  TIP3      H2            -33.3549196295       35.3603628873       -3.9635630134  W2        3721            0.0000000000
     11164      3722  TIP3      OH2           -31.3484896295       40.0545228873        0.0759269866  W2        3722            0.0000000000
     11165      3722  TIP3      H1            -31.5839496295       39.8351928873        0.9774169866  W2        3722            0.0000000000
     11166      3722  TIP3      H2            -32.1317996295       39.8476428873       -0.4338230134  W2        3722            0.0000000000
     11167      3723  TIP3      OH2           -28.6328296295       39.1818728873       -0.8487230134  W2        3723            0.0000000000
     11168      3723  TIP3      H1            -29.5802896295       39.2138428873       -0.7163930134  W2        3723            0.0000000000
     11169      3723  TIP3      H2            -28.3201596295       38.5565828873       -0.1949030134  W2        3723            0.0000000000
     11170      3724  TIP3      OH2           -26.9986796295       37.8159828873        1.1564669866  W2        3724            0.0000000000
     11171      3724  TIP3      H1            -27.0954996295       36.8637128873        1.1506569866  W2        3724            0.0000000000
     11172      3724  TIP3      H2            -27.3203696295       38.0846628873        2.0170169866  W2        3724            0.0000000000
     11173      3725  TIP3      OH2           -37.1717496295       39.0255628873        0.2040169866  W2        3725            0.0000000000
     11174      3725  TIP3      H1            -36.9600096295       38.3191728873       -0.4062330134  W2        3725            0.0000000000
     11175      3725  TIP3      H2            -37.2829996295       38.5881628873        1.0481369866  W2        3725            0.0000000000
     11176      3726  TIP3      OH2           -32.3907296295       35.0267228873       -0.8166330134  W2        3726            0.0000000000
     11177      3726  TIP3      H1            -31.6788896295       34.3869428873       -0.8307230134  W2        3726            0.0000000000
     11178      3726  TIP3      H2            -32.4916896295       35.2935528873       -1.7303230134  W2        3726            0.0000000000
     11179      3727  TIP3      OH2           -32.0369796295       36.7095628873        1.2369969866  W2        3727            0.0000000000
     11180      3727  TIP3      H1            -32.1687596295       36.2339428873        0.4168469866  W2        3727            0.0000000000
     11181      3727  TIP3      H2            -32.6362396295       37.4539228873        1.1817069866  W2        3727            0.0000000000
     11182      3728  TIP3      OH2           -24.2806596295       38.7275828873      -17.2841530134  W2        3728            0.0000000000
     11183      3728  TIP3      H1            -23.6700796295       38.3562628873      -16.6473330134  W2        3728            0.0000000000
     11184      3728  TIP3      H2            -25.1175096295       38.3062728873      -17.0881530134  W2        3728            0.0000000000
     11185      3729  TIP3      OH2           -24.6480896295       40.2824228873      -12.3181630134  W2        3729            0.0000000000
     11186      3729  TIP3      H1            -24.3683796295       39.3754628873      -12.1939930134  W2        3729            0.0000000000
     11187      3729  TIP3      H2            -23.8889196295       40.7165728873      -12.7072430134  W2        3729            0.0000000000
     11188      3730  TIP3      OH2           -39.7258496295       40.0485628873       -0.6294130134  W2        3730            0.0000000000
     11189      3730  TIP3      H1            -38.8063596295       39.9263928873       -0.3931030134  W2        3730            0.0000000000
     11190      3730  TIP3      H2            -40.1753996295       39.2985328873       -0.2400630134  W2        3730            0.0000000000
     11191      3731  TIP3      OH2           -21.7239096295       35.5807128873        1.2471669866  W2        3731            0.0000000000
     11192      3731  TIP3      H1            -21.3742096295       34.9270628873        0.6416369866  W2        3731            0.0000000000
     11193      3731  TIP3      H2            -21.5769596295       36.4181228873        0.8074269866  W2        3731            0.0000000000
     11194      3732  TIP3      OH2           -24.0346096295       37.5453528873      -12.2699630134  W2        3732            0.0000000000
     11195      3732  TIP3      H1            -23.8521096295       37.0965028873      -11.4444630134  W2        3732            0.0000000000
     11196      3732  TIP3      H2            -24.6343196295       36.9607928873      -12.7335030134  W2        3732            0.0000000000
     11197      3733  TIP3      OH2           -38.5045996295       38.3607228873       -7.7381230134  W2        3733            0.0000000000
     11198      3733  TIP3      H1            -38.0594396295       37.5689728873       -7.4361530134  W2        3733            0.0000000000
     11199      3733  TIP3      H2            -38.0382996295       39.0772428873       -7.3075630134  W2        3733            0.0000000000
     11200      3734  TIP3      OH2           -22.2041896295       37.6901728873       -0.4037030134  W2        3734            0.0000000000
     11201      3734  TIP3      H1            -23.1216196295       37.9608828873       -0.4393530134  W2        3734            0.0000000000
     11202      3734  TIP3      H2            -22.0812496295       37.1550128873       -1.1877330134  W2        3734            0.0000000000
     11203      3735  TIP3      OH2           -22.1679896295       37.6131628873      -15.7419330134  W2        3735            0.0000000000
     11204      3735  TIP3      H1            -21.7557296295       36.8917328873      -16.2171330134  W2        3735            0.0000000000
     11205      3735  TIP3      H2            -21.4863396295       38.2826228873      -15.6835030134  W2        3735            0.0000000000
     11206      3736  TIP3      OH2           -39.8869196295       37.6179328873      -12.6148630134  W2        3736            0.0000000000
     11207      3736  TIP3      H1            -40.8120796295       37.8265928873      -12.7443130134  W2        3736            0.0000000000
     11208      3736  TIP3      H2            -39.4329296295       38.1020128873      -13.3046330134  W2        3736            0.0000000000
     11209      3737  TIP3      OH2           -39.9233796295       36.3558328873       -4.2706130134  W2        3737            0.0000000000
     11210      3737  TIP3      H1            -40.5883296295       36.1098628873       -3.6275230134  W2        3737            0.0000000000
     11211      3737  TIP3      H2            -40.3662496295       36.9778728873       -4.8478130134  W2        3737            0.0000000000
     11212      3738  TIP3      OH2           -23.2035996295       35.7798028873       -2.5846230134  W2        3738            0.0000000000
     11213      3738  TIP3      H1            -24.0162496295       36.1048328873       -2.9721530134  W2        3738            0.0000000000
     11214      3738  TIP3      H2            -22.9707496295       35.0196528873       -3.1177130134  W2        3738            0.0000000000
     11215      3739  TIP3      OH2           -29.7737496295       37.2288628873       -8.2618030134  W2        3739            0.0000000000
     11216      3739  TIP3      H1            -30.4480696295       36.5994228873       -8.0062230134  W2        3739            0.0000000000
     11217      3739  TIP3      H2            -29.2098296295       36.7447528873       -8.8650130134  W2        3739            0.0000000000
     11218      3740  TIP3      OH2           -24.6310296295       35.3362628873       -8.1490930134  W2        3740            0.0000000000
     11219      3740  TIP3      H1            -24.0272696295       35.8838028873       -8.6509930134  W2        3740            0.0000000000
     11220      3740  TIP3      H2            -25.5008296295       35.6553028873       -8.3896830134  W2        3740            0.0000000000
     11221      3741  TIP3      OH2           -22.9039896295       36.4751328873       -9.8160030134  W2        3741            0.0000000000
     11222      3741  TIP3      H1            -22.2922396295       35.9607028873      -10.3426430134  W2        3741            0.0000000000
     11223      3741  TIP3      H2            -22.5216496295       37.3523428873       -9.7925630134  W2        3741            0.0000000000
     11224      3742  TIP3      OH2           -37.4469996295       35.8628928873      -10.4398130134  W2        3742            0.0000000000
     11225      3742  TIP3      H1            -38.2240196295       35.6283828873      -10.9472230134  W2        3742            0.0000000000
     11226      3742  TIP3      H2            -36.9166396295       35.0661028873      -10.4310130134  W2        3742            0.0000000000
     11227      3743  TIP3      OH2           -38.6106596295       35.6607028873      -14.6362030134  W2        3743            0.0000000000
     11228      3743  TIP3      H1            -38.1715896295       36.2717528873      -15.2278530134  W2        3743            0.0000000000
     11229      3743  TIP3      H2            -39.2444196295       36.1991128873      -14.1622030134  W2        3743            0.0000000000
     11230      3744  TIP3      OH2           -32.8677396295       35.7896028873      -10.6265030134  W2        3744            0.0000000000
     11231      3744  TIP3      H1            -31.9933996295       36.1780328873      -10.6560730134  W2        3744            0.0000000000
     11232      3744  TIP3      H2            -33.0036596295       35.5743828873       -9.7037830134  W2        3744            0.0000000000
     11233      3745  TIP3      OH2           -27.3108996295       35.8195828873       -8.9773330134  W2        3745            0.0000000000
     11234      3745  TIP3      H1            -27.2347396295       35.9147428873       -9.9267330134  W2        3745            0.0000000000
     11235      3745  TIP3      H2            -27.5859796295       34.9118728873       -8.8484230134  W2        3745            0.0000000000
     11236      3746  TIP3      OH2           -25.9576396295       35.8453628873      -13.2848330134  W2        3746            0.0000000000
     11237      3746  TIP3      H1            -26.6605296295       36.4602828873      -13.4946930134  W2        3746            0.0000000000
     11238      3746  TIP3      H2            -26.4024996295       35.0080328873      -13.1537430134  W2        3746            0.0000000000
     11239      3747  TIP3      OH2           -36.7497496295       37.5768528873      -16.1937930134  W2        3747            0.0000000000
     11240      3747  TIP3      H1            -36.2584096295       36.9470928873      -16.7212430134  W2        3747            0.0000000000
     11241      3747  TIP3      H2            -36.1261196295       37.8727928873      -15.5306730134  W2        3747            0.0000000000
     11242      3748  TIP3      OH2           -31.7237396295       37.8700028873      -13.7367430134  W2        3748            0.0000000000
     11243      3748  TIP3      H1            -31.5456096295       37.2233228873      -13.0538830134  W2        3748            0.0000000000
     11244      3748  TIP3      H2            -31.7771196295       38.7037728873      -13.2696330134  W2        3748            0.0000000000
     11245      3749  TIP3      OH2           -37.4891996295       36.3770828873       -0.9221930134  W2        3749            0.0000000000
     11246      3749  TIP3      H1            -37.8553796295       35.6113428873       -0.4797230134  W2        3749            0.0000000000
     11247      3749  TIP3      H2            -36.5763496295       36.4061028873       -0.6356830134  W2        3749            0.0000000000
     11248      3750  TIP3      OH2           -35.5161196295       35.7275228873        0.6135169866  W2        3750            0.0000000000
     11249      3750  TIP3      H1            -34.6177596295       35.4535428873        0.4288569866  W2        3750            0.0000000000
     11250      3750  TIP3      H2            -35.9028096295       34.9851228873        1.0777769866  W2        3750            0.0000000000
     11251      3751  TIP3      OH2           -27.0948896295       35.0600528873        0.7957969866  W2        3751            0.0000000000
     11252      3751  TIP3      H1            -27.0181696295       34.6341228873        1.6495669866  W2        3751            0.0000000000
     11253      3751  TIP3      H2            -26.2012296295       35.0735228873        0.4531469866  W2        3751            0.0000000000
     11254      3752  TIP3      OH2            -3.5271896295       38.3078628873       -5.7955230134  W2        3752            0.0000000000
     11255      3752  TIP3      H1             -3.4779696295       38.9179828873       -5.0596130134  W2        3752            0.0000000000
     11256      3752  TIP3      H2             -3.1016796295       38.7689528873       -6.5184130134  W2        3752            0.0000000000
     11257      3753  TIP3      OH2           -15.8946396295       39.2022128873       -9.0561830134  W2        3753            0.0000000000
     11258      3753  TIP3      H1            -15.8515296295       40.0620628873       -9.4745530134  W2        3753            0.0000000000
     11259      3753  TIP3      H2            -16.3522296295       38.6496828873       -9.6898630134  W2        3753            0.0000000000
     11260      3754  TIP3      OH2            -8.1723696295       39.3327728873      -10.6553530134  W2        3754            0.0000000000
     11261      3754  TIP3      H1             -7.5259396295       39.0040928873      -10.0305930134  W2        3754            0.0000000000
     11262      3754  TIP3      H2             -7.6624296295       39.8506728873      -11.2782130134  W2        3754            0.0000000000
     11263      3755  TIP3      OH2            -3.1357296295       39.7857828873       -3.5595430134  W2        3755            0.0000000000
     11264      3755  TIP3      H1             -3.8242696295       40.4438528873       -3.6548830134  W2        3755            0.0000000000
     11265      3755  TIP3      H2             -3.1202696295       39.5885728873       -2.6230030134  W2        3755            0.0000000000
     11266      3756  TIP3      OH2           -17.0844496295       38.1200528873       -4.9821030134  W2        3756            0.0000000000
     11267      3756  TIP3      H1            -17.3032796295       38.6501128873       -5.7485030134  W2        3756            0.0000000000
     11268      3756  TIP3      H2            -17.7523596295       38.3466028873       -4.3349630134  W2        3756            0.0000000000
     11269      3757  TIP3      OH2            -6.4085296295       38.6237028873       -8.6747630134  W2        3757            0.0000000000
     11270      3757  TIP3      H1             -6.6237296295       37.8580428873       -8.1421630134  W2        3757            0.0000000000
     11271      3757  TIP3      H2             -5.7527896295       39.0961628873       -8.1619130134  W2        3757            0.0000000000
     11272      3758  TIP3      OH2           -17.4907196295       40.0122328873       -7.0298830134  W2        3758            0.0000000000
     11273      3758  TIP3      H1            -16.8770896295       40.6449928873       -6.6566430134  W2        3758            0.0000000000
     11274      3758  TIP3      H2            -16.9786496295       39.5397328873       -7.6861930134  W2        3758            0.0000000000
     11275      3759  TIP3      OH2            -6.0611196295       37.3388328873       -4.9954130134  W2        3759            0.0000000000
     11276      3759  TIP3      H1             -6.7971996295       37.9495428873       -5.0332830134  W2        3759            0.0000000000
     11277      3759  TIP3      H2             -5.3777196295       37.7537328873       -5.5217730134  W2        3759            0.0000000000
     11278      3760  TIP3      OH2           -13.0579796295       35.4255628873       -7.5296130134  W2        3760            0.0000000000
     11279      3760  TIP3      H1            -13.1755596295       34.4771628873       -7.5837830134  W2        3760            0.0000000000
     11280      3760  TIP3      H2            -13.9129696295       35.7581728873       -7.2565030134  W2        3760            0.0000000000
     11281      3761  TIP3      OH2            -4.8159296295       35.3847828873      -14.5793530134  W2        3761            0.0000000000
     11282      3761  TIP3      H1             -5.7158596295       35.5236828873      -14.2842930134  W2        3761            0.0000000000
     11283      3761  TIP3      H2             -4.5640896295       36.2162428873      -14.9811830134  W2        3761            0.0000000000
     11284      3762  TIP3      OH2           -15.7892196295       36.3290128873       -6.7519830134  W2        3762            0.0000000000
     11285      3762  TIP3      H1            -16.6508496295       36.2418328873       -7.1596930134  W2        3762            0.0000000000
     11286      3762  TIP3      H2            -15.8116496295       37.1850228873       -6.3242230134  W2        3762            0.0000000000
     11287      3763  TIP3      OH2           -11.1264396295       36.0510528873       -3.3772830134  W2        3763            0.0000000000
     11288      3763  TIP3      H1            -10.7061296295       35.6357628873       -2.6242230134  W2        3763            0.0000000000
     11289      3763  TIP3      H2            -12.0594796295       35.8723828873       -3.2600830134  W2        3763            0.0000000000
     11290      3764  TIP3      OH2            -7.7999496295       39.8065728873       -2.5238330134  W2        3764            0.0000000000
     11291      3764  TIP3      H1             -8.3139996295       39.6807928873       -1.7262330134  W2        3764            0.0000000000
     11292      3764  TIP3      H2             -7.9554796295       40.7188828873       -2.7682130134  W2        3764            0.0000000000
     11293      3765  TIP3      OH2           -11.4647096295       38.5433928873      -16.0922030134  W2        3765            0.0000000000
     11294      3765  TIP3      H1            -11.7182296295       38.5625528873      -15.1693930134  W2        3765            0.0000000000
     11295      3765  TIP3      H2            -11.7214996295       37.6719328873      -16.3935830134  W2        3765            0.0000000000
     11296      3766  TIP3      OH2           -14.5824196295       38.9890428873      -16.9911630134  W2        3766            0.0000000000
     11297      3766  TIP3      H1            -15.0133496295       38.5440528873      -16.2614230134  W2        3766            0.0000000000
     11298      3766  TIP3      H2            -15.3005496295       39.3606728873      -17.5034130134  W2        3766            0.0000000000
     11299      3767  TIP3      OH2           -21.3400796295       38.7309928873       -9.9392930134  W2        3767            0.0000000000
     11300      3767  TIP3      H1            -20.7093096295       38.7022028873       -9.2199030134  W2        3767            0.0000000000
     11301      3767  TIP3      H2            -20.8906496295       38.3058628873      -10.6697030134  W2        3767            0.0000000000
     11302      3768  TIP3      OH2           -20.0658696295       39.4771928873      -14.5152530134  W2        3768            0.0000000000
     11303      3768  TIP3      H1            -19.5916996295       40.0681828873      -15.1001630134  W2        3768            0.0000000000
     11304      3768  TIP3      H2            -20.7832296295       40.0074828873      -14.1682430134  W2        3768            0.0000000000
     11305      3769  TIP3      OH2           -13.1197696295       38.9432228873       -9.6585530134  W2        3769            0.0000000000
     11306      3769  TIP3      H1            -14.0306596295       38.9999028873       -9.3699530134  W2        3769            0.0000000000
     11307      3769  TIP3      H2            -12.6144796295       38.8827728873       -8.8478330134  W2        3769            0.0000000000
     11308      3770  TIP3      OH2            -8.7145796295       38.1778528873       -6.3943730134  W2        3770            0.0000000000
     11309      3770  TIP3      H1             -9.3914196295       38.3091628873       -5.7304030134  W2        3770            0.0000000000
     11310      3770  TIP3      H2             -9.2000896295       38.0228028873       -7.2046030134  W2        3770            0.0000000000
     11311      3771  TIP3      OH2           -16.7978296295       37.8671328873      -11.3531130134  W2        3771            0.0000000000
     11312      3771  TIP3      H1            -17.1148796295       36.9646628873      -11.3885730134  W2        3771            0.0000000000
     11313      3771  TIP3      H2            -16.0164196295       37.8688728873      -11.9059530134  W2        3771            0.0000000000
     11314      3772  TIP3      OH2           -13.1732096295       40.1191328873       -5.3575530134  W2        3772            0.0000000000
     11315      3772  TIP3      H1            -14.0086796295       40.5730828873       -5.2473130134  W2        3772            0.0000000000
     11316      3772  TIP3      H2            -12.6491496295       40.3949828873       -4.6055630134  W2        3772            0.0000000000
     11317      3773  TIP3      OH2            -8.7312696295       39.1458928873      -15.4736530134  W2        3773            0.0000000000
     11318      3773  TIP3      H1             -9.6698496295       39.2574528873      -15.6247730134  W2        3773            0.0000000000
     11319      3773  TIP3      H2             -8.4340596295       40.0025828873      -15.1670830134  W2        3773            0.0000000000
     11320      3774  TIP3      OH2           -18.8621996295       38.8408628873       -3.0301330134  W2        3774            0.0000000000
     11321      3774  TIP3      H1            -19.7549696295       39.1794028873       -3.0977330134  W2        3774            0.0000000000
     11322      3774  TIP3      H2            -18.9609196295       37.9854728873       -2.6120530134  W2        3774            0.0000000000
     11323      3775  TIP3      OH2           -10.1278596295       38.5818928873       -4.1402730134  W2        3775            0.0000000000
     11324      3775  TIP3      H1             -9.4290696295       38.6557628873       -3.4903030134  W2        3775            0.0000000000
     11325      3775  TIP3      H2            -10.5087196295       37.7173928873       -3.9859830134  W2        3775            0.0000000000
     11326      3776  TIP3      OH2            -9.3433696295       38.2340628873      -13.0430430134  W2        3776            0.0000000000
     11327      3776  TIP3      H1             -9.1235396295       38.7056028873      -13.8465030134  W2        3776            0.0000000000
     11328      3776  TIP3      H2             -8.7849696295       38.6283228873      -12.3729830134  W2        3776            0.0000000000
     11329      3777  TIP3      OH2           -12.1433796295       39.9619428873      -12.2082030134  W2        3777            0.0000000000
     11330      3777  TIP3      H1            -11.3311196295       40.4662628873      -12.1620330134  W2        3777            0.0000000000
     11331      3777  TIP3      H2            -12.3880796295       39.8169128873      -11.2942430134  W2        3777            0.0000000000
     11332      3778  TIP3      OH2           -11.2597096295       37.0432428873      -11.2700930134  W2        3778            0.0000000000
     11333      3778  TIP3      H1            -11.6063596295       37.6603028873      -10.6256630134  W2        3778            0.0000000000
     11334      3778  TIP3      H2            -10.6010196295       37.5438128873      -11.7515430134  W2        3778            0.0000000000
     11335      3779  TIP3      OH2           -15.6020096295       38.1061828873      -14.5828430134  W2        3779            0.0000000000
     11336      3779  TIP3      H1            -15.6855296295       38.9944928873      -14.2362030134  W2        3779            0.0000000000
     11337      3779  TIP3      H2            -14.7119796295       37.8408528873      -14.3511630134  W2        3779            0.0000000000
     11338      3780  TIP3      OH2            -5.4031596295       38.8552428873       -2.1885730134  W2        3780            0.0000000000
     11339      3780  TIP3      H1             -6.3195796295       39.1174128873       -2.2762030134  W2        3780            0.0000000000
     11340      3780  TIP3      H2             -5.0676596295       38.8521428873       -3.0850430134  W2        3780            0.0000000000
     11341      3781  TIP3      OH2           -18.2193596295       35.9793628873       -7.7333530134  W2        3781            0.0000000000
     11342      3781  TIP3      H1            -18.4483796295       36.0386128873       -8.6608530134  W2        3781            0.0000000000
     11343      3781  TIP3      H2            -18.6620196295       35.1879128873       -7.4269430134  W2        3781            0.0000000000
     11344      3782  TIP3      OH2           -14.9746596295       39.9068328873       -1.4120130134  W2        3782            0.0000000000
     11345      3782  TIP3      H1            -14.8245696295       39.1779628873       -2.0140430134  W2        3782            0.0000000000
     11346      3782  TIP3      H2            -14.9724196295       40.6840028873       -1.9707930134  W2        3782            0.0000000000
     11347      3783  TIP3      OH2           -14.5620896295       38.2764128873       -3.9192730134  W2        3783            0.0000000000
     11348      3783  TIP3      H1            -14.0263396295       38.7280828873       -4.5713430134  W2        3783            0.0000000000
     11349      3783  TIP3      H2            -15.4141296295       38.1683928873       -4.3418630134  W2        3783            0.0000000000
     11350      3784  TIP3      OH2           -13.7565396295       35.7329828873       -3.4879130134  W2        3784            0.0000000000
     11351      3784  TIP3      H1            -13.8545796295       36.6793028873       -3.5932930134  W2        3784            0.0000000000
     11352      3784  TIP3      H2            -14.4989196295       35.3603628873       -3.9635630134  W2        3784            0.0000000000
     11353      3785  TIP3      OH2           -12.4924896295       40.0545228873        0.0759269866  W2        3785            0.0000000000
     11354      3785  TIP3      H1            -12.7279496295       39.8351928873        0.9774169866  W2        3785            0.0000000000
     11355      3785  TIP3      H2            -13.2757996295       39.8476428873       -0.4338230134  W2        3785            0.0000000000
     11356      3786  TIP3      OH2            -9.7768296295       39.1818728873       -0.8487230134  W2        3786            0.0000000000
     11357      3786  TIP3      H1            -10.7242896295       39.2138428873       -0.7163930134  W2        3786            0.0000000000
     11358      3786  TIP3      H2             -9.4641596295       38.5565828873       -0.1949030134  W2        3786            0.0000000000
     11359      3787  TIP3      OH2            -8.1426796295       37.8159828873        1.1564669866  W2        3787            0.0000000000
     11360      3787  TIP3      H1             -8.2394996295       36.8637128873        1.1506569866  W2        3787            0.0000000000
     11361      3787  TIP3      H2             -8.4643696295       38.0846628873        2.0170169866  W2        3787            0.0000000000
     11362      3788  TIP3      OH2           -18.3157496295       39.0255628873        0.2040169866  W2        3788            0.0000000000
     11363      3788  TIP3      H1            -18.1040096295       38.3191728873       -0.4062330134  W2        3788            0.0000000000
     11364      3788  TIP3      H2            -18.4269996295       38.5881628873        1.0481369866  W2        3788            0.0000000000
     11365      3789  TIP3      OH2           -13.5347296295       35.0267228873       -0.8166330134  W2        3789            0.0000000000
     11366      3789  TIP3      H1            -12.8228896295       34.3869428873       -0.8307230134  W2        3789            0.0000000000
     11367      3789  TIP3      H2            -13.6356896295       35.2935528873       -1.7303230134  W2        3789            0.0000000000
     11368      3790  TIP3      OH2           -13.1809796295       36.7095628873        1.2369969866  W2        3790            0.0000000000
     11369      3790  TIP3      H1            -13.3127596295       36.2339428873        0.4168469866  W2        3790            0.0000000000
     11370      3790  TIP3      H2            -13.7802396295       37.4539228873        1.1817069866  W2        3790            0.0000000000
     11371      3791  TIP3      OH2            -5.4246596295       38.7275828873      -17.2841530134  W2        3791            0.0000000000
     11372      3791  TIP3      H1             -4.8140796295       38.3562628873      -16.6473330134  W2        3791            0.0000000000
     11373      3791  TIP3      H2             -6.2615096295       38.3062728873      -17.0881530134  W2        3791            0.0000000000
     11374      3792  TIP3      OH2            -5.7920896295       40.2824228873      -12.3181630134  W2        3792            0.0000000000
     11375      3792  TIP3      H1             -5.5123796295       39.3754628873      -12.1939930134  W2        3792            0.0000000000
     11376      3792  TIP3      H2             -5.0329196295       40.7165728873      -12.7072430134  W2        3792            0.0000000000
     11377      3793  TIP3      OH2           -20.8698496295       40.0485628873       -0.6294130134  W2        3793            0.0000000000
     11378      3793  TIP3      H1            -19.9503596295       39.9263928873       -0.3931030134  W2        3793            0.0000000000
     11379      3793  TIP3      H2            -21.3193996295       39.2985328873       -0.2400630134  W2        3793            0.0000000000
     11380      3794  TIP3      OH2            -2.8679096295       35.5807128873        1.2471669866  W2        3794            0.0000000000
     11381      3794  TIP3      H1             -2.5182096295       34.9270628873        0.6416369866  W2        3794            0.0000000000
     11382      3794  TIP3      H2             -2.7209596295       36.4181228873        0.8074269866  W2        3794            0.0000000000
     11383      3795  TIP3      OH2            -5.1786096295       37.5453528873      -12.2699630134  W2        3795            0.0000000000
     11384      3795  TIP3      H1             -4.9961096295       37.0965028873      -11.4444630134  W2        3795            0.0000000000
     11385      3795  TIP3      H2             -5.7783196295       36.9607928873      -12.7335030134  W2        3795            0.0000000000
     11386      3796  TIP3      OH2           -19.6485996295       38.3607228873       -7.7381230134  W2        3796            0.0000000000
     11387      3796  TIP3      H1            -19.2034396295       37.5689728873       -7.4361530134  W2        3796            0.0000000000
     11388      3796  TIP3      H2            -19.1822996295       39.0772428873       -7.3075630134  W2        3796            0.0000000000
     11389      3797  TIP3      OH2            -3.3481896295       37.6901728873       -0.4037030134  W2        3797            0.0000000000
     11390      3797  TIP3      H1             -4.2656196295       37.9608828873       -0.4393530134  W2        3797            0.0000000000
     11391      3797  TIP3      H2             -3.2252496295       37.1550128873       -1.1877330134  W2        3797            0.0000000000
     11392      3798  TIP3      OH2            -3.3119896295       37.6131628873      -15.7419330134  W2        3798            0.0000000000
     11393      3798  TIP3      H1             -2.8997296295       36.8917328873      -16.2171330134  W2        3798            0.0000000000
     11394      3798  TIP3      H2             -2.6303396295       38.2826228873      -15.6835030134  W2        3798            0.0000000000
     11395      3799  TIP3      OH2           -21.0309196295       37.6179328873      -12.6148630134  W2        3799            0.0000000000
     11396      3799  TIP3      H1            -21.9560796295       37.8265928873      -12.7443130134  W2        3799            0.0000000000
     11397      3799  TIP3      H2            -20.5769296295       38.1020128873      -13.3046330134  W2        3799            0.0000000000
     11398      3800  TIP3      OH2           -21.0673796295       36.3558328873       -4.2706130134  W2        3800            0.0000000000
     11399      3800  TIP3      H1            -21.7323296295       36.1098628873       -3.6275230134  W2        3800            0.0000000000
     11400      3800  TIP3      H2            -21.5102496295       36.9778728873       -4.8478130134  W2        3800            0.0000000000
     11401      3801  TIP3      OH2            -4.3475996295       35.7798028873       -2.5846230134  W2        3801            0.0000000000
     11402      3801  TIP3      H1             -5.1602496295       36.1048328873       -2.9721530134  W2        3801            0.0000000000
     11403      3801  TIP3      H2             -4.1147496295       35.0196528873       -3.1177130134  W2        3801            0.0000000000
     11404      3802  TIP3      OH2           -10.9177496295       37.2288628873       -8.2618030134  W2        3802            0.0000000000
     11405      3802  TIP3      H1            -11.5920696295       36.5994228873       -8.0062230134  W2        3802            0.0000000000
     11406      3802  TIP3      H2            -10.3538296295       36.7447528873       -8.8650130134  W2        3802            0.0000000000
     11407      3803  TIP3      OH2            -5.7750296295       35.3362628873       -8.1490930134  W2        3803            0.0000000000
     11408      3803  TIP3      H1             -5.1712696295       35.8838028873       -8.6509930134  W2        3803            0.0000000000
     11409      3803  TIP3      H2             -6.6448296295       35.6553028873       -8.3896830134  W2        3803            0.0000000000
     11410      3804  TIP3      OH2            -4.0479896295       36.4751328873       -9.8160030134  W2        3804            0.0000000000
     11411      3804  TIP3      H1             -3.4362396295       35.9607028873      -10.3426430134  W2        3804            0.0000000000
     11412      3804  TIP3      H2             -3.6656496295       37.3523428873       -9.7925630134  W2        3804            0.0000000000
     11413      3805  TIP3      OH2           -18.5909996295       35.8628928873      -10.4398130134  W2        3805            0.0000000000
     11414      3805  TIP3      H1            -19.3680196295       35.6283828873      -10.9472230134  W2        3805            0.0000000000
     11415      3805  TIP3      H2            -18.0606396295       35.0661028873      -10.4310130134  W2        3805            0.0000000000
     11416      3806  TIP3      OH2           -19.7546596295       35.6607028873      -14.6362030134  W2        3806            0.0000000000
     11417      3806  TIP3      H1            -19.3155896295       36.2717528873      -15.2278530134  W2        3806            0.0000000000
     11418      3806  TIP3      H2            -20.3884196295       36.1991128873      -14.1622030134  W2        3806            0.0000000000
     11419      3807  TIP3      OH2           -14.0117396295       35.7896028873      -10.6265030134  W2        3807            0.0000000000
     11420      3807  TIP3      H1            -13.1373996295       36.1780328873      -10.6560730134  W2        3807            0.0000000000
     11421      3807  TIP3      H2            -14.1476596295       35.5743828873       -9.7037830134  W2        3807            0.0000000000
     11422      3808  TIP3      OH2            -8.4548996295       35.8195828873       -8.9773330134  W2        3808            0.0000000000
     11423      3808  TIP3      H1             -8.3787396295       35.9147428873       -9.9267330134  W2        3808            0.0000000000
     11424      3808  TIP3      H2             -8.7299796295       34.9118728873       -8.8484230134  W2        3808            0.0000000000
     11425      3809  TIP3      OH2            -7.1016396295       35.8453628873      -13.2848330134  W2        3809            0.0000000000
     11426      3809  TIP3      H1             -7.8045296295       36.4602828873      -13.4946930134  W2        3809            0.0000000000
     11427      3809  TIP3      H2             -7.5464996295       35.0080328873      -13.1537430134  W2        3809            0.0000000000
     11428      3810  TIP3      OH2           -17.8937496295       37.5768528873      -16.1937930134  W2        3810            0.0000000000
     11429      3810  TIP3      H1            -17.4024096295       36.9470928873      -16.7212430134  W2        3810            0.0000000000
     11430      3810  TIP3      H2            -17.2701196295       37.8727928873      -15.5306730134  W2        3810            0.0000000000
     11431      3811  TIP3      OH2           -12.8677396295       37.8700028873      -13.7367430134  W2        3811            0.0000000000
     11432      3811  TIP3      H1            -12.6896096295       37.2233228873      -13.0538830134  W2        3811            0.0000000000
     11433      3811  TIP3      H2            -12.9211196295       38.7037728873      -13.2696330134  W2        3811            0.0000000000
     11434      3812  TIP3      OH2           -18.6331996295       36.3770828873       -0.9221930134  W2        3812            0.0000000000
     11435      3812  TIP3      H1            -18.9993796295       35.6113428873       -0.4797230134  W2        3812            0.0000000000
     11436      3812  TIP3      H2            -17.7203496295       36.4061028873       -0.6356830134  W2        3812            0.0000000000
     11437      3813  TIP3      OH2           -16.6601196295       35.7275228873        0.6135169866  W2        3813            0.0000000000
     11438      3813  TIP3      H1            -15.7617596295       35.4535428873        0.4288569866  W2        3813            0.0000000000
     11439      3813  TIP3      H2            -17.0468096295       34.9851228873        1.0777769866  W2        3813            0.0000000000
     11440      3814  TIP3      OH2            -8.2388896295       35.0600528873        0.7957969866  W2        3814            0.0000000000
     11441      3814  TIP3      H1             -8.1621696295       34.6341228873        1.6495669866  W2        3814            0.0000000000
     11442      3814  TIP3      H2             -7.3452296295       35.0735228873        0.4531469866  W2        3814            0.0000000000
     11443      3815  TIP3      OH2            15.3288103705       38.3078628873       -5.7955230134  W2        3815            0.0000000000
     11444      3815  TIP3      H1             15.3780303705       38.9179828873       -5.0596130134  W2        3815            0.0000000000
     11445      3815  TIP3      H2             15.7543203705       38.7689528873       -6.5184130134  W2        3815            0.0000000000
     11446      3816  TIP3      OH2             2.9613603705       39.2022128873       -9.0561830134  W2        3816            0.0000000000
     11447      3816  TIP3      H1              3.0044703705       40.0620628873       -9.4745530134  W2        3816            0.0000000000
     11448      3816  TIP3      H2              2.5037703705       38.6496828873       -9.6898630134  W2        3816            0.0000000000
     11449      3817  TIP3      OH2            10.6836303705       39.3327728873      -10.6553530134  W2        3817            0.0000000000
     11450      3817  TIP3      H1             11.3300603705       39.0040928873      -10.0305930134  W2        3817            0.0000000000
     11451      3817  TIP3      H2             11.1935703705       39.8506728873      -11.2782130134  W2        3817            0.0000000000
     11452      3818  TIP3      OH2            15.7202703705       39.7857828873       -3.5595430134  W2        3818            0.0000000000
     11453      3818  TIP3      H1             15.0317303705       40.4438528873       -3.6548830134  W2        3818            0.0000000000
     11454      3818  TIP3      H2             15.7357303705       39.5885728873       -2.6230030134  W2        3818            0.0000000000
     11455      3819  TIP3      OH2             1.7715503705       38.1200528873       -4.9821030134  W2        3819            0.0000000000
     11456      3819  TIP3      H1              1.5527203705       38.6501128873       -5.7485030134  W2        3819            0.0000000000
     11457      3819  TIP3      H2              1.1036403705       38.3466028873       -4.3349630134  W2        3819            0.0000000000
     11458      3820  TIP3      OH2            12.4474703705       38.6237028873       -8.6747630134  W2        3820            0.0000000000
     11459      3820  TIP3      H1             12.2322703705       37.8580428873       -8.1421630134  W2        3820            0.0000000000
     11460      3820  TIP3      H2             13.1032103705       39.0961628873       -8.1619130134  W2        3820            0.0000000000
     11461      3821  TIP3      OH2             1.3652803705       40.0122328873       -7.0298830134  W2        3821            0.0000000000
     11462      3821  TIP3      H1              1.9789103705       40.6449928873       -6.6566430134  W2        3821            0.0000000000
     11463      3821  TIP3      H2              1.8773503705       39.5397328873       -7.6861930134  W2        3821            0.0000000000
     11464      3822  TIP3      OH2            12.7948803705       37.3388328873       -4.9954130134  W2        3822            0.0000000000
     11465      3822  TIP3      H1             12.0588003705       37.9495428873       -5.0332830134  W2        3822            0.0000000000
     11466      3822  TIP3      H2             13.4782803705       37.7537328873       -5.5217730134  W2        3822            0.0000000000
     11467      3823  TIP3      OH2             5.7980203705       35.4255628873       -7.5296130134  W2        3823            0.0000000000
     11468      3823  TIP3      H1              5.6804403705       34.4771628873       -7.5837830134  W2        3823            0.0000000000
     11469      3823  TIP3      H2              4.9430303705       35.7581728873       -7.2565030134  W2        3823            0.0000000000
     11470      3824  TIP3      OH2            14.0400703705       35.3847828873      -14.5793530134  W2        3824            0.0000000000
     11471      3824  TIP3      H1             13.1401403705       35.5236828873      -14.2842930134  W2        3824            0.0000000000
     11472      3824  TIP3      H2             14.2919103705       36.2162428873      -14.9811830134  W2        3824            0.0000000000
     11473      3825  TIP3      OH2             3.0667803705       36.3290128873       -6.7519830134  W2        3825            0.0000000000
     11474      3825  TIP3      H1              2.2051503705       36.2418328873       -7.1596930134  W2        3825            0.0000000000
     11475      3825  TIP3      H2              3.0443503705       37.1850228873       -6.3242230134  W2        3825            0.0000000000
     11476      3826  TIP3      OH2             7.7295603705       36.0510528873       -3.3772830134  W2        3826            0.0000000000
     11477      3826  TIP3      H1              8.1498703705       35.6357628873       -2.6242230134  W2        3826            0.0000000000
     11478      3826  TIP3      H2              6.7965203705       35.8723828873       -3.2600830134  W2        3826            0.0000000000
     11479      3827  TIP3      OH2            11.0560503705       39.8065728873       -2.5238330134  W2        3827            0.0000000000
     11480      3827  TIP3      H1             10.5420003705       39.6807928873       -1.7262330134  W2        3827            0.0000000000
     11481      3827  TIP3      H2             10.9005203705       40.7188828873       -2.7682130134  W2        3827            0.0000000000
     11482      3828  TIP3      OH2             7.3912903705       38.5433928873      -16.0922030134  W2        3828            0.0000000000
     11483      3828  TIP3      H1              7.1377703705       38.5625528873      -15.1693930134  W2        3828            0.0000000000
     11484      3828  TIP3      H2              7.1345003705       37.6719328873      -16.3935830134  W2        3828            0.0000000000
     11485      3829  TIP3      OH2             4.2735803705       38.9890428873      -16.9911630134  W2        3829            0.0000000000
     11486      3829  TIP3      H1              3.8426503705       38.5440528873      -16.2614230134  W2        3829            0.0000000000
     11487      3829  TIP3      H2              3.5554503705       39.3606728873      -17.5034130134  W2        3829            0.0000000000
     11488      3830  TIP3      OH2            -2.4840796295       38.7309928873       -9.9392930134  W2        3830            0.0000000000
     11489      3830  TIP3      H1             -1.8533096295       38.7022028873       -9.2199030134  W2        3830            0.0000000000
     11490      3830  TIP3      H2             -2.0346496295       38.3058628873      -10.6697030134  W2        3830            0.0000000000
     11491      3831  TIP3      OH2            -1.2098696295       39.4771928873      -14.5152530134  W2        3831            0.0000000000
     11492      3831  TIP3      H1             -0.7356996295       40.0681828873      -15.1001630134  W2        3831            0.0000000000
     11493      3831  TIP3      H2             -1.9272296295       40.0074828873      -14.1682430134  W2        3831            0.0000000000
     11494      3832  TIP3      OH2             5.7362303705       38.9432228873       -9.6585530134  W2        3832            0.0000000000
     11495      3832  TIP3      H1              4.8253403705       38.9999028873       -9.3699530134  W2        3832            0.0000000000
     11496      3832  TIP3      H2              6.2415203705       38.8827728873       -8.8478330134  W2        3832            0.0000000000
     11497      3833  TIP3      OH2            10.1414203705       38.1778528873       -6.3943730134  W2        3833            0.0000000000
     11498      3833  TIP3      H1              9.4645803705       38.3091628873       -5.7304030134  W2        3833            0.0000000000
     11499      3833  TIP3      H2              9.6559103705       38.0228028873       -7.2046030134  W2        3833            0.0000000000
     11500      3834  TIP3      OH2             2.0581703705       37.8671328873      -11.3531130134  W2        3834            0.0000000000
     11501      3834  TIP3      H1              1.7411203705       36.9646628873      -11.3885730134  W2        3834            0.0000000000
     11502      3834  TIP3      H2              2.8395803705       37.8688728873      -11.9059530134  W2        3834            0.0000000000
     11503      3835  TIP3      OH2             5.6827903705       40.1191328873       -5.3575530134  W2        3835            0.0000000000
     11504      3835  TIP3      H1              4.8473203705       40.5730828873       -5.2473130134  W2        3835            0.0000000000
     11505      3835  TIP3      H2              6.2068503705       40.3949828873       -4.6055630134  W2        3835            0.0000000000
     11506      3836  TIP3      OH2            10.1247303705       39.1458928873      -15.4736530134  W2        3836            0.0000000000
     11507      3836  TIP3      H1              9.1861503705       39.2574528873      -15.6247730134  W2        3836            0.0000000000
     11508      3836  TIP3      H2             10.4219403705       40.0025828873      -15.1670830134  W2        3836            0.0000000000
     11509      3837  TIP3      OH2            -0.0061996295       38.8408628873       -3.0301330134  W2        3837            0.0000000000
     11510      3837  TIP3      H1             -0.8989696295       39.1794028873       -3.0977330134  W2        3837            0.0000000000
     11511      3837  TIP3      H2             -0.1049196295       37.9854728873       -2.6120530134  W2        3837            0.0000000000
     11512      3838  TIP3      OH2             8.7281403705       38.5818928873       -4.1402730134  W2        3838            0.0000000000
     11513      3838  TIP3      H1              9.4269303705       38.6557628873       -3.4903030134  W2        3838            0.0000000000
     11514      3838  TIP3      H2              8.3472803705       37.7173928873       -3.9859830134  W2        3838            0.0000000000
     11515      3839  TIP3      OH2             9.5126303705       38.2340628873      -13.0430430134  W2        3839            0.0000000000
     11516      3839  TIP3      H1              9.7324603705       38.7056028873      -13.8465030134  W2        3839            0.0000000000
     11517      3839  TIP3      H2             10.0710303705       38.6283228873      -12.3729830134  W2        3839            0.0000000000
     11518      3840  TIP3      OH2             6.7126203705       39.9619428873      -12.2082030134  W2        3840            0.0000000000
     11519      3840  TIP3      H1              7.5248803705       40.4662628873      -12.1620330134  W2        3840            0.0000000000
     11520      3840  TIP3      H2              6.4679203705       39.8169128873      -11.2942430134  W2        3840            0.0000000000
     11521      3841  TIP3      OH2             7.5962903705       37.0432428873      -11.2700930134  W2        3841            0.0000000000
     11522      3841  TIP3      H1              7.2496403705       37.6603028873      -10.6256630134  W2        3841            0.0000000000
     11523      3841  TIP3      H2              8.2549803705       37.5438128873      -11.7515430134  W2        3841            0.0000000000
     11524      3842  TIP3      OH2             3.2539903705       38.1061828873      -14.5828430134  W2        3842            0.0000000000
     11525      3842  TIP3      H1              3.1704703705       38.9944928873      -14.2362030134  W2        3842            0.0000000000
     11526      3842  TIP3      H2              4.1440203705       37.8408528873      -14.3511630134  W2        3842            0.0000000000
     11527      3843  TIP3      OH2            13.4528403705       38.8552428873       -2.1885730134  W2        3843            0.0000000000
     11528      3843  TIP3      H1             12.5364203705       39.1174128873       -2.2762030134  W2        3843            0.0000000000
     11529      3843  TIP3      H2             13.7883403705       38.8521428873       -3.0850430134  W2        3843            0.0000000000
     11530      3844  TIP3      OH2             0.6366403705       35.9793628873       -7.7333530134  W2        3844            0.0000000000
     11531      3844  TIP3      H1              0.4076203705       36.0386128873       -8.6608530134  W2        3844            0.0000000000
     11532      3844  TIP3      H2              0.1939803705       35.1879128873       -7.4269430134  W2        3844            0.0000000000
     11533      3845  TIP3      OH2             3.8813403705       39.9068328873       -1.4120130134  W2        3845            0.0000000000
     11534      3845  TIP3      H1              4.0314303705       39.1779628873       -2.0140430134  W2        3845            0.0000000000
     11535      3845  TIP3      H2              3.8835803705       40.6840028873       -1.9707930134  W2        3845            0.0000000000
     11536      3846  TIP3      OH2             4.2939103705       38.2764128873       -3.9192730134  W2        3846            0.0000000000
     11537      3846  TIP3      H1              4.8296603705       38.7280828873       -4.5713430134  W2        3846            0.0000000000
     11538      3846  TIP3      H2              3.4418703705       38.1683928873       -4.3418630134  W2        3846            0.0000000000
     11539      3847  TIP3      OH2             5.0994603705       35.7329828873       -3.4879130134  W2        3847            0.0000000000
     11540      3847  TIP3      H1              5.0014203705       36.6793028873       -3.5932930134  W2        3847            0.0000000000
     11541      3847  TIP3      H2              4.3570803705       35.3603628873       -3.9635630134  W2        3847            0.0000000000
     11542      3848  TIP3      OH2             6.3635103705       40.0545228873        0.0759269866  W2        3848            0.0000000000
     11543      3848  TIP3      H1              6.1280503705       39.8351928873        0.9774169866  W2        3848            0.0000000000
     11544      3848  TIP3      H2              5.5802003705       39.8476428873       -0.4338230134  W2        3848            0.0000000000
     11545      3849  TIP3      OH2             9.0791703705       39.1818728873       -0.8487230134  W2        3849            0.0000000000
     11546      3849  TIP3      H1              8.1317103705       39.2138428873       -0.7163930134  W2        3849            0.0000000000
     11547      3849  TIP3      H2              9.3918403705       38.5565828873       -0.1949030134  W2        3849            0.0000000000
     11548      3850  TIP3      OH2            10.7133203705       37.8159828873        1.1564669866  W2        3850            0.0000000000
     11549      3850  TIP3      H1             10.6165003705       36.8637128873        1.1506569866  W2        3850            0.0000000000
     11550      3850  TIP3      H2             10.3916303705       38.0846628873        2.0170169866  W2        3850            0.0000000000
     11551      3851  TIP3      OH2             0.5402503705       39.0255628873        0.2040169866  W2        3851            0.0000000000
     11552      3851  TIP3      H1              0.7519903705       38.3191728873       -0.4062330134  W2        3851            0.0000000000
     11553      3851  TIP3      H2              0.4290003705       38.5881628873        1.0481369866  W2        3851            0.0000000000
     11554      3852  TIP3      OH2             5.3212703705       35.0267228873       -0.8166330134  W2        3852            0.0000000000
     11555      3852  TIP3      H1              6.0331103705       34.3869428873       -0.8307230134  W2        3852            0.0000000000
     11556      3852  TIP3      H2              5.2203103705       35.2935528873       -1.7303230134  W2        3852            0.0000000000
     11557      3853  TIP3      OH2             5.6750203705       36.7095628873        1.2369969866  W2        3853            0.0000000000
     11558      3853  TIP3      H1              5.5432403705       36.2339428873        0.4168469866  W2        3853            0.0000000000
     11559      3853  TIP3      H2              5.0757603705       37.4539228873        1.1817069866  W2        3853            0.0000000000
     11560      3854  TIP3      OH2            13.4313403705       38.7275828873      -17.2841530134  W2        3854            0.0000000000
     11561      3854  TIP3      H1             14.0419203705       38.3562628873      -16.6473330134  W2        3854            0.0000000000
     11562      3854  TIP3      H2             12.5944903705       38.3062728873      -17.0881530134  W2        3854            0.0000000000
     11563      3855  TIP3      OH2            13.0639103705       40.2824228873      -12.3181630134  W2        3855            0.0000000000
     11564      3855  TIP3      H1             13.3436203705       39.3754628873      -12.1939930134  W2        3855            0.0000000000
     11565      3855  TIP3      H2             13.8230803705       40.7165728873      -12.7072430134  W2        3855            0.0000000000
     11566      3856  TIP3      OH2            -2.0138496295       40.0485628873       -0.6294130134  W2        3856            0.0000000000
     11567      3856  TIP3      H1             -1.0943596295       39.9263928873       -0.3931030134  W2        3856            0.0000000000
     11568      3856  TIP3      H2             -2.4633996295       39.2985328873       -0.2400630134  W2        3856            0.0000000000
     11569      3857  TIP3      OH2            15.9880903705       35.5807128873        1.2471669866  W2        3857            0.0000000000
     11570      3857  TIP3      H1             16.3377903705       34.9270628873        0.6416369866  W2        3857            0.0000000000
     11571      3857  TIP3      H2             16.1350403705       36.4181228873        0.8074269866  W2        3857            0.0000000000
     11572      3858  TIP3      OH2            13.6773903705       37.5453528873      -12.2699630134  W2        3858            0.0000000000
     11573      3858  TIP3      H1             13.8598903705       37.0965028873      -11.4444630134  W2        3858            0.0000000000
     11574      3858  TIP3      H2             13.0776803705       36.9607928873      -12.7335030134  W2        3858            0.0000000000
     11575      3859  TIP3      OH2            -0.7925996295       38.3607228873       -7.7381230134  W2        3859            0.0000000000
     11576      3859  TIP3      H1             -0.3474396295       37.5689728873       -7.4361530134  W2        3859            0.0000000000
     11577      3859  TIP3      H2             -0.3262996295       39.0772428873       -7.3075630134  W2        3859            0.0000000000
     11578      3860  TIP3      OH2            15.5078103705       37.6901728873       -0.4037030134  W2        3860            0.0000000000
     11579      3860  TIP3      H1             14.5903803705       37.9608828873       -0.4393530134  W2        3860            0.0000000000
     11580      3860  TIP3      H2             15.6307503705       37.1550128873       -1.1877330134  W2        3860            0.0000000000
     11581      3861  TIP3      OH2            15.5440103705       37.6131628873      -15.7419330134  W2        3861            0.0000000000
     11582      3861  TIP3      H1             15.9562703705       36.8917328873      -16.2171330134  W2        3861            0.0000000000
     11583      3861  TIP3      H2             16.2256603705       38.2826228873      -15.6835030134  W2        3861            0.0000000000
     11584      3862  TIP3      OH2            -2.1749196295       37.6179328873      -12.6148630134  W2        3862            0.0000000000
     11585      3862  TIP3      H1             -3.1000796295       37.8265928873      -12.7443130134  W2        3862            0.0000000000
     11586      3862  TIP3      H2             -1.7209296295       38.1020128873      -13.3046330134  W2        3862            0.0000000000
     11587      3863  TIP3      OH2            -2.2113796295       36.3558328873       -4.2706130134  W2        3863            0.0000000000
     11588      3863  TIP3      H1             -2.8763296295       36.1098628873       -3.6275230134  W2        3863            0.0000000000
     11589      3863  TIP3      H2             -2.6542496295       36.9778728873       -4.8478130134  W2        3863            0.0000000000
     11590      3864  TIP3      OH2            14.5084003705       35.7798028873       -2.5846230134  W2        3864            0.0000000000
     11591      3864  TIP3      H1             13.6957503705       36.1048328873       -2.9721530134  W2        3864            0.0000000000
     11592      3864  TIP3      H2             14.7412503705       35.0196528873       -3.1177130134  W2        3864            0.0000000000
     11593      3865  TIP3      OH2             7.9382503705       37.2288628873       -8.2618030134  W2        3865            0.0000000000
     11594      3865  TIP3      H1              7.2639303705       36.5994228873       -8.0062230134  W2        3865            0.0000000000
     11595      3865  TIP3      H2              8.5021703705       36.7447528873       -8.8650130134  W2        3865            0.0000000000
     11596      3866  TIP3      OH2            13.0809703705       35.3362628873       -8.1490930134  W2        3866            0.0000000000
     11597      3866  TIP3      H1             13.6847303705       35.8838028873       -8.6509930134  W2        3866            0.0000000000
     11598      3866  TIP3      H2             12.2111703705       35.6553028873       -8.3896830134  W2        3866            0.0000000000
     11599      3867  TIP3      OH2            14.8080103705       36.4751328873       -9.8160030134  W2        3867            0.0000000000
     11600      3867  TIP3      H1             15.4197603705       35.9607028873      -10.3426430134  W2        3867            0.0000000000
     11601      3867  TIP3      H2             15.1903503705       37.3523428873       -9.7925630134  W2        3867            0.0000000000
     11602      3868  TIP3      OH2             0.2650003705       35.8628928873      -10.4398130134  W2        3868            0.0000000000
     11603      3868  TIP3      H1             -0.5120196295       35.6283828873      -10.9472230134  W2        3868            0.0000000000
     11604      3868  TIP3      H2              0.7953603705       35.0661028873      -10.4310130134  W2        3868            0.0000000000
     11605      3869  TIP3      OH2            -0.8986596295       35.6607028873      -14.6362030134  W2        3869            0.0000000000
     11606      3869  TIP3      H1             -0.4595896295       36.2717528873      -15.2278530134  W2        3869            0.0000000000
     11607      3869  TIP3      H2             -1.5324196295       36.1991128873      -14.1622030134  W2        3869            0.0000000000
     11608      3870  TIP3      OH2             4.8442603705       35.7896028873      -10.6265030134  W2        3870            0.0000000000
     11609      3870  TIP3      H1              5.7186003705       36.1780328873      -10.6560730134  W2        3870            0.0000000000
     11610      3870  TIP3      H2              4.7083403705       35.5743828873       -9.7037830134  W2        3870            0.0000000000
     11611      3871  TIP3      OH2            10.4011003705       35.8195828873       -8.9773330134  W2        3871            0.0000000000
     11612      3871  TIP3      H1             10.4772603705       35.9147428873       -9.9267330134  W2        3871            0.0000000000
     11613      3871  TIP3      H2             10.1260203705       34.9118728873       -8.8484230134  W2        3871            0.0000000000
     11614      3872  TIP3      OH2            11.7543603705       35.8453628873      -13.2848330134  W2        3872            0.0000000000
     11615      3872  TIP3      H1             11.0514703705       36.4602828873      -13.4946930134  W2        3872            0.0000000000
     11616      3872  TIP3      H2             11.3095003705       35.0080328873      -13.1537430134  W2        3872            0.0000000000
     11617      3873  TIP3      OH2             0.9622503705       37.5768528873      -16.1937930134  W2        3873            0.0000000000
     11618      3873  TIP3      H1              1.4535903705       36.9470928873      -16.7212430134  W2        3873            0.0000000000
     11619      3873  TIP3      H2              1.5858803705       37.8727928873      -15.5306730134  W2        3873            0.0000000000
     11620      3874  TIP3      OH2             5.9882603705       37.8700028873      -13.7367430134  W2        3874            0.0000000000
     11621      3874  TIP3      H1              6.1663903705       37.2233228873      -13.0538830134  W2        3874            0.0000000000
     11622      3874  TIP3      H2              5.9348803705       38.7037728873      -13.2696330134  W2        3874            0.0000000000
     11623      3875  TIP3      OH2             0.2228003705       36.3770828873       -0.9221930134  W2        3875            0.0000000000
     11624      3875  TIP3      H1             -0.1433796295       35.6113428873       -0.4797230134  W2        3875            0.0000000000
     11625      3875  TIP3      H2              1.1356503705       36.4061028873       -0.6356830134  W2        3875            0.0000000000
     11626      3876  TIP3      OH2             2.1958803705       35.7275228873        0.6135169866  W2        3876            0.0000000000
     11627      3876  TIP3      H1              3.0942403705       35.4535428873        0.4288569866  W2        3876            0.0000000000
     11628      3876  TIP3      H2              1.8091903705       34.9851228873        1.0777769866  W2        3876            0.0000000000
     11629      3877  TIP3      OH2            10.6171103705       35.0600528873        0.7957969866  W2        3877            0.0000000000
     11630      3877  TIP3      H1             10.6938303705       34.6341228873        1.6495669866  W2        3877            0.0000000000
     11631      3877  TIP3      H2             11.5107703705       35.0735228873        0.4531469866  W2        3877            0.0000000000
     11632      3878  TIP3      OH2            34.1848103705       38.3078628873       -5.7955230134  W2        3878            0.0000000000
     11633      3878  TIP3      H1             34.2340303705       38.9179828873       -5.0596130134  W2        3878            0.0000000000
     11634      3878  TIP3      H2             34.6103203705       38.7689528873       -6.5184130134  W2        3878            0.0000000000
     11635      3879  TIP3      OH2            21.8173603705       39.2022128873       -9.0561830134  W2        3879            0.0000000000
     11636      3879  TIP3      H1             21.8604703705       40.0620628873       -9.4745530134  W2        3879            0.0000000000
     11637      3879  TIP3      H2             21.3597703705       38.6496828873       -9.6898630134  W2        3879            0.0000000000
     11638      3880  TIP3      OH2            29.5396303705       39.3327728873      -10.6553530134  W2        3880            0.0000000000
     11639      3880  TIP3      H1             30.1860603705       39.0040928873      -10.0305930134  W2        3880            0.0000000000
     11640      3880  TIP3      H2             30.0495703705       39.8506728873      -11.2782130134  W2        3880            0.0000000000
     11641      3881  TIP3      OH2            34.5762703705       39.7857828873       -3.5595430134  W2        3881            0.0000000000
     11642      3881  TIP3      H1             33.8877303705       40.4438528873       -3.6548830134  W2        3881            0.0000000000
     11643      3881  TIP3      H2             34.5917303705       39.5885728873       -2.6230030134  W2        3881            0.0000000000
     11644      3882  TIP3      OH2            20.6275503705       38.1200528873       -4.9821030134  W2        3882            0.0000000000
     11645      3882  TIP3      H1             20.4087203705       38.6501128873       -5.7485030134  W2        3882            0.0000000000
     11646      3882  TIP3      H2             19.9596403705       38.3466028873       -4.3349630134  W2        3882            0.0000000000
     11647      3883  TIP3      OH2            31.3034703705       38.6237028873       -8.6747630134  W2        3883            0.0000000000
     11648      3883  TIP3      H1             31.0882703705       37.8580428873       -8.1421630134  W2        3883            0.0000000000
     11649      3883  TIP3      H2             31.9592103705       39.0961628873       -8.1619130134  W2        3883            0.0000000000
     11650      3884  TIP3      OH2            20.2212803705       40.0122328873       -7.0298830134  W2        3884            0.0000000000
     11651      3884  TIP3      H1             20.8349103705       40.6449928873       -6.6566430134  W2        3884            0.0000000000
     11652      3884  TIP3      H2             20.7333503705       39.5397328873       -7.6861930134  W2        3884            0.0000000000
     11653      3885  TIP3      OH2            31.6508803705       37.3388328873       -4.9954130134  W2        3885            0.0000000000
     11654      3885  TIP3      H1             30.9148003705       37.9495428873       -5.0332830134  W2        3885            0.0000000000
     11655      3885  TIP3      H2             32.3342803705       37.7537328873       -5.5217730134  W2        3885            0.0000000000
     11656      3886  TIP3      OH2            24.6540203705       35.4255628873       -7.5296130134  W2        3886            0.0000000000
     11657      3886  TIP3      H1             24.5364403705       34.4771628873       -7.5837830134  W2        3886            0.0000000000
     11658      3886  TIP3      H2             23.7990303705       35.7581728873       -7.2565030134  W2        3886            0.0000000000
     11659      3887  TIP3      OH2            32.8960703705       35.3847828873      -14.5793530134  W2        3887            0.0000000000
     11660      3887  TIP3      H1             31.9961403705       35.5236828873      -14.2842930134  W2        3887            0.0000000000
     11661      3887  TIP3      H2             33.1479103705       36.2162428873      -14.9811830134  W2        3887            0.0000000000
     11662      3888  TIP3      OH2            21.9227803705       36.3290128873       -6.7519830134  W2        3888            0.0000000000
     11663      3888  TIP3      H1             21.0611503705       36.2418328873       -7.1596930134  W2        3888            0.0000000000
     11664      3888  TIP3      H2             21.9003503705       37.1850228873       -6.3242230134  W2        3888            0.0000000000
     11665      3889  TIP3      OH2            26.5855603705       36.0510528873       -3.3772830134  W2        3889            0.0000000000
     11666      3889  TIP3      H1             27.0058703705       35.6357628873       -2.6242230134  W2        3889            0.0000000000
     11667      3889  TIP3      H2             25.6525203705       35.8723828873       -3.2600830134  W2        3889            0.0000000000
     11668      3890  TIP3      OH2            29.9120503705       39.8065728873       -2.5238330134  W2        3890            0.0000000000
     11669      3890  TIP3      H1             29.3980003705       39.6807928873       -1.7262330134  W2        3890            0.0000000000
     11670      3890  TIP3      H2             29.7565203705       40.7188828873       -2.7682130134  W2        3890            0.0000000000
     11671      3891  TIP3      OH2            26.2472903705       38.5433928873      -16.0922030134  W2        3891            0.0000000000
     11672      3891  TIP3      H1             25.9937703705       38.5625528873      -15.1693930134  W2        3891            0.0000000000
     11673      3891  TIP3      H2             25.9905003705       37.6719328873      -16.3935830134  W2        3891            0.0000000000
     11674      3892  TIP3      OH2            23.1295803705       38.9890428873      -16.9911630134  W2        3892            0.0000000000
     11675      3892  TIP3      H1             22.6986503705       38.5440528873      -16.2614230134  W2        3892            0.0000000000
     11676      3892  TIP3      H2             22.4114503705       39.3606728873      -17.5034130134  W2        3892            0.0000000000
     11677      3893  TIP3      OH2            16.3719203705       38.7309928873       -9.9392930134  W2        3893            0.0000000000
     11678      3893  TIP3      H1             17.0026903705       38.7022028873       -9.2199030134  W2        3893            0.0000000000
     11679      3893  TIP3      H2             16.8213503705       38.3058628873      -10.6697030134  W2        3893            0.0000000000
     11680      3894  TIP3      OH2            17.6461303705       39.4771928873      -14.5152530134  W2        3894            0.0000000000
     11681      3894  TIP3      H1             18.1203003705       40.0681828873      -15.1001630134  W2        3894            0.0000000000
     11682      3894  TIP3      H2             16.9287703705       40.0074828873      -14.1682430134  W2        3894            0.0000000000
     11683      3895  TIP3      OH2            24.5922303705       38.9432228873       -9.6585530134  W2        3895            0.0000000000
     11684      3895  TIP3      H1             23.6813403705       38.9999028873       -9.3699530134  W2        3895            0.0000000000
     11685      3895  TIP3      H2             25.0975203705       38.8827728873       -8.8478330134  W2        3895            0.0000000000
     11686      3896  TIP3      OH2            28.9974203705       38.1778528873       -6.3943730134  W2        3896            0.0000000000
     11687      3896  TIP3      H1             28.3205803705       38.3091628873       -5.7304030134  W2        3896            0.0000000000
     11688      3896  TIP3      H2             28.5119103705       38.0228028873       -7.2046030134  W2        3896            0.0000000000
     11689      3897  TIP3      OH2            20.9141703705       37.8671328873      -11.3531130134  W2        3897            0.0000000000
     11690      3897  TIP3      H1             20.5971203705       36.9646628873      -11.3885730134  W2        3897            0.0000000000
     11691      3897  TIP3      H2             21.6955803705       37.8688728873      -11.9059530134  W2        3897            0.0000000000
     11692      3898  TIP3      OH2            24.5387903705       40.1191328873       -5.3575530134  W2        3898            0.0000000000
     11693      3898  TIP3      H1             23.7033203705       40.5730828873       -5.2473130134  W2        3898            0.0000000000
     11694      3898  TIP3      H2             25.0628503705       40.3949828873       -4.6055630134  W2        3898            0.0000000000
     11695      3899  TIP3      OH2            28.9807303705       39.1458928873      -15.4736530134  W2        3899            0.0000000000
     11696      3899  TIP3      H1             28.0421503705       39.2574528873      -15.6247730134  W2        3899            0.0000000000
     11697      3899  TIP3      H2             29.2779403705       40.0025828873      -15.1670830134  W2        3899            0.0000000000
     11698      3900  TIP3      OH2            18.8498003705       38.8408628873       -3.0301330134  W2        3900            0.0000000000
     11699      3900  TIP3      H1             17.9570303705       39.1794028873       -3.0977330134  W2        3900            0.0000000000
     11700      3900  TIP3      H2             18.7510803705       37.9854728873       -2.6120530134  W2        3900            0.0000000000
     11701      3901  TIP3      OH2            27.5841403705       38.5818928873       -4.1402730134  W2        3901            0.0000000000
     11702      3901  TIP3      H1             28.2829303705       38.6557628873       -3.4903030134  W2        3901            0.0000000000
     11703      3901  TIP3      H2             27.2032803705       37.7173928873       -3.9859830134  W2        3901            0.0000000000
     11704      3902  TIP3      OH2            28.3686303705       38.2340628873      -13.0430430134  W2        3902            0.0000000000
     11705      3902  TIP3      H1             28.5884603705       38.7056028873      -13.8465030134  W2        3902            0.0000000000
     11706      3902  TIP3      H2             28.9270303705       38.6283228873      -12.3729830134  W2        3902            0.0000000000
     11707      3903  TIP3      OH2            25.5686203705       39.9619428873      -12.2082030134  W2        3903            0.0000000000
     11708      3903  TIP3      H1             26.3808803705       40.4662628873      -12.1620330134  W2        3903            0.0000000000
     11709      3903  TIP3      H2             25.3239203705       39.8169128873      -11.2942430134  W2        3903            0.0000000000
     11710      3904  TIP3      OH2            26.4522903705       37.0432428873      -11.2700930134  W2        3904            0.0000000000
     11711      3904  TIP3      H1             26.1056403705       37.6603028873      -10.6256630134  W2        3904            0.0000000000
     11712      3904  TIP3      H2             27.1109803705       37.5438128873      -11.7515430134  W2        3904            0.0000000000
     11713      3905  TIP3      OH2            22.1099903705       38.1061828873      -14.5828430134  W2        3905            0.0000000000
     11714      3905  TIP3      H1             22.0264703705       38.9944928873      -14.2362030134  W2        3905            0.0000000000
     11715      3905  TIP3      H2             23.0000203705       37.8408528873      -14.3511630134  W2        3905            0.0000000000
     11716      3906  TIP3      OH2            32.3088403705       38.8552428873       -2.1885730134  W2        3906            0.0000000000
     11717      3906  TIP3      H1             31.3924203705       39.1174128873       -2.2762030134  W2        3906            0.0000000000
     11718      3906  TIP3      H2             32.6443403705       38.8521428873       -3.0850430134  W2        3906            0.0000000000
     11719      3907  TIP3      OH2            19.4926403705       35.9793628873       -7.7333530134  W2        3907            0.0000000000
     11720      3907  TIP3      H1             19.2636203705       36.0386128873       -8.6608530134  W2        3907            0.0000000000
     11721      3907  TIP3      H2             19.0499803705       35.1879128873       -7.4269430134  W2        3907            0.0000000000
     11722      3908  TIP3      OH2            22.7373403705       39.9068328873       -1.4120130134  W2        3908            0.0000000000
     11723      3908  TIP3      H1             22.8874303705       39.1779628873       -2.0140430134  W2        3908            0.0000000000
     11724      3908  TIP3      H2             22.7395803705       40.6840028873       -1.9707930134  W2        3908            0.0000000000
     11725      3909  TIP3      OH2            23.1499103705       38.2764128873       -3.9192730134  W2        3909            0.0000000000
     11726      3909  TIP3      H1             23.6856603705       38.7280828873       -4.5713430134  W2        3909            0.0000000000
     11727      3909  TIP3      H2             22.2978703705       38.1683928873       -4.3418630134  W2        3909            0.0000000000
     11728      3910  TIP3      OH2            23.9554603705       35.7329828873       -3.4879130134  W2        3910            0.0000000000
     11729      3910  TIP3      H1             23.8574203705       36.6793028873       -3.5932930134  W2        3910            0.0000000000
     11730      3910  TIP3      H2             23.2130803705       35.3603628873       -3.9635630134  W2        3910            0.0000000000
     11731      3911  TIP3      OH2            25.2195103705       40.0545228873        0.0759269866  W2        3911            0.0000000000
     11732      3911  TIP3      H1             24.9840503705       39.8351928873        0.9774169866  W2        3911            0.0000000000
     11733      3911  TIP3      H2             24.4362003705       39.8476428873       -0.4338230134  W2        3911            0.0000000000
     11734      3912  TIP3      OH2            27.9351703705       39.1818728873       -0.8487230134  W2        3912            0.0000000000
     11735      3912  TIP3      H1             26.9877103705       39.2138428873       -0.7163930134  W2        3912            0.0000000000
     11736      3912  TIP3      H2             28.2478403705       38.5565828873       -0.1949030134  W2        3912            0.0000000000
     11737      3913  TIP3      OH2            29.5693203705       37.8159828873        1.1564669866  W2        3913            0.0000000000
     11738      3913  TIP3      H1             29.4725003705       36.8637128873        1.1506569866  W2        3913            0.0000000000
     11739      3913  TIP3      H2             29.2476303705       38.0846628873        2.0170169866  W2        3913            0.0000000000
     11740      3914  TIP3      OH2            19.3962503705       39.0255628873        0.2040169866  W2        3914            0.0000000000
     11741      3914  TIP3      H1             19.6079903705       38.3191728873       -0.4062330134  W2        3914            0.0000000000
     11742      3914  TIP3      H2             19.2850003705       38.5881628873        1.0481369866  W2        3914            0.0000000000
     11743      3915  TIP3      OH2            24.1772703705       35.0267228873       -0.8166330134  W2        3915            0.0000000000
     11744      3915  TIP3      H1             24.8891103705       34.3869428873       -0.8307230134  W2        3915            0.0000000000
     11745      3915  TIP3      H2             24.0763103705       35.2935528873       -1.7303230134  W2        3915            0.0000000000
     11746      3916  TIP3      OH2            24.5310203705       36.7095628873        1.2369969866  W2        3916            0.0000000000
     11747      3916  TIP3      H1             24.3992403705       36.2339428873        0.4168469866  W2        3916            0.0000000000
     11748      3916  TIP3      H2             23.9317603705       37.4539228873        1.1817069866  W2        3916            0.0000000000
     11749      3917  TIP3      OH2            32.2873403705       38.7275828873      -17.2841530134  W2        3917            0.0000000000
     11750      3917  TIP3      H1             32.8979203705       38.3562628873      -16.6473330134  W2        3917            0.0000000000
     11751      3917  TIP3      H2             31.4504903705       38.3062728873      -17.0881530134  W2        3917            0.0000000000
     11752      3918  TIP3      OH2            31.9199103705       40.2824228873      -12.3181630134  W2        3918            0.0000000000
     11753      3918  TIP3      H1             32.1996203705       39.3754628873      -12.1939930134  W2        3918            0.0000000000
     11754      3918  TIP3      H2             32.6790803705       40.7165728873      -12.7072430134  W2        3918            0.0000000000
     11755      3919  TIP3      OH2            16.8421503705       40.0485628873       -0.6294130134  W2        3919            0.0000000000
     11756      3919  TIP3      H1             17.7616403705       39.9263928873       -0.3931030134  W2        3919            0.0000000000
     11757      3919  TIP3      H2             16.3926003705       39.2985328873       -0.2400630134  W2        3919            0.0000000000
     11758      3920  TIP3      OH2            34.8440903705       35.5807128873        1.2471669866  W2        3920            0.0000000000
     11759      3920  TIP3      H1             35.1937903705       34.9270628873        0.6416369866  W2        3920            0.0000000000
     11760      3920  TIP3      H2             34.9910403705       36.4181228873        0.8074269866  W2        3920            0.0000000000
     11761      3921  TIP3      OH2            32.5333903705       37.5453528873      -12.2699630134  W2        3921            0.0000000000
     11762      3921  TIP3      H1             32.7158903705       37.0965028873      -11.4444630134  W2        3921            0.0000000000
     11763      3921  TIP3      H2             31.9336803705       36.9607928873      -12.7335030134  W2        3921            0.0000000000
     11764      3922  TIP3      OH2            18.0634003705       38.3607228873       -7.7381230134  W2        3922            0.0000000000
     11765      3922  TIP3      H1             18.5085603705       37.5689728873       -7.4361530134  W2        3922            0.0000000000
     11766      3922  TIP3      H2             18.5297003705       39.0772428873       -7.3075630134  W2        3922            0.0000000000
     11767      3923  TIP3      OH2            34.3638103705       37.6901728873       -0.4037030134  W2        3923            0.0000000000
     11768      3923  TIP3      H1             33.4463803705       37.9608828873       -0.4393530134  W2        3923            0.0000000000
     11769      3923  TIP3      H2             34.4867503705       37.1550128873       -1.1877330134  W2        3923            0.0000000000
     11770      3924  TIP3      OH2            34.4000103705       37.6131628873      -15.7419330134  W2        3924            0.0000000000
     11771      3924  TIP3      H1             34.8122703705       36.8917328873      -16.2171330134  W2        3924            0.0000000000
     11772      3924  TIP3      H2             35.0816603705       38.2826228873      -15.6835030134  W2        3924            0.0000000000
     11773      3925  TIP3      OH2            16.6810803705       37.6179328873      -12.6148630134  W2        3925            0.0000000000
     11774      3925  TIP3      H1             15.7559203705       37.8265928873      -12.7443130134  W2        3925            0.0000000000
     11775      3925  TIP3      H2             17.1350703705       38.1020128873      -13.3046330134  W2        3925            0.0000000000
     11776      3926  TIP3      OH2            16.6446203705       36.3558328873       -4.2706130134  W2        3926            0.0000000000
     11777      3926  TIP3      H1             15.9796703705       36.1098628873       -3.6275230134  W2        3926            0.0000000000
     11778      3926  TIP3      H2             16.2017503705       36.9778728873       -4.8478130134  W2        3926            0.0000000000
     11779      3927  TIP3      OH2            33.3644003705       35.7798028873       -2.5846230134  W2        3927            0.0000000000
     11780      3927  TIP3      H1             32.5517503705       36.1048328873       -2.9721530134  W2        3927            0.0000000000
     11781      3927  TIP3      H2             33.5972503705       35.0196528873       -3.1177130134  W2        3927            0.0000000000
     11782      3928  TIP3      OH2            26.7942503705       37.2288628873       -8.2618030134  W2        3928            0.0000000000
     11783      3928  TIP3      H1             26.1199303705       36.5994228873       -8.0062230134  W2        3928            0.0000000000
     11784      3928  TIP3      H2             27.3581703705       36.7447528873       -8.8650130134  W2        3928            0.0000000000
     11785      3929  TIP3      OH2            31.9369703705       35.3362628873       -8.1490930134  W2        3929            0.0000000000
     11786      3929  TIP3      H1             32.5407303705       35.8838028873       -8.6509930134  W2        3929            0.0000000000
     11787      3929  TIP3      H2             31.0671703705       35.6553028873       -8.3896830134  W2        3929            0.0000000000
     11788      3930  TIP3      OH2            33.6640103705       36.4751328873       -9.8160030134  W2        3930            0.0000000000
     11789      3930  TIP3      H1             34.2757603705       35.9607028873      -10.3426430134  W2        3930            0.0000000000
     11790      3930  TIP3      H2             34.0463503705       37.3523428873       -9.7925630134  W2        3930            0.0000000000
     11791      3931  TIP3      OH2            19.1210003705       35.8628928873      -10.4398130134  W2        3931            0.0000000000
     11792      3931  TIP3      H1             18.3439803705       35.6283828873      -10.9472230134  W2        3931            0.0000000000
     11793      3931  TIP3      H2             19.6513603705       35.0661028873      -10.4310130134  W2        3931            0.0000000000
     11794      3932  TIP3      OH2            17.9573403705       35.6607028873      -14.6362030134  W2        3932            0.0000000000
     11795      3932  TIP3      H1             18.3964103705       36.2717528873      -15.2278530134  W2        3932            0.0000000000
     11796      3932  TIP3      H2             17.3235803705       36.1991128873      -14.1622030134  W2        3932            0.0000000000
     11797      3933  TIP3      OH2            23.7002603705       35.7896028873      -10.6265030134  W2        3933            0.0000000000
     11798      3933  TIP3      H1             24.5746003705       36.1780328873      -10.6560730134  W2        3933            0.0000000000
     11799      3933  TIP3      H2             23.5643403705       35.5743828873       -9.7037830134  W2        3933            0.0000000000
     11800      3934  TIP3      OH2            29.2571003705       35.8195828873       -8.9773330134  W2        3934            0.0000000000
     11801      3934  TIP3      H1             29.3332603705       35.9147428873       -9.9267330134  W2        3934            0.0000000000
     11802      3934  TIP3      H2             28.9820203705       34.9118728873       -8.8484230134  W2        3934            0.0000000000
     11803      3935  TIP3      OH2            30.6103603705       35.8453628873      -13.2848330134  W2        3935            0.0000000000
     11804      3935  TIP3      H1             29.9074703705       36.4602828873      -13.4946930134  W2        3935            0.0000000000
     11805      3935  TIP3      H2             30.1655003705       35.0080328873      -13.1537430134  W2        3935            0.0000000000
     11806      3936  TIP3      OH2            19.8182503705       37.5768528873      -16.1937930134  W2        3936            0.0000000000
     11807      3936  TIP3      H1             20.3095903705       36.9470928873      -16.7212430134  W2        3936            0.0000000000
     11808      3936  TIP3      H2             20.4418803705       37.8727928873      -15.5306730134  W2        3936            0.0000000000
     11809      3937  TIP3      OH2            24.8442603705       37.8700028873      -13.7367430134  W2        3937            0.0000000000
     11810      3937  TIP3      H1             25.0223903705       37.2233228873      -13.0538830134  W2        3937            0.0000000000
     11811      3937  TIP3      H2             24.7908803705       38.7037728873      -13.2696330134  W2        3937            0.0000000000
     11812      3938  TIP3      OH2            19.0788003705       36.3770828873       -0.9221930134  W2        3938            0.0000000000
     11813      3938  TIP3      H1             18.7126203705       35.6113428873       -0.4797230134  W2        3938            0.0000000000
     11814      3938  TIP3      H2             19.9916503705       36.4061028873       -0.6356830134  W2        3938            0.0000000000
     11815      3939  TIP3      OH2            21.0518803705       35.7275228873        0.6135169866  W2        3939            0.0000000000
     11816      3939  TIP3      H1             21.9502403705       35.4535428873        0.4288569866  W2        3939            0.0000000000
     11817      3939  TIP3      H2             20.6651903705       34.9851228873        1.0777769866  W2        3939            0.0000000000
     11818      3940  TIP3      OH2            29.4731103705       35.0600528873        0.7957969866  W2        3940            0.0000000000
     11819      3940  TIP3      H1             29.5498303705       34.6341228873        1.6495669866  W2        3940            0.0000000000
     11820      3940  TIP3      H2             30.3667703705       35.0735228873        0.4531469866  W2        3940            0.0000000000
     11821      3941  TIP3      OH2            39.4835503705       38.1200528873       -4.9821030134  W2        3941            0.0000000000
     11822      3941  TIP3      H1             39.2647203705       38.6501128873       -5.7485030134  W2        3941            0.0000000000
     11823      3941  TIP3      H2             38.8156403705       38.3466028873       -4.3349630134  W2        3941            0.0000000000
     11824      3942  TIP3      OH2            39.0772803705       40.0122328873       -7.0298830134  W2        3942            0.0000000000
     11825      3942  TIP3      H1             39.6909103705       40.6449928873       -6.6566430134  W2        3942            0.0000000000
     11826      3942  TIP3      H2             39.5893503705       39.5397328873       -7.6861930134  W2        3942            0.0000000000
     11827      3943  TIP3      OH2            35.2279203705       38.7309928873       -9.9392930134  W2        3943            0.0000000000
     11828      3943  TIP3      H1             35.8586903705       38.7022028873       -9.2199030134  W2        3943            0.0000000000
     11829      3943  TIP3      H2             35.6773503705       38.3058628873      -10.6697030134  W2        3943            0.0000000000
     11830      3944  TIP3      OH2            36.5021303705       39.4771928873      -14.5152530134  W2        3944            0.0000000000
     11831      3944  TIP3      H1             36.9763003705       40.0681828873      -15.1001630134  W2        3944            0.0000000000
     11832      3944  TIP3      H2             35.7847703705       40.0074828873      -14.1682430134  W2        3944            0.0000000000
     11833      3945  TIP3      OH2            39.7701703705       37.8671328873      -11.3531130134  W2        3945            0.0000000000
     11834      3945  TIP3      H1             39.4531203705       36.9646628873      -11.3885730134  W2        3945            0.0000000000
     11835      3945  TIP3      H2             40.5515803705       37.8688728873      -11.9059530134  W2        3945            0.0000000000
     11836      3946  TIP3      OH2            37.7058003705       38.8408628873       -3.0301330134  W2        3946            0.0000000000
     11837      3946  TIP3      H1             36.8130303705       39.1794028873       -3.0977330134  W2        3946            0.0000000000
     11838      3946  TIP3      H2             37.6070803705       37.9854728873       -2.6120530134  W2        3946            0.0000000000
     11839      3947  TIP3      OH2            38.3486403705       35.9793628873       -7.7333530134  W2        3947            0.0000000000
     11840      3947  TIP3      H1             38.1196203705       36.0386128873       -8.6608530134  W2        3947            0.0000000000
     11841      3947  TIP3      H2             37.9059803705       35.1879128873       -7.4269430134  W2        3947            0.0000000000
     11842      3948  TIP3      OH2            38.2522503705       39.0255628873        0.2040169866  W2        3948            0.0000000000
     11843      3948  TIP3      H1             38.4639903705       38.3191728873       -0.4062330134  W2        3948            0.0000000000
     11844      3948  TIP3      H2             38.1410003705       38.5881628873        1.0481369866  W2        3948            0.0000000000
     11845      3949  TIP3      OH2            35.6981503705       40.0485628873       -0.6294130134  W2        3949            0.0000000000
     11846      3949  TIP3      H1             36.6176403705       39.9263928873       -0.3931030134  W2        3949            0.0000000000
     11847      3949  TIP3      H2             35.2486003705       39.2985328873       -0.2400630134  W2        3949            0.0000000000
     11848      3950  TIP3      OH2            36.9194003705       38.3607228873       -7.7381230134  W2        3950            0.0000000000
     11849      3950  TIP3      H1             37.3645603705       37.5689728873       -7.4361530134  W2        3950            0.0000000000
     11850      3950  TIP3      H2             37.3857003705       39.0772428873       -7.3075630134  W2        3950            0.0000000000
     11851      3951  TIP3      OH2            35.5370803705       37.6179328873      -12.6148630134  W2        3951            0.0000000000
     11852      3951  TIP3      H1             34.6119203705       37.8265928873      -12.7443130134  W2        3951            0.0000000000
     11853      3951  TIP3      H2             35.9910703705       38.1020128873      -13.3046330134  W2        3951            0.0000000000
     11854      3952  TIP3      OH2            35.5006203705       36.3558328873       -4.2706130134  W2        3952            0.0000000000
     11855      3952  TIP3      H1             34.8356703705       36.1098628873       -3.6275230134  W2        3952            0.0000000000
     11856      3952  TIP3      H2             35.0577503705       36.9778728873       -4.8478130134  W2        3952            0.0000000000
     11857      3953  TIP3      OH2            37.9770003705       35.8628928873      -10.4398130134  W2        3953            0.0000000000
     11858      3953  TIP3      H1             37.1999803705       35.6283828873      -10.9472230134  W2        3953            0.0000000000
     11859      3953  TIP3      H2             38.5073603705       35.0661028873      -10.4310130134  W2        3953            0.0000000000
     11860      3954  TIP3      OH2            36.8133403705       35.6607028873      -14.6362030134  W2        3954            0.0000000000
     11861      3954  TIP3      H1             37.2524103705       36.2717528873      -15.2278530134  W2        3954            0.0000000000
     11862      3954  TIP3      H2             36.1795803705       36.1991128873      -14.1622030134  W2        3954            0.0000000000
     11863      3955  TIP3      OH2            38.6742503705       37.5768528873      -16.1937930134  W2        3955            0.0000000000
     11864      3955  TIP3      H1             39.1655903705       36.9470928873      -16.7212430134  W2        3955            0.0000000000
     11865      3955  TIP3      H2             39.2978803705       37.8727928873      -15.5306730134  W2        3955            0.0000000000
     11866      3956  TIP3      OH2            37.9348003705       36.3770828873       -0.9221930134  W2        3956            0.0000000000
     11867      3956  TIP3      H1             37.5686203705       35.6113428873       -0.4797230134  W2        3956            0.0000000000
     11868      3956  TIP3      H2             38.8476503705       36.4061028873       -0.6356830134  W2        3956            0.0000000000
     11869      3957  TIP3      OH2            39.9078803705       35.7275228873        0.6135169866  W2        3957            0.0000000000
     11870      3957  TIP3      H1             40.8062403705       35.4535428873        0.4288569866  W2        3957            0.0000000000
     11871      3957  TIP3      H2             39.5211903705       34.9851228873        1.0777769866  W2        3957            0.0000000000
     11872      3958  TIP3      OH2           -28.3687396295      -30.4048771127        8.3749369866  W2        3958            0.0000000000
     11873      3958  TIP3      H1            -28.2796296295      -29.4610571127        8.2426469866  W2        3958            0.0000000000
     11874      3958  TIP3      H2            -29.0069796295      -30.6802371127        7.7168769866  W2        3958            0.0000000000
     11875      3959  TIP3      OH2           -29.4356096295      -31.1498071127       11.7937569866  W2        3959            0.0000000000
     11876      3959  TIP3      H1            -29.4738596295      -31.7961771127       12.4987169866  W2        3959            0.0000000000
     11877      3959  TIP3      H2            -29.7579596295      -31.6163671127       11.0226269866  W2        3959            0.0000000000
     11878      3960  TIP3      OH2           -37.0671096295      -31.5355971127       13.3867469866  W2        3960            0.0000000000
     11879      3960  TIP3      H1            -37.0258996295      -32.1612671127       14.1099869866  W2        3960            0.0000000000
     11880      3960  TIP3      H2            -36.3643396295      -30.9117371127       13.5687869866  W2        3960            0.0000000000
     11881      3961  TIP3      OH2           -25.7295896295      -28.2107671127       10.0952669866  W2        3961            0.0000000000
     11882      3961  TIP3      H1            -26.1703196295      -28.9311671127       10.5458269866  W2        3961            0.0000000000
     11883      3961  TIP3      H2            -25.7426196295      -27.4900471127       10.7250369866  W2        3961            0.0000000000
     11884      3962  TIP3      OH2           -36.1437996295      -27.0857071127       11.9216569866  W2        3962            0.0000000000
     11885      3962  TIP3      H1            -36.5132796295      -27.8876571127       11.5520869866  W2        3962            0.0000000000
     11886      3962  TIP3      H2            -35.2026896295      -27.2542171127       11.9679969866  W2        3962            0.0000000000
     11887      3963  TIP3      OH2           -39.5337496295      -33.4254471127        7.3145369866  W2        3963            0.0000000000
     11888      3963  TIP3      H1            -39.9814096295      -32.5795771127        7.2961869866  W2        3963            0.0000000000
     11889      3963  TIP3      H2            -40.0946296295      -34.0050271127        6.7990469866  W2        3963            0.0000000000
     11890      3964  TIP3      OH2           -38.8231396295      -31.2634871127        9.4403369866  W2        3964            0.0000000000
     11891      3964  TIP3      H1            -38.6097896295      -32.0333271127        9.9676369866  W2        3964            0.0000000000
     11892      3964  TIP3      H2            -38.0853796295      -31.1738171127        8.8370969866  W2        3964            0.0000000000
     11893      3965  TIP3      OH2           -28.6180396295      -23.1065971127       10.3073069866  W2        3965            0.0000000000
     11894      3965  TIP3      H1            -27.9983996295      -23.7831271127       10.0342269866  W2        3965            0.0000000000
     11895      3965  TIP3      H2            -28.8262996295      -23.3245171127       11.2157969866  W2        3965            0.0000000000
     11896      3966  TIP3      OH2           -31.0461696295      -28.7176671127       12.1998569866  W2        3966            0.0000000000
     11897      3966  TIP3      H1            -30.7423796295      -29.4035271127       11.6052669866  W2        3966            0.0000000000
     11898      3966  TIP3      H2            -30.3247696295      -28.5987971127       12.8176569866  W2        3966            0.0000000000
     11899      3967  TIP3      OH2           -22.3831896295      -37.1161371127       13.0604769866  W2        3967            0.0000000000
     11900      3967  TIP3      H1            -22.3339696295      -36.5060171127       13.7963869866  W2        3967            0.0000000000
     11901      3967  TIP3      H2            -21.9576796295      -36.6550471127       12.3375869866  W2        3967            0.0000000000
     11902      3968  TIP3      OH2           -27.9054696295      -34.3234271127       12.5273369866  W2        3968            0.0000000000
     11903      3968  TIP3      H1            -27.7628796295      -35.2697271127       12.5474969866  W2        3968            0.0000000000
     11904      3968  TIP3      H2            -28.0115696295      -34.1164471127       11.5988269866  W2        3968            0.0000000000
     11905      3969  TIP3      OH2           -34.7506396295      -36.2217871127        9.7998169866  W2        3969            0.0000000000
     11906      3969  TIP3      H1            -34.7075296295      -35.3619371127        9.3814469866  W2        3969            0.0000000000
     11907      3969  TIP3      H2            -35.2082296295      -36.7743171127        9.1661369866  W2        3969            0.0000000000
     11908      3970  TIP3      OH2           -27.0283696295      -36.0912271127        8.2006469866  W2        3970            0.0000000000
     11909      3970  TIP3      H1            -26.3819396295      -36.4199071127        8.8254069866  W2        3970            0.0000000000
     11910      3970  TIP3      H2            -26.5184296295      -35.5733271127        7.5777869866  W2        3970            0.0000000000
     11911      3971  TIP3      OH2           -38.1304896295      -33.8252071127       10.5619569866  W2        3971            0.0000000000
     11912      3971  TIP3      H1            -37.4768296295      -34.3750371127       10.9939669866  W2        3971            0.0000000000
     11913      3971  TIP3      H2            -38.1065596295      -34.0993071127        9.6451569866  W2        3971            0.0000000000
     11914      3972  TIP3      OH2           -32.9740396295      -32.2750771127        9.7771069866  W2        3972            0.0000000000
     11915      3972  TIP3      H1            -32.3579396295      -32.8015371127       10.2865069866  W2        3972            0.0000000000
     11916      3972  TIP3      H2            -33.5601596295      -32.9152071127        9.3734669866  W2        3972            0.0000000000
     11917      3973  TIP3      OH2           -21.9917296295      -35.6382171127       15.2964569866  W2        3973            0.0000000000
     11918      3973  TIP3      H1            -22.6802696295      -34.9801471127       15.2011169866  W2        3973            0.0000000000
     11919      3973  TIP3      H2            -21.9762696295      -35.8354271127       16.2329969866  W2        3973            0.0000000000
     11920      3974  TIP3      OH2           -35.9404496295      -37.3039471127       13.8738969866  W2        3974            0.0000000000
     11921      3974  TIP3      H1            -36.1592796295      -36.7738871127       13.1074969866  W2        3974            0.0000000000
     11922      3974  TIP3      H2            -36.6083596295      -37.0773971127       14.5210369866  W2        3974            0.0000000000
     11923      3975  TIP3      OH2           -28.5714696295      -27.8038371127        7.4178069866  W2        3975            0.0000000000
     11924      3975  TIP3      H1            -28.8669596295      -28.1266071127        6.5664969866  W2        3975            0.0000000000
     11925      3975  TIP3      H2            -28.8956896295      -26.9041671127        7.4590669866  W2        3975            0.0000000000
     11926      3976  TIP3      OH2           -33.3713096295      -29.6283771127       14.1612669866  W2        3976            0.0000000000
     11927      3976  TIP3      H1            -34.1113996295      -29.0302271127       14.2647869866  W2        3976            0.0000000000
     11928      3976  TIP3      H2            -32.6573596295      -29.0744171127       13.8456269866  W2        3976            0.0000000000
     11929      3977  TIP3      OH2           -25.2645296295      -36.8002971127       10.1812369866  W2        3977            0.0000000000
     11930      3977  TIP3      H1            -25.4797296295      -37.5659571127       10.7138369866  W2        3977            0.0000000000
     11931      3977  TIP3      H2            -24.6087896295      -36.3278371127       10.6940869866  W2        3977            0.0000000000
     11932      3978  TIP3      OH2           -36.3467196295      -35.4117671127       11.8261169866  W2        3978            0.0000000000
     11933      3978  TIP3      H1            -35.7330896295      -34.7790071127       12.1993569866  W2        3978            0.0000000000
     11934      3978  TIP3      H2            -35.8346496295      -35.8842671127       11.1698069866  W2        3978            0.0000000000
     11935      3979  TIP3      OH2           -34.9638796295      -27.6640771127       14.9484169866  W2        3979            0.0000000000
     11936      3979  TIP3      H1            -34.9691196295      -26.7847271127       14.5703469866  W2        3979            0.0000000000
     11937      3979  TIP3      H2            -35.8174696295      -27.7476671127       15.3734069866  W2        3979            0.0000000000
     11938      3980  TIP3      OH2           -38.8427896295      -27.9932871127        5.7303469866  W2        3980            0.0000000000
     11939      3980  TIP3      H1            -39.1146996295      -27.7641871127        4.8416369866  W2        3980            0.0000000000
     11940      3980  TIP3      H2            -38.7972196295      -27.1554071127        6.1908769866  W2        3980            0.0000000000
     11941      3981  TIP3      OH2           -25.2178196295      -26.3716971127       12.4431969866  W2        3981            0.0000000000
     11942      3981  TIP3      H1            -26.1594496295      -26.3133071127       12.6048869866  W2        3981            0.0000000000
     11943      3981  TIP3      H2            -24.9412096295      -25.4656471127       12.3061669866  W2        3981            0.0000000000
     11944      3982  TIP3      OH2           -24.9171196295      -38.0851671127       13.8605869866  W2        3982            0.0000000000
     11945      3982  TIP3      H1            -25.6531996295      -37.4744571127       13.8227169866  W2        3982            0.0000000000
     11946      3982  TIP3      H2            -24.2337196295      -37.6702671127       13.3342269866  W2        3982            0.0000000000
     11947      3983  TIP3      OH2           -31.9139796295      -39.9984371127       11.3263869866  W2        3983            0.0000000000
     11948      3983  TIP3      H1            -32.0315596295      -40.9468371127       11.2722169866  W2        3983            0.0000000000
     11949      3983  TIP3      H2            -32.7689696295      -39.6658271127       11.5994969866  W2        3983            0.0000000000
     11950      3984  TIP3      OH2           -26.9656996295      -24.5903471127        9.0683569866  W2        3984            0.0000000000
     11951      3984  TIP3      H1            -26.5404696295      -25.2975571127        8.5833169866  W2        3984            0.0000000000
     11952      3984  TIP3      H2            -26.6486996295      -23.7890771127        8.6515769866  W2        3984            0.0000000000
     11953      3985  TIP3      OH2           -25.8060496295      -26.6894971127        7.5770169866  W2        3985            0.0000000000
     11954      3985  TIP3      H1            -26.0635696295      -27.3794871127        6.9656069866  W2        3985            0.0000000000
     11955      3985  TIP3      H2            -25.7349696295      -27.1323771127        8.4226069866  W2        3985            0.0000000000
     11956      3986  TIP3      OH2           -24.1200296295      -28.1228271127       16.0543669866  W2        3986            0.0000000000
     11957      3986  TIP3      H1            -23.9803996295      -28.7145771127       15.3150669866  W2        3986            0.0000000000
     11958      3986  TIP3      H2            -23.9527496295      -27.2502371127       15.6982469866  W2        3986            0.0000000000
     11959      3987  TIP3      OH2           -29.6474896295      -31.1608771127        5.8269669866  W2        3987            0.0000000000
     11960      3987  TIP3      H1            -30.3589396295      -30.6259071127        5.4750169866  W2        3987            0.0000000000
     11961      3987  TIP3      H2            -28.9565296295      -31.1056671127        5.1668569866  W2        3987            0.0000000000
     11962      3988  TIP3      OH2           -29.5935696295      -32.7034471127        2.8654669866  W2        3988            0.0000000000
     11963      3988  TIP3      H1            -28.8925796295      -32.6807571127        3.5168669866  W2        3988            0.0000000000
     11964      3988  TIP3      H2            -29.2912796295      -33.3314771127        2.2093969866  W2        3988            0.0000000000
     11965      3989  TIP3      OH2           -22.2780996295      -31.7830271127       14.1204069866  W2        3989            0.0000000000
     11966      3989  TIP3      H1            -22.9306896295      -31.0884671127       14.2094969866  W2        3989            0.0000000000
     11967      3989  TIP3      H2            -21.8130696295      -31.5729371127       13.3105669866  W2        3989            0.0000000000
     11968      3990  TIP3      OH2           -26.2417196295      -30.9515471127        6.7785569866  W2        3990            0.0000000000
     11969      3990  TIP3      H1            -26.9736196295      -30.7231771127        7.3516169866  W2        3990            0.0000000000
     11970      3990  TIP3      H2            -25.7944996295      -31.6652771127        7.2333069866  W2        3990            0.0000000000
     11971      3991  TIP3      OH2           -26.3443696295      -32.7772871127       15.8462569866  W2        3991            0.0000000000
     11972      3991  TIP3      H1            -26.2644596295      -32.0138471127       16.4181069866  W2        3991            0.0000000000
     11973      3991  TIP3      H2            -26.9455996295      -32.4980471127       15.1557669866  W2        3991            0.0000000000
     11974      3992  TIP3      OH2           -34.5963496295      -30.3209271127        8.6610569866  W2        3992            0.0000000000
     11975      3992  TIP3      H1            -34.9268296295      -30.6915871127        7.8427569866  W2        3992            0.0000000000
     11976      3992  TIP3      H2            -34.0079396295      -30.9915271127        9.0078869866  W2        3992            0.0000000000
     11977      3993  TIP3      OH2           -33.2295996295      -26.8928671127       11.3422769866  W2        3993            0.0000000000
     11978      3993  TIP3      H1            -33.3244696295      -27.4715571127       10.5857369866  W2        3993            0.0000000000
     11979      3993  TIP3      H2            -32.5002396295      -27.2642971127       11.8385569866  W2        3993            0.0000000000
     11980      3994  TIP3      OH2           -34.2297996295      -31.5523671127       12.2945569866  W2        3994            0.0000000000
     11981      3994  TIP3      H1            -33.6645496295      -31.4309471127       11.5316769866  W2        3994            0.0000000000
     11982      3994  TIP3      H2            -33.9109096295      -30.9148671127       12.9334069866  W2        3994            0.0000000000
     11983      3995  TIP3      OH2           -27.9205796295      -26.0491771127       13.0286069866  W2        3995            0.0000000000
     11984      3995  TIP3      H1            -28.1609196295      -25.3868671127       13.6765269866  W2        3995            0.0000000000
     11985      3995  TIP3      H2            -28.1187596295      -26.8836571127       13.4535669866  W2        3995            0.0000000000
     11986      3996  TIP3      OH2           -33.3497296295      -27.1530971127       17.0117469866  W2        3996            0.0000000000
     11987      3996  TIP3      H1            -33.6609796295      -26.3707771127       17.4670669866  W2        3996            0.0000000000
     11988      3996  TIP3      H2            -33.9997096295      -27.3061871127       16.3259469866  W2        3996            0.0000000000
     11989      3997  TIP3      OH2           -27.3707696295      -31.7892571127        4.4636769866  W2        3997            0.0000000000
     11990      3997  TIP3      H1            -26.7912196295      -31.6392271127        5.2105669866  W2        3997            0.0000000000
     11991      3997  TIP3      H2            -26.9567696295      -31.3185171127        3.7403169866  W2        3997            0.0000000000
     11992      3998  TIP3      OH2           -36.4297396295      -30.9549871127       16.2403169866  W2        3998            0.0000000000
     11993      3998  TIP3      H1            -36.3594196295      -30.3043071127       16.9388169866  W2        3998            0.0000000000
     11994      3998  TIP3      H2            -37.3205196295      -30.8522371127       15.9054069866  W2        3998            0.0000000000
     11995      3999  TIP3      OH2           -29.6442796295      -25.0524071127        7.8989869866  W2        3999            0.0000000000
     11996      3999  TIP3      H1            -29.1705196295      -24.7567771127        8.6764069866  W2        3999            0.0000000000
     11997      3999  TIP3      H2            -30.2073496295      -24.3142471127        7.6659469866  W2        3999            0.0000000000
     11998      4000  TIP3      OH2           -23.6719296295      -40.0392171127        4.2766469866  W2        4001            0.0000000000
     11999      4000  TIP3      H1            -24.5718596295      -39.9003171127        4.5717069866  W2        4001            0.0000000000
     12000      4000  TIP3      H2            -23.4200896295      -39.2077571127        3.8748169866  W2        4001            0.0000000000
     12001      4001  TIP3      OH2           -35.6060796295      -31.2514971127        6.2503369866  W2        4002            0.0000000000
     12002      4001  TIP3      H1            -35.8979496295      -30.4833271127        5.7594669866  W2        4002            0.0000000000
     12003      4001  TIP3      H2            -36.2805596295      -31.9108771127        6.0874769866  W2        4002            0.0000000000
     12004      4002  TIP3      OH2           -22.4827896295      -25.6729771127        2.6530369866  W2        4003            0.0000000000
     12005      4002  TIP3      H1            -22.4094396295      -24.7339571127        2.8235669866  W2        4003            0.0000000000
     12006      4002  TIP3      H2            -21.5772796295      -25.9781171127        2.5967669866  W2        4003            0.0000000000
     12007      4003  TIP3      OH2           -39.5130696295      -28.8885771127       15.0653169866  W2        4004            0.0000000000
     12008      4003  TIP3      H1            -40.0142296295      -28.9166371127       14.2502869866  W2        4004            0.0000000000
     12009      4003  TIP3      H2            -39.5076996295      -29.7942571127       15.3750469866  W2        4004            0.0000000000
     12010      4004  TIP3      OH2           -39.7627996295      -26.1081971127       11.9493369866  W2        4005            0.0000000000
     12011      4004  TIP3      H1            -38.8167396295      -26.2524971127       11.9302869866  W2        4005            0.0000000000
     12012      4004  TIP3      H2            -39.8751696295      -25.3239171127       12.4864569866  W2        4005            0.0000000000
     12013      4005  TIP3      OH2           -30.5865496295      -25.8683071127       16.5078469866  W2        4007            0.0000000000
     12014      4005  TIP3      H1            -30.4990896295      -25.0418471127       16.9827569866  W2        4007            0.0000000000
     12015      4005  TIP3      H2            -31.4500396295      -26.1979271127       16.7567769866  W2        4007            0.0000000000
     12016      4006  TIP3      OH2           -30.1719696295      -22.0959371127        6.3139069866  W2        4008            0.0000000000
     12017      4006  TIP3      H1            -30.2473696295      -22.2172171127        5.3674269866  W2        4008            0.0000000000
     12018      4006  TIP3      H2            -30.1390996295      -21.1466671127        6.4323669866  W2        4008            0.0000000000
     12019      4007  TIP3      OH2           -36.5185896295      -23.3072371127        8.0948069866  W2        4009            0.0000000000
     12020      4007  TIP3      H1            -36.3665496295      -23.6551971127        8.9734569866  W2        4009            0.0000000000
     12021      4007  TIP3      H2            -37.3695496295      -23.6635071127        7.8395269866  W2        4009            0.0000000000
     12022      4008  TIP3      OH2           -27.0703696295      -22.9419171127        3.3161469866  W2        4010            0.0000000000
     12023      4008  TIP3      H1            -26.6955296295      -23.6863071127        2.8454069866  W2        4010            0.0000000000
     12024      4008  TIP3      H2            -27.0659996295      -23.2118571127        4.2344769866  W2        4010            0.0000000000
     12025      4009  TIP3      OH2           -27.4015596295      -23.0162071127        6.0653669866  W2        4011            0.0000000000
     12026      4009  TIP3      H1            -28.3365796295      -22.9160171127        6.2440669866  W2        4011            0.0000000000
     12027      4009  TIP3      H2            -27.1213696295      -23.7256071127        6.6436869866  W2        4011            0.0000000000
     12028      4010  TIP3      OH2           -37.2640196295      -27.5650371127       16.1085969866  W2        4013            0.0000000000
     12029      4010  TIP3      H1            -37.0478896295      -27.9264771127       16.9681769866  W2        4013            0.0000000000
     12030      4010  TIP3      H2            -38.1195496295      -27.9396571127       15.8989469866  W2        4013            0.0000000000
     12031      4011  TIP3      OH2           -34.6452196295      -39.0949871127       12.1040169866  W2        4014            0.0000000000
     12032      4011  TIP3      H1            -35.5068496295      -39.1821671127       11.6963069866  W2        4014            0.0000000000
     12033      4011  TIP3      H2            -34.6676496295      -38.2389771127       12.5317769866  W2        4014            0.0000000000
     12034      4012  TIP3      OH2           -29.9824396295      -39.3729471127       15.4787169866  W2        4015            0.0000000000
     12035      4012  TIP3      H1            -29.5621296295      -39.7882371127       16.2317769866  W2        4015            0.0000000000
     12036      4012  TIP3      H2            -30.9154796295      -39.5516171127       15.5959169866  W2        4015            0.0000000000
     12037      4013  TIP3      OH2           -26.6559496295      -35.6174271127       16.3321669866  W2        4016            0.0000000000
     12038      4013  TIP3      H1            -27.1699996295      -35.7432071127       17.1297669866  W2        4016            0.0000000000
     12039      4013  TIP3      H2            -26.8114796295      -34.7051171127       16.0877869866  W2        4016            0.0000000000
     12040      4014  TIP3      OH2           -25.8934596295      -30.7564271127        2.0934669866  W2        4017            0.0000000000
     12041      4014  TIP3      H1            -25.8513796295      -30.9790371127        1.1634669866  W2        4017            0.0000000000
     12042      4014  TIP3      H2            -25.0442496295      -30.3577171127        2.2834569866  W2        4017            0.0000000000
     12043      4015  TIP3      OH2           -30.3207096295      -36.8806071127        2.7637969866  W2        4018            0.0000000000
     12044      4015  TIP3      H1            -30.5742296295      -36.8614471127        3.6866069866  W2        4018            0.0000000000
     12045      4015  TIP3      H2            -30.5774996295      -37.7520671127        2.4624169866  W2        4018            0.0000000000
     12046      4016  TIP3      OH2           -34.5542096295      -34.1295371127       13.1990369866  W2        4019            0.0000000000
     12047      4016  TIP3      H1            -35.1959996295      -34.1698071127       13.9080469866  W2        4019            0.0000000000
     12048      4016  TIP3      H2            -34.5170096295      -33.2030671127       12.9613369866  W2        4019            0.0000000000
     12049      4017  TIP3      OH2           -34.5572996295      -33.9085271127        8.1110369866  W2        4020            0.0000000000
     12050      4017  TIP3      H1            -35.4500096295      -34.2489171127        8.0524169866  W2        4020            0.0000000000
     12051      4017  TIP3      H2            -34.1066396295      -34.2854371127        7.3553569866  W2        4020            0.0000000000
     12052      4018  TIP3      OH2           -29.0217496295      -33.4924971127        6.9281169866  W2        4021            0.0000000000
     12053      4018  TIP3      H1            -29.4307196295      -32.6776371127        6.6365969866  W2        4021            0.0000000000
     12054      4018  TIP3      H2            -28.3011296295      -33.6324871127        6.3138269866  W2        4021            0.0000000000
     12055      4019  TIP3      OH2           -28.0169796295      -34.0464571127        9.7420869866  W2        4023            0.0000000000
     12056      4019  TIP3      H1            -28.2125296295      -33.4407771127        9.0271469866  W2        4023            0.0000000000
     12057      4019  TIP3      H2            -27.8357196295      -34.8799371127        9.3077169866  W2        4023            0.0000000000
     12058      4020  TIP3      OH2           -36.8041596295      -33.8091871127       15.0662369866  W2        4024            0.0000000000
     12059      4020  TIP3      H1            -36.8422196295      -33.4090271127       15.9349469866  W2        4024            0.0000000000
     12060      4020  TIP3      H2            -37.2950496295      -34.6259471127       15.1565269866  W2        4024            0.0000000000
     12061      4021  TIP3      OH2           -33.4384196295      -36.4349571127        1.8648369866  W2        4025            0.0000000000
     12062      4021  TIP3      H1            -33.8693496295      -36.8799471127        2.5945769866  W2        4025            0.0000000000
     12063      4021  TIP3      H2            -34.1565496295      -36.0633271127        1.3525869866  W2        4025            0.0000000000
     12064      4022  TIP3      OH2           -40.1960796295      -36.6930071127        8.9167069866  W2        4026            0.0000000000
     12065      4022  TIP3      H1            -39.5653096295      -36.7217971127        9.6360969866  W2        4026            0.0000000000
     12066      4022  TIP3      H2            -39.7466496295      -37.1181371127        8.1862969866  W2        4026            0.0000000000
     12067      4023  TIP3      OH2           -38.9218696295      -35.9468071127        4.3407469866  W2        4027            0.0000000000
     12068      4023  TIP3      H1            -38.4476996295      -35.3558171127        3.7558369866  W2        4027            0.0000000000
     12069      4023  TIP3      H2            -39.6392296295      -35.4165171127        4.6877569866  W2        4027            0.0000000000
     12070      4024  TIP3      OH2           -28.7530596295      -32.4083271127       14.4133269866  W2        4028            0.0000000000
     12071      4024  TIP3      H1            -28.4295796295      -33.0393571127       13.7703769866  W2        4028            0.0000000000
     12072      4024  TIP3      H2            -29.1931296295      -32.9431071127       15.0740669866  W2        4028            0.0000000000
     12073      4025  TIP3      OH2           -31.9757696295      -36.4807771127        9.1974469866  W2        4029            0.0000000000
     12074      4025  TIP3      H1            -32.8866596295      -36.4240971127        9.4860469866  W2        4029            0.0000000000
     12075      4025  TIP3      H2            -31.4704796295      -36.5412271127       10.0081669866  W2        4029            0.0000000000
     12076      4026  TIP3      OH2           -37.1474296295      -34.8521471127        8.0242069866  W2        4030            0.0000000000
     12077      4026  TIP3      H1            -38.0366296295      -34.7525971127        7.6841669866  W2        4030            0.0000000000
     12078      4026  TIP3      H2            -36.8509396295      -35.6938471127        7.6779969866  W2        4030            0.0000000000
     12079      4027  TIP3      OH2           -33.4942496295      -34.8518871127        5.6806669866  W2        4031            0.0000000000
     12080      4027  TIP3      H1            -32.5626996295      -34.7228871127        5.8589769866  W2        4031            0.0000000000
     12081      4027  TIP3      H2            -33.7092196295      -34.1824571127        5.0311369866  W2        4031            0.0000000000
     12082      4028  TIP3      OH2           -27.5705796295      -37.2461471127       12.4616269866  W2        4032            0.0000000000
     12083      4028  TIP3      H1            -28.2474196295      -37.1148371127       13.1255969866  W2        4032            0.0000000000
     12084      4028  TIP3      H2            -28.0560896295      -37.4011971127       11.6513969866  W2        4032            0.0000000000
     12085      4029  TIP3      OH2           -34.8202296295      -33.6576671127        3.2472769866  W2        4033            0.0000000000
     12086      4029  TIP3      H1            -35.3627196295      -34.0372871127        2.5560369866  W2        4033            0.0000000000
     12087      4029  TIP3      H2            -33.9867396295      -33.4631971127        2.8186869866  W2        4033            0.0000000000
     12088      4030  TIP3      OH2           -30.6557996295      -33.6934771127       11.0844069866  W2        4036            0.0000000000
     12089      4030  TIP3      H1            -30.0914596295      -34.2398171127       10.5373669866  W2        4036            0.0000000000
     12090      4030  TIP3      H2            -30.8034596295      -34.2152871127       11.8731669866  W2        4036            0.0000000000
     12091      4031  TIP3      OH2           -35.6538296295      -37.5568671127        7.5028869866  W2        4037            0.0000000000
     12092      4031  TIP3      H1            -35.9708796295      -38.4593371127        7.4674269866  W2        4037            0.0000000000
     12093      4031  TIP3      H2            -34.8724196295      -37.5551271127        6.9500469866  W2        4037            0.0000000000
     12094      4032  TIP3      OH2           -32.0292096295      -35.3048671127       13.4984469866  W2        4038            0.0000000000
     12095      4032  TIP3      H1            -32.8646796295      -34.8509171127       13.6086869866  W2        4038            0.0000000000
     12096      4032  TIP3      H2            -31.5051496295      -35.0290171127       14.2504369866  W2        4038            0.0000000000
     12097      4033  TIP3      OH2           -31.4849496295      -29.0920971127        5.1830869866  W2        4039            0.0000000000
     12098      4033  TIP3      H1            -32.2298496295      -29.5995671127        4.8608769866  W2        4039            0.0000000000
     12099      4033  TIP3      H2            -31.6192296295      -29.0432971127        6.1295669866  W2        4039            0.0000000000
     12100      4034  TIP3      OH2           -24.3350596295      -29.9592771127       13.9698469866  W2        4040            0.0000000000
     12101      4034  TIP3      H1            -23.6931796295      -29.5026471127       13.4260669866  W2        4040            0.0000000000
     12102      4034  TIP3      H2            -25.1653696295      -29.8460371127       13.5072569866  W2        4040            0.0000000000
     12103      4035  TIP3      OH2           -27.5872696295      -36.2781071127        3.3823469866  W2        4041            0.0000000000
     12104      4035  TIP3      H1            -28.5258496295      -36.1665471127        3.2312269866  W2        4041            0.0000000000
     12105      4035  TIP3      H2            -27.2900596295      -35.4214171127        3.6889169866  W2        4041            0.0000000000
     12106      4036  TIP3      OH2           -29.9657396295      -28.9077671127       16.4199969866  W2        4042            0.0000000000
     12107      4036  TIP3      H1            -30.3111296295      -29.2895271127       17.2269569866  W2        4042            0.0000000000
     12108      4036  TIP3      H2            -30.1657296295      -27.9744071127       16.4912869866  W2        4042            0.0000000000
     12109      4037  TIP3      OH2           -26.8689196295      -34.4108371127        5.0430869866  W2        4043            0.0000000000
     12110      4037  TIP3      H1            -25.9770196295      -34.5483371127        5.3622069866  W2        4043            0.0000000000
     12111      4037  TIP3      H2            -26.8125596295      -33.6202271127        4.5064369866  W2        4043            0.0000000000
     12112      4038  TIP3      OH2           -36.3601196295      -29.7970971127       10.9528769866  W2        4044            0.0000000000
     12113      4038  TIP3      H1            -35.6153996295      -29.7995271127       10.3515269866  W2        4044            0.0000000000
     12114      4038  TIP3      H2            -36.2824596295      -30.6207171127       11.4343869866  W2        4044            0.0000000000
     12115      4039  TIP3      OH2           -29.3595396295      -27.6336671127        4.2085469866  W2        4045            0.0000000000
     12116      4039  TIP3      H1            -29.6546996295      -26.8068771127        4.5900269866  W2        4045            0.0000000000
     12117      4039  TIP3      H2            -30.0625396295      -28.2529771127        4.4046869866  W2        4045            0.0000000000
     12118      4040  TIP3      OH2           -39.3521496295      -31.3364071127       16.2677269866  W2        4046            0.0000000000
     12119      4040  TIP3      H1            -39.1292896295      -31.7544471127       17.0994769866  W2        4046            0.0000000000
     12120      4040  TIP3      H2            -39.9541396295      -31.9489071127       15.8450069866  W2        4046            0.0000000000
     12121      4041  TIP3      OH2           -27.7153796295      -26.4462171127       16.3704969866  W2        4048            0.0000000000
     12122      4041  TIP3      H1            -28.6159496295      -26.2629571127       16.1028869866  W2        4048            0.0000000000
     12123      4041  TIP3      H2            -27.6812696295      -26.1872871127       17.2913769866  W2        4048            0.0000000000
     12124      4042  TIP3      OH2           -21.9840496295      -34.2014271127        4.7377569866  W2        4049            0.0000000000
     12125      4042  TIP3      H1            -22.5384196295      -34.5976271127        4.0655069866  W2        4049            0.0000000000
     12126      4042  TIP3      H2            -21.8836896295      -33.2909071127        4.4600869866  W2        4049            0.0000000000
     12127      4043  TIP3      OH2           -23.6888796295      -25.4153871127        5.2029669866  W2        4051            0.0000000000
     12128      4043  TIP3      H1            -24.0617696295      -26.2410071127        5.5120269866  W2        4051            0.0000000000
     12129      4043  TIP3      H2            -23.4115296295      -25.5984471127        4.3053069866  W2        4051            0.0000000000
     12130      4044  TIP3      OH2           -26.5284896295      -30.6074371127       12.2241569866  W2        4052            0.0000000000
     12131      4044  TIP3      H1            -27.4567996295      -30.8392471127       12.1970869866  W2        4052            0.0000000000
     12132      4044  TIP3      H2            -26.0773796295      -31.3844571127       11.8940369866  W2        4052            0.0000000000
     12133      4045  TIP3      OH2           -33.9851796295      -26.2792771127        8.3570269866  W2        4053            0.0000000000
     12134      4045  TIP3      H1            -33.4579596295      -25.5058371127        8.1569069866  W2        4053            0.0000000000
     12135      4045  TIP3      H2            -34.8653296295      -26.0543571127        8.0554269866  W2        4053            0.0000000000
     12136      4046  TIP3      OH2           -38.2304096295      -31.4168671127        2.9442669866  W2        4054            0.0000000000
     12137      4046  TIP3      H1            -37.6144196295      -30.7901471127        3.3237469866  W2        4054            0.0000000000
     12138      4046  TIP3      H2            -39.0921496295      -31.1008871127        3.2159169866  W2        4054            0.0000000000
     12139      4047  TIP3      OH2           -32.5579496295      -28.6162871127        7.9334569866  W2        4055            0.0000000000
     12140      4047  TIP3      H1            -32.7989496295      -27.6908471127        7.9749869866  W2        4055            0.0000000000
     12141      4047  TIP3      H2            -33.2985896295      -29.0751571127        8.3298469866  W2        4055            0.0000000000
     12142      4048  TIP3      OH2           -32.0432896295      -24.4669271127       14.2485669866  W2        4056            0.0000000000
     12143      4048  TIP3      H1            -31.6808196295      -23.6123671127       14.0150069866  W2        4056            0.0000000000
     12144      4048  TIP3      H2            -31.5117696295      -24.7587671127       14.9891969866  W2        4056            0.0000000000
     12145      4049  TIP3      OH2           -33.8748696295      -23.5945271127        7.4786769866  W2        4057            0.0000000000
     12146      4049  TIP3      H1            -34.8248196295      -23.4887871127        7.5300069866  W2        4057            0.0000000000
     12147      4049  TIP3      H2            -33.5230596295      -22.7737871127        7.8234269866  W2        4057            0.0000000000
     12148      4050  TIP3      OH2           -28.4992096295      -28.3678571127       13.9491269866  W2        4058            0.0000000000
     12149      4050  TIP3      H1            -28.9250796295      -28.5956871127       14.7755269866  W2        4058            0.0000000000
     12150      4050  TIP3      H2            -27.9186296295      -29.1066771127       13.7666569866  W2        4058            0.0000000000
     12151      4051  TIP3      OH2           -26.2963196295      -27.4388071127        3.0230269866  W2        4059            0.0000000000
     12152      4051  TIP3      H1            -25.9430096295      -27.8188271127        3.8273769866  W2        4059            0.0000000000
     12153      4051  TIP3      H2            -27.2449696295      -27.5323271127        3.1099569866  W2        4059            0.0000000000
     12154      4052  TIP3      OH2           -25.8407896295      -23.8159071127       16.4186069866  W2        4060            0.0000000000
     12155      4052  TIP3      H1            -26.4424696295      -24.3716171127       15.9232369866  W2        4060            0.0000000000
     12156      4052  TIP3      H2            -25.5594196295      -23.1489271127       15.7923469866  W2        4060            0.0000000000
     12157      4053  TIP3      OH2           -21.7928796295      -22.9595571127        3.2240469866  W2        4061            0.0000000000
     12158      4053  TIP3      H1            -21.0490896295      -22.3735071127        3.0842069866  W2        4061            0.0000000000
     12159      4053  TIP3      H2            -22.4870696295      -22.3909771127        3.5572869866  W2        4061            0.0000000000
     12160      4054  TIP3      OH2           -37.7181996295      -36.5831371127       15.8258669866  W2        4062            0.0000000000
     12161      4054  TIP3      H1            -38.6109696295      -36.2445971127       15.7582669866  W2        4062            0.0000000000
     12162      4054  TIP3      H2            -37.8169196295      -37.4385271127       16.2439469866  W2        4062            0.0000000000
     12163      4055  TIP3      OH2           -25.4303896295      -28.7666071127        5.2498169866  W2        4063            0.0000000000
     12164      4055  TIP3      H1            -25.7076296295      -29.4946771127        5.8059269866  W2        4063            0.0000000000
     12165      4055  TIP3      H2            -24.5030896295      -28.6474071127        5.4550769866  W2        4063            0.0000000000
     12166      4056  TIP3      OH2           -38.0669996295      -24.7786971127       14.2608069866  W2        4064            0.0000000000
     12167      4056  TIP3      H1            -37.8499696295      -25.7104571127       14.2297769866  W2        4064            0.0000000000
     12168      4056  TIP3      H2            -37.8206496295      -24.5041971127       15.1440869866  W2        4064            0.0000000000
     12169      4057  TIP3      OH2           -32.2055396295      -26.3271971127        1.4700269866  W2        4065            0.0000000000
     12170      4057  TIP3      H1            -31.9665596295      -27.0753871127        0.9229169866  W2        4065            0.0000000000
     12171      4057  TIP3      H2            -32.4744096295      -26.7150271127        2.3028069866  W2        4065            0.0000000000
     12172      4058  TIP3      OH2           -33.2684796295      -26.7568171127        3.9262869866  W2        4066            0.0000000000
     12173      4058  TIP3      H1            -33.1216796295      -27.2768371127        4.7163769866  W2        4066            0.0000000000
     12174      4058  TIP3      H2            -33.2713096295      -25.8500571127        4.2328769866  W2        4066            0.0000000000
     12175      4059  TIP3      OH2           -36.8153696295      -29.5044871127        4.4368269866  W2        4067            0.0000000000
     12176      4059  TIP3      H1            -37.5014396295      -29.1522371127        5.0037969866  W2        4067            0.0000000000
     12177      4059  TIP3      H2            -36.2925796295      -28.7415271127        4.1902569866  W2        4067            0.0000000000
     12178      4060  TIP3      OH2           -28.9838596295      -36.8421071127       14.7157269866  W2        4068            0.0000000000
     12179      4060  TIP3      H1            -28.2850696295      -36.7682371127       15.3656969866  W2        4068            0.0000000000
     12180      4060  TIP3      H2            -29.3647196295      -37.7066071127       14.8700169866  W2        4068            0.0000000000
     12181      4061  TIP3      OH2           -28.1993696295      -37.1899371127        5.8129569866  W2        4069            0.0000000000
     12182      4061  TIP3      H1            -27.9795396295      -36.7183971127        5.0094969866  W2        4069            0.0000000000
     12183      4061  TIP3      H2            -27.6409696295      -36.7956771127        6.4830169866  W2        4069            0.0000000000
     12184      4062  TIP3      OH2           -30.5307596295      -25.0594571127        4.6757069866  W2        4070            0.0000000000
     12185      4062  TIP3      H1            -31.3471496295      -24.5624871127        4.7281369866  W2        4070            0.0000000000
     12186      4062  TIP3      H2            -30.0011296295      -24.5841071127        4.0355869866  W2        4070            0.0000000000
     12187      4063  TIP3      OH2           -30.9993796295      -35.4620571127        6.6477969866  W2        4071            0.0000000000
     12188      4063  TIP3      H1            -30.1871196295      -34.9577371127        6.6939669866  W2        4071            0.0000000000
     12189      4063  TIP3      H2            -31.2440796295      -35.6070871127        7.5617569866  W2        4071            0.0000000000
     12190      4064  TIP3      OH2           -30.4637396295      -34.4757871127       15.8324569866  W2        4072            0.0000000000
     12191      4064  TIP3      H1            -30.3447096295      -33.9022471127       16.5894969866  W2        4072            0.0000000000
     12192      4064  TIP3      H2            -29.8082796295      -35.1638471127       15.9472369866  W2        4072            0.0000000000
     12193      4065  TIP3      OH2           -30.1157096295      -38.3807571127        7.5859069866  W2        4073            0.0000000000
     12194      4065  TIP3      H1            -30.4623596295      -37.7636971127        8.2303369866  W2        4073            0.0000000000
     12195      4065  TIP3      H2            -29.4570196295      -37.8801871127        7.1044569866  W2        4073            0.0000000000
     12196      4066  TIP3      OH2           -33.1924496295      -24.0157371127        4.6573969866  W2        4074            0.0000000000
     12197      4066  TIP3      H1            -33.0315796295      -23.2159871127        4.1566569866  W2        4074            0.0000000000
     12198      4066  TIP3      H2            -33.3896696295      -23.7091371127        5.5424569866  W2        4074            0.0000000000
     12199      4067  TIP3      OH2           -34.4580096295      -37.3178171127        4.2731569866  W2        4075            0.0000000000
     12200      4067  TIP3      H1            -34.5415296295      -36.4295071127        4.6197969866  W2        4075            0.0000000000
     12201      4067  TIP3      H2            -33.5679796295      -37.5831471127        4.5048369866  W2        4075            0.0000000000
     12202      4068  TIP3      OH2           -24.2591596295      -36.5687571127       16.6674269866  W2        4076            0.0000000000
     12203      4068  TIP3      H1            -25.1755796295      -36.3065871127       16.5797969866  W2        4076            0.0000000000
     12204      4068  TIP3      H2            -23.9236596295      -36.5718571127       15.7709569866  W2        4076            0.0000000000
     12205      4069  TIP3      OH2           -25.6570596295      -32.8186571127       10.7631569866  W2        4077            0.0000000000
     12206      4069  TIP3      H1            -26.4546196295      -33.2336371127       10.4346569866  W2        4077            0.0000000000
     12207      4069  TIP3      H2            -25.2119496295      -33.5092871127       11.2542069866  W2        4077            0.0000000000
     12208      4070  TIP3      OH2           -36.1994796295      -26.8905971127        3.3336069866  W2        4078            0.0000000000
     12209      4070  TIP3      H1            -35.6073296295      -26.1911171127        3.6098469866  W2        4078            0.0000000000
     12210      4070  TIP3      H2            -35.7401796295      -27.3236471127        2.6140669866  W2        4078            0.0000000000
     12211      4071  TIP3      OH2           -37.8835596295      -34.2262971127        2.4495469866  W2        4079            0.0000000000
     12212      4071  TIP3      H1            -37.9282996295      -33.2869871127        2.6282469866  W2        4079            0.0000000000
     12213      4071  TIP3      H2            -38.7712396295      -34.4618071127        2.1797569866  W2        4079            0.0000000000
     12214      4072  TIP3      OH2           -24.5705996295      -23.5624071127       12.3855069866  W2        4080            0.0000000000
     12215      4072  TIP3      H1            -24.7261696295      -22.8839671127       11.7284369866  W2        4080            0.0000000000
     12216      4072  TIP3      H2            -23.6379596295      -23.4904771127       12.5885669866  W2        4080            0.0000000000
     12217      4073  TIP3      OH2           -37.0753596295      -39.4446371127       11.1226469866  W2        4081            0.0000000000
     12218      4073  TIP3      H1            -37.3043796295      -39.3853871127       10.1951469866  W2        4081            0.0000000000
     12219      4073  TIP3      H2            -37.5180196295      -40.2360871127       11.4290569866  W2        4081            0.0000000000
     12220      4074  TIP3      OH2           -38.1450296295      -25.5039271127        7.2832269866  W2        4082            0.0000000000
     12221      4074  TIP3      H1            -38.9771696295      -25.0316571127        7.3103669866  W2        4082            0.0000000000
     12222      4074  TIP3      H2            -37.5991996295      -24.9941671127        6.6845369866  W2        4082            0.0000000000
     12223      4075  TIP3      OH2           -30.1673596295      -24.4640571127        1.6086269866  W2        4085            0.0000000000
     12224      4075  TIP3      H1            -30.8112596295      -25.0951971127        1.9299969866  W2        4085            0.0000000000
     12225      4075  TIP3      H2            -29.4055296295      -24.9952571127        1.3769769866  W2        4085            0.0000000000
     12226      4076  TIP3      OH2           -25.5630696295      -24.6470671127        1.8424269866  W2        4087            0.0000000000
     12227      4076  TIP3      H1            -25.2800296295      -25.4415471127        2.2951169866  W2        4087            0.0000000000
     12228      4076  TIP3      H2            -24.8232796295      -24.4139671127        1.2815369866  W2        4087            0.0000000000
     12229      4077  TIP3      OH2           -34.6083396295      -28.7375771127        1.6999169866  W2        4089            0.0000000000
     12230      4077  TIP3      H1            -34.5439296295      -29.5316171127        2.2305569866  W2        4089            0.0000000000
     12231      4077  TIP3      H2            -33.9554196295      -28.8562971127        1.0101169866  W2        4089            0.0000000000
     12232      4078  TIP3      OH2           -29.2559996295      -27.6904071127        1.4357169866  W2        4091            0.0000000000
     12233      4078  TIP3      H1            -29.5245896295      -27.5101971127        2.3366069866  W2        4091            0.0000000000
     12234      4078  TIP3      H2            -29.4624396295      -28.6157871127        1.3042969866  W2        4091            0.0000000000
     12235      4079  TIP3      OH2           -26.5595796295      -29.1956071127       16.3833269866  W2        4092            0.0000000000
     12236      4079  TIP3      H1            -25.8140996295      -28.6072371127       16.2637269866  W2        4092            0.0000000000
     12237      4079  TIP3      H2            -27.3168996295      -28.6136371127       16.4466369866  W2        4092            0.0000000000
     12238      4080  TIP3      OH2           -33.4589596295      -30.7649571127        4.0057169866  W2        4094            0.0000000000
     12239      4080  TIP3      H1            -33.9187596295      -31.2491271127        4.6915669866  W2        4094            0.0000000000
     12240      4080  TIP3      H2            -33.2040896295      -31.4334171127        3.3697669866  W2        4094            0.0000000000
     12241      4081  TIP3      OH2           -34.1700296295      -32.8722471127       16.3616769866  W2        4095            0.0000000000
     12242      4081  TIP3      H1            -34.7884196295      -32.1975871127       16.6421469866  W2        4095            0.0000000000
     12243      4081  TIP3      H2            -33.8259096295      -32.5508571127       15.5282969866  W2        4095            0.0000000000
     12244      4082  TIP3      OH2           -32.3879196295      -32.5217771127        2.2680369866  W2        4096            0.0000000000
     12245      4082  TIP3      H1            -32.5684196295      -32.6766571127        1.3408669866  W2        4096            0.0000000000
     12246      4082  TIP3      H2            -31.4378696295      -32.4139071127        2.3128269866  W2        4096            0.0000000000
     12247      4083  TIP3      OH2           -22.9980896295      -30.1673571127        1.7138469866  W2        4098            0.0000000000
     12248      4083  TIP3      H1            -23.2716096295      -30.5918071127        0.9006769866  W2        4098            0.0000000000
     12249      4083  TIP3      H2            -22.9586796295      -29.2359071127        1.4968869866  W2        4098            0.0000000000
     12250      4084  TIP3      OH2           -33.8306596295      -35.5171671127       17.4439869866  W2        4099            0.0000000000
     12251      4084  TIP3      H1            -33.6805696295      -36.2460371127       16.8419569866  W2        4099            0.0000000000
     12252      4084  TIP3      H2            -33.8284196295      -34.7399971127       16.8852069866  W2        4099            0.0000000000
     12253      4085  TIP3      OH2           -33.4180896295      -37.1475871127       14.9367269866  W2        4100            0.0000000000
     12254      4085  TIP3      H1            -32.8823396295      -36.6959171127       14.2846569866  W2        4100            0.0000000000
     12255      4085  TIP3      H2            -34.2701296295      -37.2556071127       14.5141369866  W2        4100            0.0000000000
     12256      4086  TIP3      OH2           -31.8362496295      -31.7079671127       15.1762469866  W2        4101            0.0000000000
     12257      4086  TIP3      H1            -31.0857696295      -31.8642171127       14.6030269866  W2        4101            0.0000000000
     12258      4086  TIP3      H2            -32.1754196295      -30.8563071127       14.9007969866  W2        4101            0.0000000000
     12259      4087  TIP3      OH2           -32.6125396295      -39.6910171127       15.3680869866  W2        4105            0.0000000000
     12260      4087  TIP3      H1            -32.7105796295      -38.7446971127       15.2627069866  W2        4105            0.0000000000
     12261      4087  TIP3      H2            -33.3549196295      -40.0636371127       14.8924369866  W2        4105            0.0000000000
     12262      4088  TIP3      OH2           -32.4907496295      -21.8314071127        3.2693969866  W2        4112            0.0000000000
     12263      4088  TIP3      H1            -31.5576796295      -21.6735371127        3.4132369866  W2        4112            0.0000000000
     12264      4088  TIP3      H2            -32.7548696295      -21.1561071127        2.6445469866  W2        4112            0.0000000000
     12265      4089  TIP3      OH2           -38.9222596295      -27.1950271127        2.7522069866  W2        4113            0.0000000000
     12266      4089  TIP3      H1            -38.0083396295      -27.1161371127        3.0255969866  W2        4113            0.0000000000
     12267      4089  TIP3      H2            -38.9149496295      -27.8820671127        2.0857669866  W2        4113            0.0000000000
     12268      4090  TIP3      OH2           -40.2731996295      -21.8021771127        7.8295969866  W2        4114            0.0000000000
     12269      4090  TIP3      H1            -40.9204896295      -22.2640071127        7.2967169866  W2        4114            0.0000000000
     12270      4090  TIP3      H2            -39.9187396295      -22.4738471127        8.4122169866  W2        4114            0.0000000000
     12271      4091  TIP3      OH2           -39.4032796295      -23.7214771127        9.6342169866  W2        4115            0.0000000000
     12272      4091  TIP3      H1            -39.7375996295      -24.6017471127        9.8062369866  W2        4115            0.0000000000
     12273      4091  TIP3      H2            -39.1810396295      -23.3759771127       10.4987769866  W2        4115            0.0000000000
     12274      4092  TIP3      OH2           -21.8547996295      -22.9118371127       12.6146969866  W2        4116            0.0000000000
     12275      4092  TIP3      H1            -21.8761296295      -22.7269971127       13.5536369866  W2        4116            0.0000000000
     12276      4092  TIP3      H2            -21.1641796295      -22.3434371127       12.2738369866  W2        4116            0.0000000000
     12277      4093  TIP3      OH2           -22.2915096295      -23.3447271127       15.5366069866  W2        4117            0.0000000000
     12278      4093  TIP3      H1            -22.7786396295      -24.0803171127       15.1653469866  W2        4117            0.0000000000
     12279      4093  TIP3      H2            -21.7422396295      -23.7383371127       16.2145469866  W2        4117            0.0000000000
     12280      4094  TIP3      OH2           -22.5398096295      -29.2985471127        5.6888869866  W2        4119            0.0000000000
     12281      4094  TIP3      H1            -21.6896696295      -28.8774571127        5.8160469866  W2        4119            0.0000000000
     12282      4094  TIP3      H2            -22.5342996295      -30.0385371127        6.2960269866  W2        4119            0.0000000000
     12283      4095  TIP3      OH2           -22.1452496295      -31.2448071127        7.5124569866  W2        4120            0.0000000000
     12284      4095  TIP3      H1            -22.8717896295      -31.7245471127        7.9102169866  W2        4120            0.0000000000
     12285      4095  TIP3      H2            -21.5639196295      -31.0393371127        8.2446169866  W2        4120            0.0000000000
     12286      4096  TIP3      OH2           -22.3861296295      -28.4600571127       12.4602169866  W2        4121            0.0000000000
     12287      4096  TIP3      H1            -21.5527096295      -28.8380571127       12.1795769866  W2        4121            0.0000000000
     12288      4096  TIP3      H2            -22.2740996295      -27.5169371127       12.3411269866  W2        4121            0.0000000000
     12289      4097  TIP3      OH2           -23.8998996295      -25.5823071127       14.7670569866  W2        4122            0.0000000000
     12290      4097  TIP3      H1            -24.5473696295      -25.2571571127       15.3925769866  W2        4122            0.0000000000
     12291      4097  TIP3      H2            -24.4174996295      -26.0225371127       14.0928869866  W2        4122            0.0000000000
     12292      4098  TIP3      OH2           -21.8769396295      -31.3439571127        3.9035869866  W2        4123            0.0000000000
     12293      4098  TIP3      H1            -22.3988296295      -30.9875471127        3.1846769866  W2        4123            0.0000000000
     12294      4098  TIP3      H2            -21.9100196295      -30.6691771127        4.5816769866  W2        4123            0.0000000000
     12295      4099  TIP3      OH2           -23.5280396295      -34.1043971127        2.4542969866  W2        4124            0.0000000000
     12296      4099  TIP3      H1            -23.4315996295      -33.4376971127        1.7742669866  W2        4124            0.0000000000
     12297      4099  TIP3      H2            -23.6680796295      -34.9197671127        1.9728469866  W2        4124            0.0000000000
     12298      4100  TIP3      OH2           -24.3585696295      -32.7241571127        8.0753269866  W2        4125            0.0000000000
     12299      4100  TIP3      H1            -24.5086896295      -33.6692971127        8.0551069866  W2        4125            0.0000000000
     12300      4100  TIP3      H2            -24.7121196295      -32.4430171127        8.9192369866  W2        4125            0.0000000000
     12301      4101  TIP3      OH2           -39.3233296295      -30.6459371127       12.0857069866  W2        4126            0.0000000000
     12302      4101  TIP3      H1            -39.1390396295      -30.7277671127       11.1499969866  W2        4126            0.0000000000
     12303      4101  TIP3      H2            -38.4740396295      -30.7702371127       12.5093469866  W2        4126            0.0000000000
     12304      4102  TIP3      OH2           -24.2806596295      -36.6964171127        1.5718469866  W2        4129            0.0000000000
     12305      4102  TIP3      H1            -23.6700796295      -37.0677371127        2.2086669866  W2        4129            0.0000000000
     12306      4102  TIP3      H2            -25.1175096295      -37.1177271127        1.7678469866  W2        4129            0.0000000000
     12307      4103  TIP3      OH2           -24.6480896295      -35.1415771127        6.5378369866  W2        4130            0.0000000000
     12308      4103  TIP3      H1            -24.3683796295      -36.0485371127        6.6620069866  W2        4130            0.0000000000
     12309      4103  TIP3      H2            -23.8889196295      -34.7074271127        6.1487569866  W2        4130            0.0000000000
     12310      4104  TIP3      OH2           -24.0362596295      -34.5598371127       11.9737269866  W2        4131            0.0000000000
     12311      4104  TIP3      H1            -23.1034596295      -34.3478471127       11.9393269866  W2        4131            0.0000000000
     12312      4104  TIP3      H2            -24.2715096295      -34.4586271127       12.8960269866  W2        4131            0.0000000000
     12313      4105  TIP3      OH2           -24.0070696295      -33.8233071127       14.7496669866  W2        4132            0.0000000000
     12314      4105  TIP3      H1            -24.8499396295      -33.5552671127       15.1156469866  W2        4132            0.0000000000
     12315      4105  TIP3      H2            -23.5646396295      -33.0011171127       14.5387769866  W2        4132            0.0000000000
     12316      4106  TIP3      OH2           -24.0346096295      -37.8786471127        6.5860369866  W2        4135            0.0000000000
     12317      4106  TIP3      H1            -23.8521096295      -38.3274971127        7.4115369866  W2        4135            0.0000000000
     12318      4106  TIP3      H2            -24.6343196295      -38.4632071127        6.1224969866  W2        4135            0.0000000000
     12319      4107  TIP3      OH2           -38.5045996295      -37.0632771127       11.1178769866  W2        4136            0.0000000000
     12320      4107  TIP3      H1            -38.0594396295      -37.8550271127       11.4198469866  W2        4136            0.0000000000
     12321      4107  TIP3      H2            -38.0382996295      -36.3467571127       11.5484369866  W2        4136            0.0000000000
     12322      4108  TIP3      OH2           -40.2005696295      -34.0639771127       12.1868969866  W2        4137            0.0000000000
     12323      4108  TIP3      H1            -39.7085896295      -34.2849271127       11.3960969866  W2        4137            0.0000000000
     12324      4108  TIP3      H2            -39.8384796295      -33.2236371127       12.4678469866  W2        4137            0.0000000000
     12325      4109  TIP3      OH2           -22.1679896295      -37.8108371127        3.1140669866  W2        4139            0.0000000000
     12326      4109  TIP3      H1            -21.7557296295      -38.5322671127        2.6388669866  W2        4139            0.0000000000
     12327      4109  TIP3      H2            -21.4863396295      -37.1413771127        3.1724969866  W2        4139            0.0000000000
     12328      4110  TIP3      OH2           -39.8869196295      -37.8060671127        6.2411369866  W2        4140            0.0000000000
     12329      4110  TIP3      H1            -40.8120796295      -37.5974071127        6.1116869866  W2        4140            0.0000000000
     12330      4110  TIP3      H2            -39.4329296295      -37.3219871127        5.5513669866  W2        4140            0.0000000000
     12331      4111  TIP3      OH2           -25.1161996295      -22.8218971127        8.1868769866  W2        4141            0.0000000000
     12332      4111  TIP3      H1            -24.4639096295      -23.1696871127        7.5787869866  W2        4141            0.0000000000
     12333      4111  TIP3      H2            -24.6058196295      -22.3335771127        8.8328469866  W2        4141            0.0000000000
     12334      4112  TIP3      OH2           -39.9233796295      -39.0681671127       14.5853869866  W2        4142            0.0000000000
     12335      4112  TIP3      H1            -40.5883296295      -39.3141371127       15.2284769866  W2        4142            0.0000000000
     12336      4112  TIP3      H2            -40.3662496295      -38.4461271127       14.0081869866  W2        4142            0.0000000000
     12337      4113  TIP3      OH2           -34.7771596295      -24.9186371127       14.9883669866  W2        4144            0.0000000000
     12338      4113  TIP3      H1            -35.2020496295      -24.1087871127       14.7058269866  W2        4144            0.0000000000
     12339      4113  TIP3      H2            -33.8728796295      -24.8332271127       14.6863469866  W2        4144            0.0000000000
     12340      4114  TIP3      OH2           -28.1209796295      -22.2337471127       17.1918769866  W2        4146            0.0000000000
     12341      4114  TIP3      H1            -27.4440896295      -22.8665171127       16.9517969866  W2        4146            0.0000000000
     12342      4114  TIP3      H2            -27.7990996295      -21.8326971127       17.9992069866  W2        4146            0.0000000000
     12343      4115  TIP3      OH2           -23.2035996295      -39.6441971127       16.2713769866  W2        4147            0.0000000000
     12344      4115  TIP3      H1            -24.0162496295      -39.3191671127       15.8838469866  W2        4147            0.0000000000
     12345      4115  TIP3      H2            -22.9707496295      -40.4043471127       15.7382869866  W2        4147            0.0000000000
     12346      4116  TIP3      OH2           -37.3754896295      -21.6622471127       15.0358969866  W2        4148            0.0000000000
     12347      4116  TIP3      H1            -38.0958496295      -21.2221471127       14.5846669866  W2        4148            0.0000000000
     12348      4116  TIP3      H2            -37.7410896295      -21.9127771127       15.8842969866  W2        4148            0.0000000000
     12349      4117  TIP3      OH2           -34.9082296295      -22.0618571127       14.0656169866  W2        4149            0.0000000000
     12350      4117  TIP3      H1            -35.7730096295      -21.9900071127       14.4696269866  W2        4149            0.0000000000
     12351      4117  TIP3      H2            -34.9633296295      -21.5151271127       13.2818669866  W2        4149            0.0000000000
     12352      4118  TIP3      OH2           -30.1976696295      -22.1739671127       13.2412169866  W2        4150            0.0000000000
     12353      4118  TIP3      H1            -30.6542696295      -21.6449971127       12.5870569866  W2        4150            0.0000000000
     12354      4118  TIP3      H2            -30.0348696295      -21.5708271127       13.9664469866  W2        4150            0.0000000000
     12355      4119  TIP3      OH2           -27.8700396295      -23.2960071127       14.1862469866  W2        4151            0.0000000000
     12356      4119  TIP3      H1            -28.7746696295      -23.1309871127       13.9204569866  W2        4151            0.0000000000
     12357      4119  TIP3      H2            -27.4411796295      -22.4427871127       14.1205869866  W2        4151            0.0000000000
     12358      4120  TIP3      OH2           -25.2658496295      -21.7260971127       14.4810269866  W2        4152            0.0000000000
     12359      4120  TIP3      H1            -25.4476496295      -20.8102071127       14.2705169866  W2        4152            0.0000000000
     12360      4120  TIP3      H2            -25.0890696295      -22.1363871127       13.6344869866  W2        4152            0.0000000000
     12361      4121  TIP3      OH2           -37.9606796295      -23.0389971127       11.9460769866  W2        4153            0.0000000000
     12362      4121  TIP3      H1            -37.9790796295      -23.4644871127       12.8033069866  W2        4153            0.0000000000
     12363      4121  TIP3      H2            -37.1558896295      -23.3574971127       11.5372969866  W2        4153            0.0000000000
     12364      4122  TIP3      OH2           -35.8193696295      -24.3291271127       10.6010669866  W2        4154            0.0000000000
     12365      4122  TIP3      H1            -36.0382996295      -25.2453871127       10.7706669866  W2        4154            0.0000000000
     12366      4122  TIP3      H2            -34.9951496295      -24.1890871127       11.0672069866  W2        4154            0.0000000000
     12367      4123  TIP3      OH2           -33.2821196295      -23.8591971127       11.4498669866  W2        4155            0.0000000000
     12368      4123  TIP3      H1            -33.0695496295      -24.7472971127       11.1629569866  W2        4155            0.0000000000
     12369      4123  TIP3      H2            -33.2176096295      -23.8934271127       12.4042669866  W2        4155            0.0000000000
     12370      4124  TIP3      OH2           -29.7737496295      -38.1951371127       10.5941969866  W2        4156            0.0000000000
     12371      4124  TIP3      H1            -30.4480696295      -38.8245771127       10.8497769866  W2        4156            0.0000000000
     12372      4124  TIP3      H2            -29.2098296295      -38.6792471127        9.9909869866  W2        4156            0.0000000000
     12373      4125  TIP3      OH2           -24.6310296295      -40.0877371127       10.7069069866  W2        4157            0.0000000000
     12374      4125  TIP3      H1            -24.0272696295      -39.5401971127       10.2050069866  W2        4157            0.0000000000
     12375      4125  TIP3      H2            -25.5008296295      -39.7686971127       10.4663169866  W2        4157            0.0000000000
     12376      4126  TIP3      OH2           -22.9039896295      -38.9488671127        9.0399969866  W2        4158            0.0000000000
     12377      4126  TIP3      H1            -22.2922396295      -39.4632971127        8.5133569866  W2        4158            0.0000000000
     12378      4126  TIP3      H2            -22.5216496295      -38.0716571127        9.0634369866  W2        4158            0.0000000000
     12379      4127  TIP3      OH2           -37.4469996295      -39.5611071127        8.4161869866  W2        4159            0.0000000000
     12380      4127  TIP3      H1            -38.2240196295      -39.7956171127        7.9087769866  W2        4159            0.0000000000
     12381      4127  TIP3      H2            -36.9166396295      -40.3578971127        8.4249869866  W2        4159            0.0000000000
     12382      4128  TIP3      OH2           -38.6106596295      -39.7632971127        4.2197969866  W2        4160            0.0000000000
     12383      4128  TIP3      H1            -38.1715896295      -39.1522471127        3.6281469866  W2        4160            0.0000000000
     12384      4128  TIP3      H2            -39.2444196295      -39.2248871127        4.6937969866  W2        4160            0.0000000000
     12385      4129  TIP3      OH2           -32.8677396295      -39.6343971127        8.2294969866  W2        4161            0.0000000000
     12386      4129  TIP3      H1            -31.9933996295      -39.2459671127        8.1999269866  W2        4161            0.0000000000
     12387      4129  TIP3      H2            -33.0036596295      -39.8496171127        9.1522169866  W2        4161            0.0000000000
     12388      4130  TIP3      OH2           -27.3108996295      -39.6044171127        9.8786669866  W2        4162            0.0000000000
     12389      4130  TIP3      H1            -27.2347396295      -39.5092571127        8.9292669866  W2        4162            0.0000000000
     12390      4130  TIP3      H2            -27.5859796295      -40.5121271127       10.0075769866  W2        4162            0.0000000000
     12391      4131  TIP3      OH2           -25.9576396295      -39.5786371127        5.5711669866  W2        4163            0.0000000000
     12392      4131  TIP3      H1            -26.6605296295      -38.9637171127        5.3613069866  W2        4163            0.0000000000
     12393      4131  TIP3      H2            -26.4024996295      -40.4159671127        5.7022569866  W2        4163            0.0000000000
     12394      4132  TIP3      OH2           -38.7097096295      -23.8150771127        5.1173069866  W2        4164            0.0000000000
     12395      4132  TIP3      H1            -39.3947196295      -23.8531871127        4.4498169866  W2        4164            0.0000000000
     12396      4132  TIP3      H2            -38.7059896295      -22.9023171127        5.4055169866  W2        4164            0.0000000000
     12397      4133  TIP3      OH2           -36.7497496295      -37.8471471127        2.6622069866  W2        4165            0.0000000000
     12398      4133  TIP3      H1            -36.2584096295      -38.4769071127        2.1347569866  W2        4165            0.0000000000
     12399      4133  TIP3      H2            -36.1261196295      -37.5512071127        3.3253269866  W2        4165            0.0000000000
     12400      4134  TIP3      OH2           -31.7237396295      -37.5539971127        5.1192569866  W2        4166            0.0000000000
     12401      4134  TIP3      H1            -31.5456096295      -38.2006771127        5.8021169866  W2        4166            0.0000000000
     12402      4134  TIP3      H2            -31.7771196295      -36.7202271127        5.5863669866  W2        4166            0.0000000000
     12403      4135  TIP3      OH2           -29.8453596295      -22.6055871127        3.5149269866  W2        4167            0.0000000000
     12404      4135  TIP3      H1            -28.9793396295      -22.2388471127        3.3367469866  W2        4167            0.0000000000
     12405      4135  TIP3      H2            -30.0920796295      -23.0447871127        2.7010069866  W2        4167            0.0000000000
     12406      4136  TIP3      OH2           -23.1363996295      -23.0425571127        6.1940369866  W2        4168            0.0000000000
     12407      4136  TIP3      H1            -23.3306896295      -23.7903471127        5.6289969866  W2        4168            0.0000000000
     12408      4136  TIP3      H2            -23.1753896295      -22.2845471127        5.6108269866  W2        4168            0.0000000000
     12409      4137  TIP3      OH2           -36.8915896295      -22.8949971127        2.1425169866  W2        4171            0.0000000000
     12410      4137  TIP3      H1            -37.1591296295      -22.6087071127        3.0158269866  W2        4171            0.0000000000
     12411      4137  TIP3      H2            -36.1203296295      -23.4410771127        2.2947669866  W2        4171            0.0000000000
     12412      4138  TIP3      OH2            -9.5127396295      -30.4048771127        8.3749369866  W2        4174            0.0000000000
     12413      4138  TIP3      H1             -9.4236296295      -29.4610571127        8.2426469866  W2        4174            0.0000000000
     12414      4138  TIP3      H2            -10.1509796295      -30.6802371127        7.7168769866  W2        4174            0.0000000000
     12415      4139  TIP3      OH2           -10.5796096295      -31.1498071127       11.7937569866  W2        4175            0.0000000000
     12416      4139  TIP3      H1            -10.6178596295      -31.7961771127       12.4987169866  W2        4175            0.0000000000
     12417      4139  TIP3      H2            -10.9019596295      -31.6163671127       11.0226269866  W2        4175            0.0000000000
     12418      4140  TIP3      OH2           -18.2111096295      -31.5355971127       13.3867469866  W2        4176            0.0000000000
     12419      4140  TIP3      H1            -18.1698996295      -32.1612671127       14.1099869866  W2        4176            0.0000000000
     12420      4140  TIP3      H2            -17.5083396295      -30.9117371127       13.5687869866  W2        4176            0.0000000000
     12421      4141  TIP3      OH2            -6.8735896295      -28.2107671127       10.0952669866  W2        4177            0.0000000000
     12422      4141  TIP3      H1             -7.3143196295      -28.9311671127       10.5458269866  W2        4177            0.0000000000
     12423      4141  TIP3      H2             -6.8866196295      -27.4900471127       10.7250369866  W2        4177            0.0000000000
     12424      4142  TIP3      OH2           -17.2877996295      -27.0857071127       11.9216569866  W2        4178            0.0000000000
     12425      4142  TIP3      H1            -17.6572796295      -27.8876571127       11.5520869866  W2        4178            0.0000000000
     12426      4142  TIP3      H2            -16.3466896295      -27.2542171127       11.9679969866  W2        4178            0.0000000000
     12427      4143  TIP3      OH2           -20.6777496295      -33.4254471127        7.3145369866  W2        4179            0.0000000000
     12428      4143  TIP3      H1            -21.1254096295      -32.5795771127        7.2961869866  W2        4179            0.0000000000
     12429      4143  TIP3      H2            -21.2386296295      -34.0050271127        6.7990469866  W2        4179            0.0000000000
     12430      4144  TIP3      OH2           -19.9671396295      -31.2634871127        9.4403369866  W2        4180            0.0000000000
     12431      4144  TIP3      H1            -19.7537896295      -32.0333271127        9.9676369866  W2        4180            0.0000000000
     12432      4144  TIP3      H2            -19.2293796295      -31.1738171127        8.8370969866  W2        4180            0.0000000000
     12433      4145  TIP3      OH2            -9.7620396295      -23.1065971127       10.3073069866  W2        4181            0.0000000000
     12434      4145  TIP3      H1             -9.1423996295      -23.7831271127       10.0342269866  W2        4181            0.0000000000
     12435      4145  TIP3      H2             -9.9702996295      -23.3245171127       11.2157969866  W2        4181            0.0000000000
     12436      4146  TIP3      OH2           -12.1901696295      -28.7176671127       12.1998569866  W2        4182            0.0000000000
     12437      4146  TIP3      H1            -11.8863796295      -29.4035271127       11.6052669866  W2        4182            0.0000000000
     12438      4146  TIP3      H2            -11.4687696295      -28.5987971127       12.8176569866  W2        4182            0.0000000000
     12439      4147  TIP3      OH2            -3.5271896295      -37.1161371127       13.0604769866  W2        4183            0.0000000000
     12440      4147  TIP3      H1             -3.4779696295      -36.5060171127       13.7963869866  W2        4183            0.0000000000
     12441      4147  TIP3      H2             -3.1016796295      -36.6550471127       12.3375869866  W2        4183            0.0000000000
     12442      4148  TIP3      OH2            -9.0494696295      -34.3234271127       12.5273369866  W2        4184            0.0000000000
     12443      4148  TIP3      H1             -8.9068796295      -35.2697271127       12.5474969866  W2        4184            0.0000000000
     12444      4148  TIP3      H2             -9.1555696295      -34.1164471127       11.5988269866  W2        4184            0.0000000000
     12445      4149  TIP3      OH2           -15.8946396295      -36.2217871127        9.7998169866  W2        4185            0.0000000000
     12446      4149  TIP3      H1            -15.8515296295      -35.3619371127        9.3814469866  W2        4185            0.0000000000
     12447      4149  TIP3      H2            -16.3522296295      -36.7743171127        9.1661369866  W2        4185            0.0000000000
     12448      4150  TIP3      OH2            -8.1723696295      -36.0912271127        8.2006469866  W2        4186            0.0000000000
     12449      4150  TIP3      H1             -7.5259396295      -36.4199071127        8.8254069866  W2        4186            0.0000000000
     12450      4150  TIP3      H2             -7.6624296295      -35.5733271127        7.5777869866  W2        4186            0.0000000000
     12451      4151  TIP3      OH2           -19.2744896295      -33.8252071127       10.5619569866  W2        4187            0.0000000000
     12452      4151  TIP3      H1            -18.6208296295      -34.3750371127       10.9939669866  W2        4187            0.0000000000
     12453      4151  TIP3      H2            -19.2505596295      -34.0993071127        9.6451569866  W2        4187            0.0000000000
     12454      4152  TIP3      OH2           -14.1180396295      -32.2750771127        9.7771069866  W2        4188            0.0000000000
     12455      4152  TIP3      H1            -13.5019396295      -32.8015371127       10.2865069866  W2        4188            0.0000000000
     12456      4152  TIP3      H2            -14.7041596295      -32.9152071127        9.3734669866  W2        4188            0.0000000000
     12457      4153  TIP3      OH2            -3.1357296295      -35.6382171127       15.2964569866  W2        4189            0.0000000000
     12458      4153  TIP3      H1             -3.8242696295      -34.9801471127       15.2011169866  W2        4189            0.0000000000
     12459      4153  TIP3      H2             -3.1202696295      -35.8354271127       16.2329969866  W2        4189            0.0000000000
     12460      4154  TIP3      OH2           -17.0844496295      -37.3039471127       13.8738969866  W2        4190            0.0000000000
     12461      4154  TIP3      H1            -17.3032796295      -36.7738871127       13.1074969866  W2        4190            0.0000000000
     12462      4154  TIP3      H2            -17.7523596295      -37.0773971127       14.5210369866  W2        4190            0.0000000000
     12463      4155  TIP3      OH2            -9.7154696295      -27.8038371127        7.4178069866  W2        4191            0.0000000000
     12464      4155  TIP3      H1            -10.0109596295      -28.1266071127        6.5664969866  W2        4191            0.0000000000
     12465      4155  TIP3      H2            -10.0396896295      -26.9041671127        7.4590669866  W2        4191            0.0000000000
     12466      4156  TIP3      OH2           -14.5153096295      -29.6283771127       14.1612669866  W2        4192            0.0000000000
     12467      4156  TIP3      H1            -15.2553996295      -29.0302271127       14.2647869866  W2        4192            0.0000000000
     12468      4156  TIP3      H2            -13.8013596295      -29.0744171127       13.8456269866  W2        4192            0.0000000000
     12469      4157  TIP3      OH2            -6.4085296295      -36.8002971127       10.1812369866  W2        4193            0.0000000000
     12470      4157  TIP3      H1             -6.6237296295      -37.5659571127       10.7138369866  W2        4193            0.0000000000
     12471      4157  TIP3      H2             -5.7527896295      -36.3278371127       10.6940869866  W2        4193            0.0000000000
     12472      4158  TIP3      OH2           -17.4907196295      -35.4117671127       11.8261169866  W2        4194            0.0000000000
     12473      4158  TIP3      H1            -16.8770896295      -34.7790071127       12.1993569866  W2        4194            0.0000000000
     12474      4158  TIP3      H2            -16.9786496295      -35.8842671127       11.1698069866  W2        4194            0.0000000000
     12475      4159  TIP3      OH2           -16.1078796295      -27.6640771127       14.9484169866  W2        4195            0.0000000000
     12476      4159  TIP3      H1            -16.1131196295      -26.7847271127       14.5703469866  W2        4195            0.0000000000
     12477      4159  TIP3      H2            -16.9614696295      -27.7476671127       15.3734069866  W2        4195            0.0000000000
     12478      4160  TIP3      OH2           -19.9867896295      -27.9932871127        5.7303469866  W2        4196            0.0000000000
     12479      4160  TIP3      H1            -20.2586996295      -27.7641871127        4.8416369866  W2        4196            0.0000000000
     12480      4160  TIP3      H2            -19.9412196295      -27.1554071127        6.1908769866  W2        4196            0.0000000000
     12481      4161  TIP3      OH2            -6.3618196295      -26.3716971127       12.4431969866  W2        4197            0.0000000000
     12482      4161  TIP3      H1             -7.3034496295      -26.3133071127       12.6048869866  W2        4197            0.0000000000
     12483      4161  TIP3      H2             -6.0852096295      -25.4656471127       12.3061669866  W2        4197            0.0000000000
     12484      4162  TIP3      OH2            -6.0611196295      -38.0851671127       13.8605869866  W2        4198            0.0000000000
     12485      4162  TIP3      H1             -6.7971996295      -37.4744571127       13.8227169866  W2        4198            0.0000000000
     12486      4162  TIP3      H2             -5.3777196295      -37.6702671127       13.3342269866  W2        4198            0.0000000000
     12487      4163  TIP3      OH2           -13.0579796295      -39.9984371127       11.3263869866  W2        4199            0.0000000000
     12488      4163  TIP3      H1            -13.1755596295      -40.9468371127       11.2722169866  W2        4199            0.0000000000
     12489      4163  TIP3      H2            -13.9129696295      -39.6658271127       11.5994969866  W2        4199            0.0000000000
     12490      4164  TIP3      OH2            -8.1096996295      -24.5903471127        9.0683569866  W2        4200            0.0000000000
     12491      4164  TIP3      H1             -7.6844696295      -25.2975571127        8.5833169866  W2        4200            0.0000000000
     12492      4164  TIP3      H2             -7.7926996295      -23.7890771127        8.6515769866  W2        4200            0.0000000000
     12493      4165  TIP3      OH2            -6.9500496295      -26.6894971127        7.5770169866  W2        4201            0.0000000000
     12494      4165  TIP3      H1             -7.2075696295      -27.3794871127        6.9656069866  W2        4201            0.0000000000
     12495      4165  TIP3      H2             -6.8789696295      -27.1323771127        8.4226069866  W2        4201            0.0000000000
     12496      4166  TIP3      OH2            -5.2640296295      -28.1228271127       16.0543669866  W2        4202            0.0000000000
     12497      4166  TIP3      H1             -5.1243996295      -28.7145771127       15.3150669866  W2        4202            0.0000000000
     12498      4166  TIP3      H2             -5.0967496295      -27.2502371127       15.6982469866  W2        4202            0.0000000000
     12499      4167  TIP3      OH2           -10.7914896295      -31.1608771127        5.8269669866  W2        4203            0.0000000000
     12500      4167  TIP3      H1            -11.5029396295      -30.6259071127        5.4750169866  W2        4203            0.0000000000
     12501      4167  TIP3      H2            -10.1005296295      -31.1056671127        5.1668569866  W2        4203            0.0000000000
     12502      4168  TIP3      OH2           -10.7375696295      -32.7034471127        2.8654669866  W2        4204            0.0000000000
     12503      4168  TIP3      H1            -10.0365796295      -32.6807571127        3.5168669866  W2        4204            0.0000000000
     12504      4168  TIP3      H2            -10.4352796295      -33.3314771127        2.2093969866  W2        4204            0.0000000000
     12505      4169  TIP3      OH2            -3.4220996295      -31.7830271127       14.1204069866  W2        4205            0.0000000000
     12506      4169  TIP3      H1             -4.0746896295      -31.0884671127       14.2094969866  W2        4205            0.0000000000
     12507      4169  TIP3      H2             -2.9570696295      -31.5729371127       13.3105669866  W2        4205            0.0000000000
     12508      4170  TIP3      OH2            -7.3857196295      -30.9515471127        6.7785569866  W2        4206            0.0000000000
     12509      4170  TIP3      H1             -8.1176196295      -30.7231771127        7.3516169866  W2        4206            0.0000000000
     12510      4170  TIP3      H2             -6.9384996295      -31.6652771127        7.2333069866  W2        4206            0.0000000000
     12511      4171  TIP3      OH2            -7.4883696295      -32.7772871127       15.8462569866  W2        4207            0.0000000000
     12512      4171  TIP3      H1             -7.4084596295      -32.0138471127       16.4181069866  W2        4207            0.0000000000
     12513      4171  TIP3      H2             -8.0895996295      -32.4980471127       15.1557669866  W2        4207            0.0000000000
     12514      4172  TIP3      OH2           -15.7403496295      -30.3209271127        8.6610569866  W2        4208            0.0000000000
     12515      4172  TIP3      H1            -16.0708296295      -30.6915871127        7.8427569866  W2        4208            0.0000000000
     12516      4172  TIP3      H2            -15.1519396295      -30.9915271127        9.0078869866  W2        4208            0.0000000000
     12517      4173  TIP3      OH2           -14.3735996295      -26.8928671127       11.3422769866  W2        4209            0.0000000000
     12518      4173  TIP3      H1            -14.4684696295      -27.4715571127       10.5857369866  W2        4209            0.0000000000
     12519      4173  TIP3      H2            -13.6442396295      -27.2642971127       11.8385569866  W2        4209            0.0000000000
     12520      4174  TIP3      OH2           -15.3737996295      -31.5523671127       12.2945569866  W2        4210            0.0000000000
     12521      4174  TIP3      H1            -14.8085496295      -31.4309471127       11.5316769866  W2        4210            0.0000000000
     12522      4174  TIP3      H2            -15.0549096295      -30.9148671127       12.9334069866  W2        4210            0.0000000000
     12523      4175  TIP3      OH2            -9.0645796295      -26.0491771127       13.0286069866  W2        4211            0.0000000000
     12524      4175  TIP3      H1             -9.3049196295      -25.3868671127       13.6765269866  W2        4211            0.0000000000
     12525      4175  TIP3      H2             -9.2627596295      -26.8836571127       13.4535669866  W2        4211            0.0000000000
     12526      4176  TIP3      OH2           -14.4937296295      -27.1530971127       17.0117469866  W2        4212            0.0000000000
     12527      4176  TIP3      H1            -14.8049796295      -26.3707771127       17.4670669866  W2        4212            0.0000000000
     12528      4176  TIP3      H2            -15.1437096295      -27.3061871127       16.3259469866  W2        4212            0.0000000000
     12529      4177  TIP3      OH2            -8.5147696295      -31.7892571127        4.4636769866  W2        4213            0.0000000000
     12530      4177  TIP3      H1             -7.9352196295      -31.6392271127        5.2105669866  W2        4213            0.0000000000
     12531      4177  TIP3      H2             -8.1007696295      -31.3185171127        3.7403169866  W2        4213            0.0000000000
     12532      4178  TIP3      OH2           -17.5737396295      -30.9549871127       16.2403169866  W2        4214            0.0000000000
     12533      4178  TIP3      H1            -17.5034196295      -30.3043071127       16.9388169866  W2        4214            0.0000000000
     12534      4178  TIP3      H2            -18.4645196295      -30.8522371127       15.9054069866  W2        4214            0.0000000000
     12535      4179  TIP3      OH2           -10.7882796295      -25.0524071127        7.8989869866  W2        4215            0.0000000000
     12536      4179  TIP3      H1            -10.3145196295      -24.7567771127        8.6764069866  W2        4215            0.0000000000
     12537      4179  TIP3      H2            -11.3513496295      -24.3142471127        7.6659469866  W2        4215            0.0000000000
     12538      4180  TIP3      OH2            -4.8159296295      -40.0392171127        4.2766469866  W2        4217            0.0000000000
     12539      4180  TIP3      H1             -5.7158596295      -39.9003171127        4.5717069866  W2        4217            0.0000000000
     12540      4180  TIP3      H2             -4.5640896295      -39.2077571127        3.8748169866  W2        4217            0.0000000000
     12541      4181  TIP3      OH2           -16.7500796295      -31.2514971127        6.2503369866  W2        4218            0.0000000000
     12542      4181  TIP3      H1            -17.0419496295      -30.4833271127        5.7594669866  W2        4218            0.0000000000
     12543      4181  TIP3      H2            -17.4245596295      -31.9108771127        6.0874769866  W2        4218            0.0000000000
     12544      4182  TIP3      OH2            -3.6267896295      -25.6729771127        2.6530369866  W2        4219            0.0000000000
     12545      4182  TIP3      H1             -3.5534396295      -24.7339571127        2.8235669866  W2        4219            0.0000000000
     12546      4182  TIP3      H2             -2.7212796295      -25.9781171127        2.5967669866  W2        4219            0.0000000000
     12547      4183  TIP3      OH2           -20.6570696295      -28.8885771127       15.0653169866  W2        4220            0.0000000000
     12548      4183  TIP3      H1            -21.1582296295      -28.9166371127       14.2502869866  W2        4220            0.0000000000
     12549      4183  TIP3      H2            -20.6516996295      -29.7942571127       15.3750469866  W2        4220            0.0000000000
     12550      4184  TIP3      OH2           -20.9067996295      -26.1081971127       11.9493369866  W2        4221            0.0000000000
     12551      4184  TIP3      H1            -19.9607396295      -26.2524971127       11.9302869866  W2        4221            0.0000000000
     12552      4184  TIP3      H2            -21.0191696295      -25.3239171127       12.4864569866  W2        4221            0.0000000000
     12553      4185  TIP3      OH2           -11.7305496295      -25.8683071127       16.5078469866  W2        4223            0.0000000000
     12554      4185  TIP3      H1            -11.6430896295      -25.0418471127       16.9827569866  W2        4223            0.0000000000
     12555      4185  TIP3      H2            -12.5940396295      -26.1979271127       16.7567769866  W2        4223            0.0000000000
     12556      4186  TIP3      OH2           -11.3159696295      -22.0959371127        6.3139069866  W2        4224            0.0000000000
     12557      4186  TIP3      H1            -11.3913696295      -22.2172171127        5.3674269866  W2        4224            0.0000000000
     12558      4186  TIP3      H2            -11.2830996295      -21.1466671127        6.4323669866  W2        4224            0.0000000000
     12559      4187  TIP3      OH2           -17.6625896295      -23.3072371127        8.0948069866  W2        4225            0.0000000000
     12560      4187  TIP3      H1            -17.5105496295      -23.6551971127        8.9734569866  W2        4225            0.0000000000
     12561      4187  TIP3      H2            -18.5135496295      -23.6635071127        7.8395269866  W2        4225            0.0000000000
     12562      4188  TIP3      OH2            -8.2143696295      -22.9419171127        3.3161469866  W2        4226            0.0000000000
     12563      4188  TIP3      H1             -7.8395296295      -23.6863071127        2.8454069866  W2        4226            0.0000000000
     12564      4188  TIP3      H2             -8.2099996295      -23.2118571127        4.2344769866  W2        4226            0.0000000000
     12565      4189  TIP3      OH2            -8.5455596295      -23.0162071127        6.0653669866  W2        4227            0.0000000000
     12566      4189  TIP3      H1             -9.4805796295      -22.9160171127        6.2440669866  W2        4227            0.0000000000
     12567      4189  TIP3      H2             -8.2653696295      -23.7256071127        6.6436869866  W2        4227            0.0000000000
     12568      4190  TIP3      OH2           -18.4080196295      -27.5650371127       16.1085969866  W2        4229            0.0000000000
     12569      4190  TIP3      H1            -18.1918896295      -27.9264771127       16.9681769866  W2        4229            0.0000000000
     12570      4190  TIP3      H2            -19.2635496295      -27.9396571127       15.8989469866  W2        4229            0.0000000000
     12571      4191  TIP3      OH2           -15.7892196295      -39.0949871127       12.1040169866  W2        4230            0.0000000000
     12572      4191  TIP3      H1            -16.6508496295      -39.1821671127       11.6963069866  W2        4230            0.0000000000
     12573      4191  TIP3      H2            -15.8116496295      -38.2389771127       12.5317769866  W2        4230            0.0000000000
     12574      4192  TIP3      OH2           -11.1264396295      -39.3729471127       15.4787169866  W2        4231            0.0000000000
     12575      4192  TIP3      H1            -10.7061296295      -39.7882371127       16.2317769866  W2        4231            0.0000000000
     12576      4192  TIP3      H2            -12.0594796295      -39.5516171127       15.5959169866  W2        4231            0.0000000000
     12577      4193  TIP3      OH2            -7.7999496295      -35.6174271127       16.3321669866  W2        4232            0.0000000000
     12578      4193  TIP3      H1             -8.3139996295      -35.7432071127       17.1297669866  W2        4232            0.0000000000
     12579      4193  TIP3      H2             -7.9554796295      -34.7051171127       16.0877869866  W2        4232            0.0000000000
     12580      4194  TIP3      OH2            -7.0374596295      -30.7564271127        2.0934669866  W2        4233            0.0000000000
     12581      4194  TIP3      H1             -6.9953796295      -30.9790371127        1.1634669866  W2        4233            0.0000000000
     12582      4194  TIP3      H2             -6.1882496295      -30.3577171127        2.2834569866  W2        4233            0.0000000000
     12583      4195  TIP3      OH2           -11.4647096295      -36.8806071127        2.7637969866  W2        4234            0.0000000000
     12584      4195  TIP3      H1            -11.7182296295      -36.8614471127        3.6866069866  W2        4234            0.0000000000
     12585      4195  TIP3      H2            -11.7214996295      -37.7520671127        2.4624169866  W2        4234            0.0000000000
     12586      4196  TIP3      OH2           -15.6982096295      -34.1295371127       13.1990369866  W2        4235            0.0000000000
     12587      4196  TIP3      H1            -16.3399996295      -34.1698071127       13.9080469866  W2        4235            0.0000000000
     12588      4196  TIP3      H2            -15.6610096295      -33.2030671127       12.9613369866  W2        4235            0.0000000000
     12589      4197  TIP3      OH2           -15.7012996295      -33.9085271127        8.1110369866  W2        4236            0.0000000000
     12590      4197  TIP3      H1            -16.5940096295      -34.2489171127        8.0524169866  W2        4236            0.0000000000
     12591      4197  TIP3      H2            -15.2506396295      -34.2854371127        7.3553569866  W2        4236            0.0000000000
     12592      4198  TIP3      OH2           -10.1657496295      -33.4924971127        6.9281169866  W2        4237            0.0000000000
     12593      4198  TIP3      H1            -10.5747196295      -32.6776371127        6.6365969866  W2        4237            0.0000000000
     12594      4198  TIP3      H2             -9.4451296295      -33.6324871127        6.3138269866  W2        4237            0.0000000000
     12595      4199  TIP3      OH2            -9.1609796295      -34.0464571127        9.7420869866  W2        4239            0.0000000000
     12596      4199  TIP3      H1             -9.3565296295      -33.4407771127        9.0271469866  W2        4239            0.0000000000
     12597      4199  TIP3      H2             -8.9797196295      -34.8799371127        9.3077169866  W2        4239            0.0000000000
     12598      4200  TIP3      OH2           -17.9481596295      -33.8091871127       15.0662369866  W2        4240            0.0000000000
     12599      4200  TIP3      H1            -17.9862196295      -33.4090271127       15.9349469866  W2        4240            0.0000000000
     12600      4200  TIP3      H2            -18.4390496295      -34.6259471127       15.1565269866  W2        4240            0.0000000000
     12601      4201  TIP3      OH2           -14.5824196295      -36.4349571127        1.8648369866  W2        4241            0.0000000000
     12602      4201  TIP3      H1            -15.0133496295      -36.8799471127        2.5945769866  W2        4241            0.0000000000
     12603      4201  TIP3      H2            -15.3005496295      -36.0633271127        1.3525869866  W2        4241            0.0000000000
     12604      4202  TIP3      OH2           -21.3400796295      -36.6930071127        8.9167069866  W2        4242            0.0000000000
     12605      4202  TIP3      H1            -20.7093096295      -36.7217971127        9.6360969866  W2        4242            0.0000000000
     12606      4202  TIP3      H2            -20.8906496295      -37.1181371127        8.1862969866  W2        4242            0.0000000000
     12607      4203  TIP3      OH2           -20.0658696295      -35.9468071127        4.3407469866  W2        4243            0.0000000000
     12608      4203  TIP3      H1            -19.5916996295      -35.3558171127        3.7558369866  W2        4243            0.0000000000
     12609      4203  TIP3      H2            -20.7832296295      -35.4165171127        4.6877569866  W2        4243            0.0000000000
     12610      4204  TIP3      OH2            -9.8970596295      -32.4083271127       14.4133269866  W2        4244            0.0000000000
     12611      4204  TIP3      H1             -9.5735796295      -33.0393571127       13.7703769866  W2        4244            0.0000000000
     12612      4204  TIP3      H2            -10.3371296295      -32.9431071127       15.0740669866  W2        4244            0.0000000000
     12613      4205  TIP3      OH2           -13.1197696295      -36.4807771127        9.1974469866  W2        4245            0.0000000000
     12614      4205  TIP3      H1            -14.0306596295      -36.4240971127        9.4860469866  W2        4245            0.0000000000
     12615      4205  TIP3      H2            -12.6144796295      -36.5412271127       10.0081669866  W2        4245            0.0000000000
     12616      4206  TIP3      OH2           -18.2914296295      -34.8521471127        8.0242069866  W2        4246            0.0000000000
     12617      4206  TIP3      H1            -19.1806296295      -34.7525971127        7.6841669866  W2        4246            0.0000000000
     12618      4206  TIP3      H2            -17.9949396295      -35.6938471127        7.6779969866  W2        4246            0.0000000000
     12619      4207  TIP3      OH2           -14.6382496295      -34.8518871127        5.6806669866  W2        4247            0.0000000000
     12620      4207  TIP3      H1            -13.7066996295      -34.7228871127        5.8589769866  W2        4247            0.0000000000
     12621      4207  TIP3      H2            -14.8532196295      -34.1824571127        5.0311369866  W2        4247            0.0000000000
     12622      4208  TIP3      OH2            -8.7145796295      -37.2461471127       12.4616269866  W2        4248            0.0000000000
     12623      4208  TIP3      H1             -9.3914196295      -37.1148371127       13.1255969866  W2        4248            0.0000000000
     12624      4208  TIP3      H2             -9.2000896295      -37.4011971127       11.6513969866  W2        4248            0.0000000000
     12625      4209  TIP3      OH2           -15.9642296295      -33.6576671127        3.2472769866  W2        4249            0.0000000000
     12626      4209  TIP3      H1            -16.5067196295      -34.0372871127        2.5560369866  W2        4249            0.0000000000
     12627      4209  TIP3      H2            -15.1307396295      -33.4631971127        2.8186869866  W2        4249            0.0000000000
     12628      4210  TIP3      OH2           -11.7997996295      -33.6934771127       11.0844069866  W2        4252            0.0000000000
     12629      4210  TIP3      H1            -11.2354596295      -34.2398171127       10.5373669866  W2        4252            0.0000000000
     12630      4210  TIP3      H2            -11.9474596295      -34.2152871127       11.8731669866  W2        4252            0.0000000000
     12631      4211  TIP3      OH2           -16.7978296295      -37.5568671127        7.5028869866  W2        4253            0.0000000000
     12632      4211  TIP3      H1            -17.1148796295      -38.4593371127        7.4674269866  W2        4253            0.0000000000
     12633      4211  TIP3      H2            -16.0164196295      -37.5551271127        6.9500469866  W2        4253            0.0000000000
     12634      4212  TIP3      OH2           -13.1732096295      -35.3048671127       13.4984469866  W2        4254            0.0000000000
     12635      4212  TIP3      H1            -14.0086796295      -34.8509171127       13.6086869866  W2        4254            0.0000000000
     12636      4212  TIP3      H2            -12.6491496295      -35.0290171127       14.2504369866  W2        4254            0.0000000000
     12637      4213  TIP3      OH2           -12.6289496295      -29.0920971127        5.1830869866  W2        4255            0.0000000000
     12638      4213  TIP3      H1            -13.3738496295      -29.5995671127        4.8608769866  W2        4255            0.0000000000
     12639      4213  TIP3      H2            -12.7632296295      -29.0432971127        6.1295669866  W2        4255            0.0000000000
     12640      4214  TIP3      OH2            -5.4790596295      -29.9592771127       13.9698469866  W2        4256            0.0000000000
     12641      4214  TIP3      H1             -4.8371796295      -29.5026471127       13.4260669866  W2        4256            0.0000000000
     12642      4214  TIP3      H2             -6.3093696295      -29.8460371127       13.5072569866  W2        4256            0.0000000000
     12643      4215  TIP3      OH2            -8.7312696295      -36.2781071127        3.3823469866  W2        4257            0.0000000000
     12644      4215  TIP3      H1             -9.6698496295      -36.1665471127        3.2312269866  W2        4257            0.0000000000
     12645      4215  TIP3      H2             -8.4340596295      -35.4214171127        3.6889169866  W2        4257            0.0000000000
     12646      4216  TIP3      OH2           -11.1097396295      -28.9077671127       16.4199969866  W2        4258            0.0000000000
     12647      4216  TIP3      H1            -11.4551296295      -29.2895271127       17.2269569866  W2        4258            0.0000000000
     12648      4216  TIP3      H2            -11.3097296295      -27.9744071127       16.4912869866  W2        4258            0.0000000000
     12649      4217  TIP3      OH2            -8.0129196295      -34.4108371127        5.0430869866  W2        4259            0.0000000000
     12650      4217  TIP3      H1             -7.1210196295      -34.5483371127        5.3622069866  W2        4259            0.0000000000
     12651      4217  TIP3      H2             -7.9565596295      -33.6202271127        4.5064369866  W2        4259            0.0000000000
     12652      4218  TIP3      OH2           -17.5041196295      -29.7970971127       10.9528769866  W2        4260            0.0000000000
     12653      4218  TIP3      H1            -16.7593996295      -29.7995271127       10.3515269866  W2        4260            0.0000000000
     12654      4218  TIP3      H2            -17.4264596295      -30.6207171127       11.4343869866  W2        4260            0.0000000000
     12655      4219  TIP3      OH2           -10.5035396295      -27.6336671127        4.2085469866  W2        4261            0.0000000000
     12656      4219  TIP3      H1            -10.7986996295      -26.8068771127        4.5900269866  W2        4261            0.0000000000
     12657      4219  TIP3      H2            -11.2065396295      -28.2529771127        4.4046869866  W2        4261            0.0000000000
     12658      4220  TIP3      OH2           -20.4961496295      -31.3364071127       16.2677269866  W2        4262            0.0000000000
     12659      4220  TIP3      H1            -20.2732896295      -31.7544471127       17.0994769866  W2        4262            0.0000000000
     12660      4220  TIP3      H2            -21.0981396295      -31.9489071127       15.8450069866  W2        4262            0.0000000000
     12661      4221  TIP3      OH2            -8.8593796295      -26.4462171127       16.3704969866  W2        4264            0.0000000000
     12662      4221  TIP3      H1             -9.7599496295      -26.2629571127       16.1028869866  W2        4264            0.0000000000
     12663      4221  TIP3      H2             -8.8252696295      -26.1872871127       17.2913769866  W2        4264            0.0000000000
     12664      4222  TIP3      OH2            -3.1280496295      -34.2014271127        4.7377569866  W2        4265            0.0000000000
     12665      4222  TIP3      H1             -3.6824196295      -34.5976271127        4.0655069866  W2        4265            0.0000000000
     12666      4222  TIP3      H2             -3.0276896295      -33.2909071127        4.4600869866  W2        4265            0.0000000000
     12667      4223  TIP3      OH2            -4.8328796295      -25.4153871127        5.2029669866  W2        4267            0.0000000000
     12668      4223  TIP3      H1             -5.2057696295      -26.2410071127        5.5120269866  W2        4267            0.0000000000
     12669      4223  TIP3      H2             -4.5555296295      -25.5984471127        4.3053069866  W2        4267            0.0000000000
     12670      4224  TIP3      OH2            -7.6724896295      -30.6074371127       12.2241569866  W2        4268            0.0000000000
     12671      4224  TIP3      H1             -8.6007996295      -30.8392471127       12.1970869866  W2        4268            0.0000000000
     12672      4224  TIP3      H2             -7.2213796295      -31.3844571127       11.8940369866  W2        4268            0.0000000000
     12673      4225  TIP3      OH2           -15.1291796295      -26.2792771127        8.3570269866  W2        4269            0.0000000000
     12674      4225  TIP3      H1            -14.6019596295      -25.5058371127        8.1569069866  W2        4269            0.0000000000
     12675      4225  TIP3      H2            -16.0093296295      -26.0543571127        8.0554269866  W2        4269            0.0000000000
     12676      4226  TIP3      OH2           -19.3744096295      -31.4168671127        2.9442669866  W2        4270            0.0000000000
     12677      4226  TIP3      H1            -18.7584196295      -30.7901471127        3.3237469866  W2        4270            0.0000000000
     12678      4226  TIP3      H2            -20.2361496295      -31.1008871127        3.2159169866  W2        4270            0.0000000000
     12679      4227  TIP3      OH2           -13.7019496295      -28.6162871127        7.9334569866  W2        4271            0.0000000000
     12680      4227  TIP3      H1            -13.9429496295      -27.6908471127        7.9749869866  W2        4271            0.0000000000
     12681      4227  TIP3      H2            -14.4425896295      -29.0751571127        8.3298469866  W2        4271            0.0000000000
     12682      4228  TIP3      OH2           -13.1872896295      -24.4669271127       14.2485669866  W2        4272            0.0000000000
     12683      4228  TIP3      H1            -12.8248196295      -23.6123671127       14.0150069866  W2        4272            0.0000000000
     12684      4228  TIP3      H2            -12.6557696295      -24.7587671127       14.9891969866  W2        4272            0.0000000000
     12685      4229  TIP3      OH2           -15.0188696295      -23.5945271127        7.4786769866  W2        4273            0.0000000000
     12686      4229  TIP3      H1            -15.9688196295      -23.4887871127        7.5300069866  W2        4273            0.0000000000
     12687      4229  TIP3      H2            -14.6670596295      -22.7737871127        7.8234269866  W2        4273            0.0000000000
     12688      4230  TIP3      OH2            -9.6432096295      -28.3678571127       13.9491269866  W2        4274            0.0000000000
     12689      4230  TIP3      H1            -10.0690796295      -28.5956871127       14.7755269866  W2        4274            0.0000000000
     12690      4230  TIP3      H2             -9.0626296295      -29.1066771127       13.7666569866  W2        4274            0.0000000000
     12691      4231  TIP3      OH2            -7.4403196295      -27.4388071127        3.0230269866  W2        4275            0.0000000000
     12692      4231  TIP3      H1             -7.0870096295      -27.8188271127        3.8273769866  W2        4275            0.0000000000
     12693      4231  TIP3      H2             -8.3889696295      -27.5323271127        3.1099569866  W2        4275            0.0000000000
     12694      4232  TIP3      OH2            -6.9847896295      -23.8159071127       16.4186069866  W2        4276            0.0000000000
     12695      4232  TIP3      H1             -7.5864696295      -24.3716171127       15.9232369866  W2        4276            0.0000000000
     12696      4232  TIP3      H2             -6.7034196295      -23.1489271127       15.7923469866  W2        4276            0.0000000000
     12697      4233  TIP3      OH2            -2.9368796295      -22.9595571127        3.2240469866  W2        4277            0.0000000000
     12698      4233  TIP3      H1             -2.1930896295      -22.3735071127        3.0842069866  W2        4277            0.0000000000
     12699      4233  TIP3      H2             -3.6310696295      -22.3909771127        3.5572869866  W2        4277            0.0000000000
     12700      4234  TIP3      OH2           -18.8621996295      -36.5831371127       15.8258669866  W2        4278            0.0000000000
     12701      4234  TIP3      H1            -19.7549696295      -36.2445971127       15.7582669866  W2        4278            0.0000000000
     12702      4234  TIP3      H2            -18.9609196295      -37.4385271127       16.2439469866  W2        4278            0.0000000000
     12703      4235  TIP3      OH2            -6.5743896295      -28.7666071127        5.2498169866  W2        4279            0.0000000000
     12704      4235  TIP3      H1             -6.8516296295      -29.4946771127        5.8059269866  W2        4279            0.0000000000
     12705      4235  TIP3      H2             -5.6470896295      -28.6474071127        5.4550769866  W2        4279            0.0000000000
     12706      4236  TIP3      OH2           -19.2109996295      -24.7786971127       14.2608069866  W2        4280            0.0000000000
     12707      4236  TIP3      H1            -18.9939696295      -25.7104571127       14.2297769866  W2        4280            0.0000000000
     12708      4236  TIP3      H2            -18.9646496295      -24.5041971127       15.1440869866  W2        4280            0.0000000000
     12709      4237  TIP3      OH2           -13.3495396295      -26.3271971127        1.4700269866  W2        4281            0.0000000000
     12710      4237  TIP3      H1            -13.1105596295      -27.0753871127        0.9229169866  W2        4281            0.0000000000
     12711      4237  TIP3      H2            -13.6184096295      -26.7150271127        2.3028069866  W2        4281            0.0000000000
     12712      4238  TIP3      OH2           -14.4124796295      -26.7568171127        3.9262869866  W2        4282            0.0000000000
     12713      4238  TIP3      H1            -14.2656796295      -27.2768371127        4.7163769866  W2        4282            0.0000000000
     12714      4238  TIP3      H2            -14.4153096295      -25.8500571127        4.2328769866  W2        4282            0.0000000000
     12715      4239  TIP3      OH2           -17.9593696295      -29.5044871127        4.4368269866  W2        4283            0.0000000000
     12716      4239  TIP3      H1            -18.6454396295      -29.1522371127        5.0037969866  W2        4283            0.0000000000
     12717      4239  TIP3      H2            -17.4365796295      -28.7415271127        4.1902569866  W2        4283            0.0000000000
     12718      4240  TIP3      OH2           -10.1278596295      -36.8421071127       14.7157269866  W2        4284            0.0000000000
     12719      4240  TIP3      H1             -9.4290696295      -36.7682371127       15.3656969866  W2        4284            0.0000000000
     12720      4240  TIP3      H2            -10.5087196295      -37.7066071127       14.8700169866  W2        4284            0.0000000000
     12721      4241  TIP3      OH2            -9.3433696295      -37.1899371127        5.8129569866  W2        4285            0.0000000000
     12722      4241  TIP3      H1             -9.1235396295      -36.7183971127        5.0094969866  W2        4285            0.0000000000
     12723      4241  TIP3      H2             -8.7849696295      -36.7956771127        6.4830169866  W2        4285            0.0000000000
     12724      4242  TIP3      OH2           -11.6747596295      -25.0594571127        4.6757069866  W2        4286            0.0000000000
     12725      4242  TIP3      H1            -12.4911496295      -24.5624871127        4.7281369866  W2        4286            0.0000000000
     12726      4242  TIP3      H2            -11.1451296295      -24.5841071127        4.0355869866  W2        4286            0.0000000000
     12727      4243  TIP3      OH2           -12.1433796295      -35.4620571127        6.6477969866  W2        4287            0.0000000000
     12728      4243  TIP3      H1            -11.3311196295      -34.9577371127        6.6939669866  W2        4287            0.0000000000
     12729      4243  TIP3      H2            -12.3880796295      -35.6070871127        7.5617569866  W2        4287            0.0000000000
     12730      4244  TIP3      OH2           -11.6077396295      -34.4757871127       15.8324569866  W2        4288            0.0000000000
     12731      4244  TIP3      H1            -11.4887096295      -33.9022471127       16.5894969866  W2        4288            0.0000000000
     12732      4244  TIP3      H2            -10.9522796295      -35.1638471127       15.9472369866  W2        4288            0.0000000000
     12733      4245  TIP3      OH2           -11.2597096295      -38.3807571127        7.5859069866  W2        4289            0.0000000000
     12734      4245  TIP3      H1            -11.6063596295      -37.7636971127        8.2303369866  W2        4289            0.0000000000
     12735      4245  TIP3      H2            -10.6010196295      -37.8801871127        7.1044569866  W2        4289            0.0000000000
     12736      4246  TIP3      OH2           -14.3364496295      -24.0157371127        4.6573969866  W2        4290            0.0000000000
     12737      4246  TIP3      H1            -14.1755796295      -23.2159871127        4.1566569866  W2        4290            0.0000000000
     12738      4246  TIP3      H2            -14.5336696295      -23.7091371127        5.5424569866  W2        4290            0.0000000000
     12739      4247  TIP3      OH2           -15.6020096295      -37.3178171127        4.2731569866  W2        4291            0.0000000000
     12740      4247  TIP3      H1            -15.6855296295      -36.4295071127        4.6197969866  W2        4291            0.0000000000
     12741      4247  TIP3      H2            -14.7119796295      -37.5831471127        4.5048369866  W2        4291            0.0000000000
     12742      4248  TIP3      OH2            -5.4031596295      -36.5687571127       16.6674269866  W2        4292            0.0000000000
     12743      4248  TIP3      H1             -6.3195796295      -36.3065871127       16.5797969866  W2        4292            0.0000000000
     12744      4248  TIP3      H2             -5.0676596295      -36.5718571127       15.7709569866  W2        4292            0.0000000000
     12745      4249  TIP3      OH2            -6.8010596295      -32.8186571127       10.7631569866  W2        4293            0.0000000000
     12746      4249  TIP3      H1             -7.5986196295      -33.2336371127       10.4346569866  W2        4293            0.0000000000
     12747      4249  TIP3      H2             -6.3559496295      -33.5092871127       11.2542069866  W2        4293            0.0000000000
     12748      4250  TIP3      OH2           -17.3434796295      -26.8905971127        3.3336069866  W2        4294            0.0000000000
     12749      4250  TIP3      H1            -16.7513296295      -26.1911171127        3.6098469866  W2        4294            0.0000000000
     12750      4250  TIP3      H2            -16.8841796295      -27.3236471127        2.6140669866  W2        4294            0.0000000000
     12751      4251  TIP3      OH2           -19.0275596295      -34.2262971127        2.4495469866  W2        4295            0.0000000000
     12752      4251  TIP3      H1            -19.0722996295      -33.2869871127        2.6282469866  W2        4295            0.0000000000
     12753      4251  TIP3      H2            -19.9152396295      -34.4618071127        2.1797569866  W2        4295            0.0000000000
     12754      4252  TIP3      OH2            -5.7145996295      -23.5624071127       12.3855069866  W2        4296            0.0000000000
     12755      4252  TIP3      H1             -5.8701696295      -22.8839671127       11.7284369866  W2        4296            0.0000000000
     12756      4252  TIP3      H2             -4.7819596295      -23.4904771127       12.5885669866  W2        4296            0.0000000000
     12757      4253  TIP3      OH2           -18.2193596295      -39.4446371127       11.1226469866  W2        4297            0.0000000000
     12758      4253  TIP3      H1            -18.4483796295      -39.3853871127       10.1951469866  W2        4297            0.0000000000
     12759      4253  TIP3      H2            -18.6620196295      -40.2360871127       11.4290569866  W2        4297            0.0000000000
     12760      4254  TIP3      OH2           -19.2890296295      -25.5039271127        7.2832269866  W2        4298            0.0000000000
     12761      4254  TIP3      H1            -20.1211696295      -25.0316571127        7.3103669866  W2        4298            0.0000000000
     12762      4254  TIP3      H2            -18.7431996295      -24.9941671127        6.6845369866  W2        4298            0.0000000000
     12763      4255  TIP3      OH2           -11.3113596295      -24.4640571127        1.6086269866  W2        4301            0.0000000000
     12764      4255  TIP3      H1            -11.9552596295      -25.0951971127        1.9299969866  W2        4301            0.0000000000
     12765      4255  TIP3      H2            -10.5495296295      -24.9952571127        1.3769769866  W2        4301            0.0000000000
     12766      4256  TIP3      OH2            -6.7070696295      -24.6470671127        1.8424269866  W2        4303            0.0000000000
     12767      4256  TIP3      H1             -6.4240296295      -25.4415471127        2.2951169866  W2        4303            0.0000000000
     12768      4256  TIP3      H2             -5.9672796295      -24.4139671127        1.2815369866  W2        4303            0.0000000000
     12769      4257  TIP3      OH2           -15.7523396295      -28.7375771127        1.6999169866  W2        4305            0.0000000000
     12770      4257  TIP3      H1            -15.6879296295      -29.5316171127        2.2305569866  W2        4305            0.0000000000
     12771      4257  TIP3      H2            -15.0994196295      -28.8562971127        1.0101169866  W2        4305            0.0000000000
     12772      4258  TIP3      OH2           -10.3999996295      -27.6904071127        1.4357169866  W2        4307            0.0000000000
     12773      4258  TIP3      H1            -10.6685896295      -27.5101971127        2.3366069866  W2        4307            0.0000000000
     12774      4258  TIP3      H2            -10.6064396295      -28.6157871127        1.3042969866  W2        4307            0.0000000000
     12775      4259  TIP3      OH2            -7.7035796295      -29.1956071127       16.3833269866  W2        4308            0.0000000000
     12776      4259  TIP3      H1             -6.9580996295      -28.6072371127       16.2637269866  W2        4308            0.0000000000
     12777      4259  TIP3      H2             -8.4608996295      -28.6136371127       16.4466369866  W2        4308            0.0000000000
     12778      4260  TIP3      OH2           -14.6029596295      -30.7649571127        4.0057169866  W2        4310            0.0000000000
     12779      4260  TIP3      H1            -15.0627596295      -31.2491271127        4.6915669866  W2        4310            0.0000000000
     12780      4260  TIP3      H2            -14.3480896295      -31.4334171127        3.3697669866  W2        4310            0.0000000000
     12781      4261  TIP3      OH2           -15.3140296295      -32.8722471127       16.3616769866  W2        4311            0.0000000000
     12782      4261  TIP3      H1            -15.9324196295      -32.1975871127       16.6421469866  W2        4311            0.0000000000
     12783      4261  TIP3      H2            -14.9699096295      -32.5508571127       15.5282969866  W2        4311            0.0000000000
     12784      4262  TIP3      OH2           -13.5319196295      -32.5217771127        2.2680369866  W2        4312            0.0000000000
     12785      4262  TIP3      H1            -13.7124196295      -32.6766571127        1.3408669866  W2        4312            0.0000000000
     12786      4262  TIP3      H2            -12.5818696295      -32.4139071127        2.3128269866  W2        4312            0.0000000000
     12787      4263  TIP3      OH2            -4.1420896295      -30.1673571127        1.7138469866  W2        4314            0.0000000000
     12788      4263  TIP3      H1             -4.4156096295      -30.5918071127        0.9006769866  W2        4314            0.0000000000
     12789      4263  TIP3      H2             -4.1026796295      -29.2359071127        1.4968869866  W2        4314            0.0000000000
     12790      4264  TIP3      OH2           -14.9746596295      -35.5171671127       17.4439869866  W2        4315            0.0000000000
     12791      4264  TIP3      H1            -14.8245696295      -36.2460371127       16.8419569866  W2        4315            0.0000000000
     12792      4264  TIP3      H2            -14.9724196295      -34.7399971127       16.8852069866  W2        4315            0.0000000000
     12793      4265  TIP3      OH2           -14.5620896295      -37.1475871127       14.9367269866  W2        4316            0.0000000000
     12794      4265  TIP3      H1            -14.0263396295      -36.6959171127       14.2846569866  W2        4316            0.0000000000
     12795      4265  TIP3      H2            -15.4141296295      -37.2556071127       14.5141369866  W2        4316            0.0000000000
     12796      4266  TIP3      OH2           -12.9802496295      -31.7079671127       15.1762469866  W2        4317            0.0000000000
     12797      4266  TIP3      H1            -12.2297696295      -31.8642171127       14.6030269866  W2        4317            0.0000000000
     12798      4266  TIP3      H2            -13.3194196295      -30.8563071127       14.9007969866  W2        4317            0.0000000000
     12799      4267  TIP3      OH2           -13.7565396295      -39.6910171127       15.3680869866  W2        4321            0.0000000000
     12800      4267  TIP3      H1            -13.8545796295      -38.7446971127       15.2627069866  W2        4321            0.0000000000
     12801      4267  TIP3      H2            -14.4989196295      -40.0636371127       14.8924369866  W2        4321            0.0000000000
     12802      4268  TIP3      OH2           -13.6347496295      -21.8314071127        3.2693969866  W2        4328            0.0000000000
     12803      4268  TIP3      H1            -12.7016796295      -21.6735371127        3.4132369866  W2        4328            0.0000000000
     12804      4268  TIP3      H2            -13.8988696295      -21.1561071127        2.6445469866  W2        4328            0.0000000000
     12805      4269  TIP3      OH2           -20.0662596295      -27.1950271127        2.7522069866  W2        4329            0.0000000000
     12806      4269  TIP3      H1            -19.1523396295      -27.1161371127        3.0255969866  W2        4329            0.0000000000
     12807      4269  TIP3      H2            -20.0589496295      -27.8820671127        2.0857669866  W2        4329            0.0000000000
     12808      4270  TIP3      OH2           -21.4171996295      -21.8021771127        7.8295969866  W2        4330            0.0000000000
     12809      4270  TIP3      H1            -22.0644896295      -22.2640071127        7.2967169866  W2        4330            0.0000000000
     12810      4270  TIP3      H2            -21.0627396295      -22.4738471127        8.4122169866  W2        4330            0.0000000000
     12811      4271  TIP3      OH2           -20.5472796295      -23.7214771127        9.6342169866  W2        4331            0.0000000000
     12812      4271  TIP3      H1            -20.8815996295      -24.6017471127        9.8062369866  W2        4331            0.0000000000
     12813      4271  TIP3      H2            -20.3250396295      -23.3759771127       10.4987769866  W2        4331            0.0000000000
     12814      4272  TIP3      OH2            -2.9987996295      -22.9118371127       12.6146969866  W2        4332            0.0000000000
     12815      4272  TIP3      H1             -3.0201296295      -22.7269971127       13.5536369866  W2        4332            0.0000000000
     12816      4272  TIP3      H2             -2.3081796295      -22.3434371127       12.2738369866  W2        4332            0.0000000000
     12817      4273  TIP3      OH2            -3.4355096295      -23.3447271127       15.5366069866  W2        4333            0.0000000000
     12818      4273  TIP3      H1             -3.9226396295      -24.0803171127       15.1653469866  W2        4333            0.0000000000
     12819      4273  TIP3      H2             -2.8862396295      -23.7383371127       16.2145469866  W2        4333            0.0000000000
     12820      4274  TIP3      OH2            -3.6838096295      -29.2985471127        5.6888869866  W2        4335            0.0000000000
     12821      4274  TIP3      H1             -2.8336696295      -28.8774571127        5.8160469866  W2        4335            0.0000000000
     12822      4274  TIP3      H2             -3.6782996295      -30.0385371127        6.2960269866  W2        4335            0.0000000000
     12823      4275  TIP3      OH2            -3.2892496295      -31.2448071127        7.5124569866  W2        4336            0.0000000000
     12824      4275  TIP3      H1             -4.0157896295      -31.7245471127        7.9102169866  W2        4336            0.0000000000
     12825      4275  TIP3      H2             -2.7079196295      -31.0393371127        8.2446169866  W2        4336            0.0000000000
     12826      4276  TIP3      OH2            -3.5301296295      -28.4600571127       12.4602169866  W2        4337            0.0000000000
     12827      4276  TIP3      H1             -2.6967096295      -28.8380571127       12.1795769866  W2        4337            0.0000000000
     12828      4276  TIP3      H2             -3.4180996295      -27.5169371127       12.3411269866  W2        4337            0.0000000000
     12829      4277  TIP3      OH2            -5.0438996295      -25.5823071127       14.7670569866  W2        4338            0.0000000000
     12830      4277  TIP3      H1             -5.6913696295      -25.2571571127       15.3925769866  W2        4338            0.0000000000
     12831      4277  TIP3      H2             -5.5614996295      -26.0225371127       14.0928869866  W2        4338            0.0000000000
     12832      4278  TIP3      OH2            -3.0209396295      -31.3439571127        3.9035869866  W2        4339            0.0000000000
     12833      4278  TIP3      H1             -3.5428296295      -30.9875471127        3.1846769866  W2        4339            0.0000000000
     12834      4278  TIP3      H2             -3.0540196295      -30.6691771127        4.5816769866  W2        4339            0.0000000000
     12835      4279  TIP3      OH2            -4.6720396295      -34.1043971127        2.4542969866  W2        4340            0.0000000000
     12836      4279  TIP3      H1             -4.5755996295      -33.4376971127        1.7742669866  W2        4340            0.0000000000
     12837      4279  TIP3      H2             -4.8120796295      -34.9197671127        1.9728469866  W2        4340            0.0000000000
     12838      4280  TIP3      OH2            -5.5025696295      -32.7241571127        8.0753269866  W2        4341            0.0000000000
     12839      4280  TIP3      H1             -5.6526896295      -33.6692971127        8.0551069866  W2        4341            0.0000000000
     12840      4280  TIP3      H2             -5.8561196295      -32.4430171127        8.9192369866  W2        4341            0.0000000000
     12841      4281  TIP3      OH2           -20.4673296295      -30.6459371127       12.0857069866  W2        4342            0.0000000000
     12842      4281  TIP3      H1            -20.2830396295      -30.7277671127       11.1499969866  W2        4342            0.0000000000
     12843      4281  TIP3      H2            -19.6180396295      -30.7702371127       12.5093469866  W2        4342            0.0000000000
     12844      4282  TIP3      OH2            -5.4246596295      -36.6964171127        1.5718469866  W2        4345            0.0000000000
     12845      4282  TIP3      H1             -4.8140796295      -37.0677371127        2.2086669866  W2        4345            0.0000000000
     12846      4282  TIP3      H2             -6.2615096295      -37.1177271127        1.7678469866  W2        4345            0.0000000000
     12847      4283  TIP3      OH2            -5.7920896295      -35.1415771127        6.5378369866  W2        4346            0.0000000000
     12848      4283  TIP3      H1             -5.5123796295      -36.0485371127        6.6620069866  W2        4346            0.0000000000
     12849      4283  TIP3      H2             -5.0329196295      -34.7074271127        6.1487569866  W2        4346            0.0000000000
     12850      4284  TIP3      OH2            -5.1802596295      -34.5598371127       11.9737269866  W2        4347            0.0000000000
     12851      4284  TIP3      H1             -4.2474596295      -34.3478471127       11.9393269866  W2        4347            0.0000000000
     12852      4284  TIP3      H2             -5.4155096295      -34.4586271127       12.8960269866  W2        4347            0.0000000000
     12853      4285  TIP3      OH2            -5.1510696295      -33.8233071127       14.7496669866  W2        4348            0.0000000000
     12854      4285  TIP3      H1             -5.9939396295      -33.5552671127       15.1156469866  W2        4348            0.0000000000
     12855      4285  TIP3      H2             -4.7086396295      -33.0011171127       14.5387769866  W2        4348            0.0000000000
     12856      4286  TIP3      OH2            -5.1786096295      -37.8786471127        6.5860369866  W2        4351            0.0000000000
     12857      4286  TIP3      H1             -4.9961096295      -38.3274971127        7.4115369866  W2        4351            0.0000000000
     12858      4286  TIP3      H2             -5.7783196295      -38.4632071127        6.1224969866  W2        4351            0.0000000000
     12859      4287  TIP3      OH2           -19.6485996295      -37.0632771127       11.1178769866  W2        4352            0.0000000000
     12860      4287  TIP3      H1            -19.2034396295      -37.8550271127       11.4198469866  W2        4352            0.0000000000
     12861      4287  TIP3      H2            -19.1822996295      -36.3467571127       11.5484369866  W2        4352            0.0000000000
     12862      4288  TIP3      OH2           -21.3445696295      -34.0639771127       12.1868969866  W2        4353            0.0000000000
     12863      4288  TIP3      H1            -20.8525896295      -34.2849271127       11.3960969866  W2        4353            0.0000000000
     12864      4288  TIP3      H2            -20.9824796295      -33.2236371127       12.4678469866  W2        4353            0.0000000000
     12865      4289  TIP3      OH2            -3.3119896295      -37.8108371127        3.1140669866  W2        4355            0.0000000000
     12866      4289  TIP3      H1             -2.8997296295      -38.5322671127        2.6388669866  W2        4355            0.0000000000
     12867      4289  TIP3      H2             -2.6303396295      -37.1413771127        3.1724969866  W2        4355            0.0000000000
     12868      4290  TIP3      OH2           -21.0309196295      -37.8060671127        6.2411369866  W2        4356            0.0000000000
     12869      4290  TIP3      H1            -21.9560796295      -37.5974071127        6.1116869866  W2        4356            0.0000000000
     12870      4290  TIP3      H2            -20.5769296295      -37.3219871127        5.5513669866  W2        4356            0.0000000000
     12871      4291  TIP3      OH2            -6.2601996295      -22.8218971127        8.1868769866  W2        4357            0.0000000000
     12872      4291  TIP3      H1             -5.6079096295      -23.1696871127        7.5787869866  W2        4357            0.0000000000
     12873      4291  TIP3      H2             -5.7498196295      -22.3335771127        8.8328469866  W2        4357            0.0000000000
     12874      4292  TIP3      OH2           -21.0673796295      -39.0681671127       14.5853869866  W2        4358            0.0000000000
     12875      4292  TIP3      H1            -21.7323296295      -39.3141371127       15.2284769866  W2        4358            0.0000000000
     12876      4292  TIP3      H2            -21.5102496295      -38.4461271127       14.0081869866  W2        4358            0.0000000000
     12877      4293  TIP3      OH2           -15.9211596295      -24.9186371127       14.9883669866  W2        4360            0.0000000000
     12878      4293  TIP3      H1            -16.3460496295      -24.1087871127       14.7058269866  W2        4360            0.0000000000
     12879      4293  TIP3      H2            -15.0168796295      -24.8332271127       14.6863469866  W2        4360            0.0000000000
     12880      4294  TIP3      OH2            -9.2649796295      -22.2337471127       17.1918769866  W2        4362            0.0000000000
     12881      4294  TIP3      H1             -8.5880896295      -22.8665171127       16.9517969866  W2        4362            0.0000000000
     12882      4294  TIP3      H2             -8.9430996295      -21.8326971127       17.9992069866  W2        4362            0.0000000000
     12883      4295  TIP3      OH2            -4.3475996295      -39.6441971127       16.2713769866  W2        4363            0.0000000000
     12884      4295  TIP3      H1             -5.1602496295      -39.3191671127       15.8838469866  W2        4363            0.0000000000
     12885      4295  TIP3      H2             -4.1147496295      -40.4043471127       15.7382869866  W2        4363            0.0000000000
     12886      4296  TIP3      OH2           -18.5194896295      -21.6622471127       15.0358969866  W2        4364            0.0000000000
     12887      4296  TIP3      H1            -19.2398496295      -21.2221471127       14.5846669866  W2        4364            0.0000000000
     12888      4296  TIP3      H2            -18.8850896295      -21.9127771127       15.8842969866  W2        4364            0.0000000000
     12889      4297  TIP3      OH2           -16.0522296295      -22.0618571127       14.0656169866  W2        4365            0.0000000000
     12890      4297  TIP3      H1            -16.9170096295      -21.9900071127       14.4696269866  W2        4365            0.0000000000
     12891      4297  TIP3      H2            -16.1073296295      -21.5151271127       13.2818669866  W2        4365            0.0000000000
     12892      4298  TIP3      OH2           -11.3416696295      -22.1739671127       13.2412169866  W2        4366            0.0000000000
     12893      4298  TIP3      H1            -11.7982696295      -21.6449971127       12.5870569866  W2        4366            0.0000000000
     12894      4298  TIP3      H2            -11.1788696295      -21.5708271127       13.9664469866  W2        4366            0.0000000000
     12895      4299  TIP3      OH2            -9.0140396295      -23.2960071127       14.1862469866  W2        4367            0.0000000000
     12896      4299  TIP3      H1             -9.9186696295      -23.1309871127       13.9204569866  W2        4367            0.0000000000
     12897      4299  TIP3      H2             -8.5851796295      -22.4427871127       14.1205869866  W2        4367            0.0000000000
     12898      4300  TIP3      OH2            -6.4098496295      -21.7260971127       14.4810269866  W2        4368            0.0000000000
     12899      4300  TIP3      H1             -6.5916496295      -20.8102071127       14.2705169866  W2        4368            0.0000000000
     12900      4300  TIP3      H2             -6.2330696295      -22.1363871127       13.6344869866  W2        4368            0.0000000000
     12901      4301  TIP3      OH2           -19.1046796295      -23.0389971127       11.9460769866  W2        4369            0.0000000000
     12902      4301  TIP3      H1            -19.1230796295      -23.4644871127       12.8033069866  W2        4369            0.0000000000
     12903      4301  TIP3      H2            -18.2998896295      -23.3574971127       11.5372969866  W2        4369            0.0000000000
     12904      4302  TIP3      OH2           -16.9633696295      -24.3291271127       10.6010669866  W2        4370            0.0000000000
     12905      4302  TIP3      H1            -17.1822996295      -25.2453871127       10.7706669866  W2        4370            0.0000000000
     12906      4302  TIP3      H2            -16.1391496295      -24.1890871127       11.0672069866  W2        4370            0.0000000000
     12907      4303  TIP3      OH2           -14.4261196295      -23.8591971127       11.4498669866  W2        4371            0.0000000000
     12908      4303  TIP3      H1            -14.2135496295      -24.7472971127       11.1629569866  W2        4371            0.0000000000
     12909      4303  TIP3      H2            -14.3616096295      -23.8934271127       12.4042669866  W2        4371            0.0000000000
     12910      4304  TIP3      OH2           -10.9177496295      -38.1951371127       10.5941969866  W2        4372            0.0000000000
     12911      4304  TIP3      H1            -11.5920696295      -38.8245771127       10.8497769866  W2        4372            0.0000000000
     12912      4304  TIP3      H2            -10.3538296295      -38.6792471127        9.9909869866  W2        4372            0.0000000000
     12913      4305  TIP3      OH2            -5.7750296295      -40.0877371127       10.7069069866  W2        4373            0.0000000000
     12914      4305  TIP3      H1             -5.1712696295      -39.5401971127       10.2050069866  W2        4373            0.0000000000
     12915      4305  TIP3      H2             -6.6448296295      -39.7686971127       10.4663169866  W2        4373            0.0000000000
     12916      4306  TIP3      OH2            -4.0479896295      -38.9488671127        9.0399969866  W2        4374            0.0000000000
     12917      4306  TIP3      H1             -3.4362396295      -39.4632971127        8.5133569866  W2        4374            0.0000000000
     12918      4306  TIP3      H2             -3.6656496295      -38.0716571127        9.0634369866  W2        4374            0.0000000000
     12919      4307  TIP3      OH2           -18.5909996295      -39.5611071127        8.4161869866  W2        4375            0.0000000000
     12920      4307  TIP3      H1            -19.3680196295      -39.7956171127        7.9087769866  W2        4375            0.0000000000
     12921      4307  TIP3      H2            -18.0606396295      -40.3578971127        8.4249869866  W2        4375            0.0000000000
     12922      4308  TIP3      OH2           -19.7546596295      -39.7632971127        4.2197969866  W2        4376            0.0000000000
     12923      4308  TIP3      H1            -19.3155896295      -39.1522471127        3.6281469866  W2        4376            0.0000000000
     12924      4308  TIP3      H2            -20.3884196295      -39.2248871127        4.6937969866  W2        4376            0.0000000000
     12925      4309  TIP3      OH2           -14.0117396295      -39.6343971127        8.2294969866  W2        4377            0.0000000000
     12926      4309  TIP3      H1            -13.1373996295      -39.2459671127        8.1999269866  W2        4377            0.0000000000
     12927      4309  TIP3      H2            -14.1476596295      -39.8496171127        9.1522169866  W2        4377            0.0000000000
     12928      4310  TIP3      OH2            -8.4548996295      -39.6044171127        9.8786669866  W2        4378            0.0000000000
     12929      4310  TIP3      H1             -8.3787396295      -39.5092571127        8.9292669866  W2        4378            0.0000000000
     12930      4310  TIP3      H2             -8.7299796295      -40.5121271127       10.0075769866  W2        4378            0.0000000000
     12931      4311  TIP3      OH2            -7.1016396295      -39.5786371127        5.5711669866  W2        4379            0.0000000000
     12932      4311  TIP3      H1             -7.8045296295      -38.9637171127        5.3613069866  W2        4379            0.0000000000
     12933      4311  TIP3      H2             -7.5464996295      -40.4159671127        5.7022569866  W2        4379            0.0000000000
     12934      4312  TIP3      OH2           -19.8537096295      -23.8150771127        5.1173069866  W2        4380            0.0000000000
     12935      4312  TIP3      H1            -20.5387196295      -23.8531871127        4.4498169866  W2        4380            0.0000000000
     12936      4312  TIP3      H2            -19.8499896295      -22.9023171127        5.4055169866  W2        4380            0.0000000000
     12937      4313  TIP3      OH2           -17.8937496295      -37.8471471127        2.6622069866  W2        4381            0.0000000000
     12938      4313  TIP3      H1            -17.4024096295      -38.4769071127        2.1347569866  W2        4381            0.0000000000
     12939      4313  TIP3      H2            -17.2701196295      -37.5512071127        3.3253269866  W2        4381            0.0000000000
     12940      4314  TIP3      OH2           -12.8677396295      -37.5539971127        5.1192569866  W2        4382            0.0000000000
     12941      4314  TIP3      H1            -12.6896096295      -38.2006771127        5.8021169866  W2        4382            0.0000000000
     12942      4314  TIP3      H2            -12.9211196295      -36.7202271127        5.5863669866  W2        4382            0.0000000000
     12943      4315  TIP3      OH2           -10.9893596295      -22.6055871127        3.5149269866  W2        4383            0.0000000000
     12944      4315  TIP3      H1            -10.1233396295      -22.2388471127        3.3367469866  W2        4383            0.0000000000
     12945      4315  TIP3      H2            -11.2360796295      -23.0447871127        2.7010069866  W2        4383            0.0000000000
     12946      4316  TIP3      OH2            -4.2803996295      -23.0425571127        6.1940369866  W2        4384            0.0000000000
     12947      4316  TIP3      H1             -4.4746896295      -23.7903471127        5.6289969866  W2        4384            0.0000000000
     12948      4316  TIP3      H2             -4.3193896295      -22.2845471127        5.6108269866  W2        4384            0.0000000000
     12949      4317  TIP3      OH2           -18.0355896295      -22.8949971127        2.1425169866  W2        4387            0.0000000000
     12950      4317  TIP3      H1            -18.3031296295      -22.6087071127        3.0158269866  W2        4387            0.0000000000
     12951      4317  TIP3      H2            -17.2643296295      -23.4410771127        2.2947669866  W2        4387            0.0000000000
     12952      4318  TIP3      OH2             9.3432603705      -30.4048771127        8.3749369866  W2        4390            0.0000000000
     12953      4318  TIP3      H1              9.4323703705      -29.4610571127        8.2426469866  W2        4390            0.0000000000
     12954      4318  TIP3      H2              8.7050203705      -30.6802371127        7.7168769866  W2        4390            0.0000000000
     12955      4319  TIP3      OH2             8.2763903705      -31.1498071127       11.7937569866  W2        4391            0.0000000000
     12956      4319  TIP3      H1              8.2381403705      -31.7961771127       12.4987169866  W2        4391            0.0000000000
     12957      4319  TIP3      H2              7.9540403705      -31.6163671127       11.0226269866  W2        4391            0.0000000000
     12958      4320  TIP3      OH2             0.6448903705      -31.5355971127       13.3867469866  W2        4392            0.0000000000
     12959      4320  TIP3      H1              0.6861003705      -32.1612671127       14.1099869866  W2        4392            0.0000000000
     12960      4320  TIP3      H2              1.3476603705      -30.9117371127       13.5687869866  W2        4392            0.0000000000
     12961      4321  TIP3      OH2            11.9824103705      -28.2107671127       10.0952669866  W2        4393            0.0000000000
     12962      4321  TIP3      H1             11.5416803705      -28.9311671127       10.5458269866  W2        4393            0.0000000000
     12963      4321  TIP3      H2             11.9693803705      -27.4900471127       10.7250369866  W2        4393            0.0000000000
     12964      4322  TIP3      OH2             1.5682003705      -27.0857071127       11.9216569866  W2        4394            0.0000000000
     12965      4322  TIP3      H1              1.1987203705      -27.8876571127       11.5520869866  W2        4394            0.0000000000
     12966      4322  TIP3      H2              2.5093103705      -27.2542171127       11.9679969866  W2        4394            0.0000000000
     12967      4323  TIP3      OH2            -1.8217496295      -33.4254471127        7.3145369866  W2        4395            0.0000000000
     12968      4323  TIP3      H1             -2.2694096295      -32.5795771127        7.2961869866  W2        4395            0.0000000000
     12969      4323  TIP3      H2             -2.3826296295      -34.0050271127        6.7990469866  W2        4395            0.0000000000
     12970      4324  TIP3      OH2            -1.1111396295      -31.2634871127        9.4403369866  W2        4396            0.0000000000
     12971      4324  TIP3      H1             -0.8977896295      -32.0333271127        9.9676369866  W2        4396            0.0000000000
     12972      4324  TIP3      H2             -0.3733796295      -31.1738171127        8.8370969866  W2        4396            0.0000000000
     12973      4325  TIP3      OH2             9.0939603705      -23.1065971127       10.3073069866  W2        4397            0.0000000000
     12974      4325  TIP3      H1              9.7136003705      -23.7831271127       10.0342269866  W2        4397            0.0000000000
     12975      4325  TIP3      H2              8.8857003705      -23.3245171127       11.2157969866  W2        4397            0.0000000000
     12976      4326  TIP3      OH2             6.6658303705      -28.7176671127       12.1998569866  W2        4398            0.0000000000
     12977      4326  TIP3      H1              6.9696203705      -29.4035271127       11.6052669866  W2        4398            0.0000000000
     12978      4326  TIP3      H2              7.3872303705      -28.5987971127       12.8176569866  W2        4398            0.0000000000
     12979      4327  TIP3      OH2            15.3288103705      -37.1161371127       13.0604769866  W2        4399            0.0000000000
     12980      4327  TIP3      H1             15.3780303705      -36.5060171127       13.7963869866  W2        4399            0.0000000000
     12981      4327  TIP3      H2             15.7543203705      -36.6550471127       12.3375869866  W2        4399            0.0000000000
     12982      4328  TIP3      OH2             9.8065303705      -34.3234271127       12.5273369866  W2        4400            0.0000000000
     12983      4328  TIP3      H1              9.9491203705      -35.2697271127       12.5474969866  W2        4400            0.0000000000
     12984      4328  TIP3      H2              9.7004303705      -34.1164471127       11.5988269866  W2        4400            0.0000000000
     12985      4329  TIP3      OH2             2.9613603705      -36.2217871127        9.7998169866  W2        4401            0.0000000000
     12986      4329  TIP3      H1              3.0044703705      -35.3619371127        9.3814469866  W2        4401            0.0000000000
     12987      4329  TIP3      H2              2.5037703705      -36.7743171127        9.1661369866  W2        4401            0.0000000000
     12988      4330  TIP3      OH2            10.6836303705      -36.0912271127        8.2006469866  W2        4402            0.0000000000
     12989      4330  TIP3      H1             11.3300603705      -36.4199071127        8.8254069866  W2        4402            0.0000000000
     12990      4330  TIP3      H2             11.1935703705      -35.5733271127        7.5777869866  W2        4402            0.0000000000
     12991      4331  TIP3      OH2            -0.4184896295      -33.8252071127       10.5619569866  W2        4403            0.0000000000
     12992      4331  TIP3      H1              0.2351703705      -34.3750371127       10.9939669866  W2        4403            0.0000000000
     12993      4331  TIP3      H2             -0.3945596295      -34.0993071127        9.6451569866  W2        4403            0.0000000000
     12994      4332  TIP3      OH2             4.7379603705      -32.2750771127        9.7771069866  W2        4404            0.0000000000
     12995      4332  TIP3      H1              5.3540603705      -32.8015371127       10.2865069866  W2        4404            0.0000000000
     12996      4332  TIP3      H2              4.1518403705      -32.9152071127        9.3734669866  W2        4404            0.0000000000
     12997      4333  TIP3      OH2            15.7202703705      -35.6382171127       15.2964569866  W2        4405            0.0000000000
     12998      4333  TIP3      H1             15.0317303705      -34.9801471127       15.2011169866  W2        4405            0.0000000000
     12999      4333  TIP3      H2             15.7357303705      -35.8354271127       16.2329969866  W2        4405            0.0000000000
     13000      4334  TIP3      OH2             1.7715503705      -37.3039471127       13.8738969866  W2        4406            0.0000000000
     13001      4334  TIP3      H1              1.5527203705      -36.7738871127       13.1074969866  W2        4406            0.0000000000
     13002      4334  TIP3      H2              1.1036403705      -37.0773971127       14.5210369866  W2        4406            0.0000000000
     13003      4335  TIP3      OH2             9.1405303705      -27.8038371127        7.4178069866  W2        4407            0.0000000000
     13004      4335  TIP3      H1              8.8450403705      -28.1266071127        6.5664969866  W2        4407            0.0000000000
     13005      4335  TIP3      H2              8.8163103705      -26.9041671127        7.4590669866  W2        4407            0.0000000000
     13006      4336  TIP3      OH2             4.3406903705      -29.6283771127       14.1612669866  W2        4408            0.0000000000
     13007      4336  TIP3      H1              3.6006003705      -29.0302271127       14.2647869866  W2        4408            0.0000000000
     13008      4336  TIP3      H2              5.0546403705      -29.0744171127       13.8456269866  W2        4408            0.0000000000
     13009      4337  TIP3      OH2            12.4474703705      -36.8002971127       10.1812369866  W2        4409            0.0000000000
     13010      4337  TIP3      H1             12.2322703705      -37.5659571127       10.7138369866  W2        4409            0.0000000000
     13011      4337  TIP3      H2             13.1032103705      -36.3278371127       10.6940869866  W2        4409            0.0000000000
     13012      4338  TIP3      OH2             1.3652803705      -35.4117671127       11.8261169866  W2        4410            0.0000000000
     13013      4338  TIP3      H1              1.9789103705      -34.7790071127       12.1993569866  W2        4410            0.0000000000
     13014      4338  TIP3      H2              1.8773503705      -35.8842671127       11.1698069866  W2        4410            0.0000000000
     13015      4339  TIP3      OH2             2.7481203705      -27.6640771127       14.9484169866  W2        4411            0.0000000000
     13016      4339  TIP3      H1              2.7428803705      -26.7847271127       14.5703469866  W2        4411            0.0000000000
     13017      4339  TIP3      H2              1.8945303705      -27.7476671127       15.3734069866  W2        4411            0.0000000000
     13018      4340  TIP3      OH2            -1.1307896295      -27.9932871127        5.7303469866  W2        4412            0.0000000000
     13019      4340  TIP3      H1             -1.4026996295      -27.7641871127        4.8416369866  W2        4412            0.0000000000
     13020      4340  TIP3      H2             -1.0852196295      -27.1554071127        6.1908769866  W2        4412            0.0000000000
     13021      4341  TIP3      OH2            12.4941803705      -26.3716971127       12.4431969866  W2        4413            0.0000000000
     13022      4341  TIP3      H1             11.5525503705      -26.3133071127       12.6048869866  W2        4413            0.0000000000
     13023      4341  TIP3      H2             12.7707903705      -25.4656471127       12.3061669866  W2        4413            0.0000000000
     13024      4342  TIP3      OH2            12.7948803705      -38.0851671127       13.8605869866  W2        4414            0.0000000000
     13025      4342  TIP3      H1             12.0588003705      -37.4744571127       13.8227169866  W2        4414            0.0000000000
     13026      4342  TIP3      H2             13.4782803705      -37.6702671127       13.3342269866  W2        4414            0.0000000000
     13027      4343  TIP3      OH2             5.7980203705      -39.9984371127       11.3263869866  W2        4415            0.0000000000
     13028      4343  TIP3      H1              5.6804403705      -40.9468371127       11.2722169866  W2        4415            0.0000000000
     13029      4343  TIP3      H2              4.9430303705      -39.6658271127       11.5994969866  W2        4415            0.0000000000
     13030      4344  TIP3      OH2            10.7463003705      -24.5903471127        9.0683569866  W2        4416            0.0000000000
     13031      4344  TIP3      H1             11.1715303705      -25.2975571127        8.5833169866  W2        4416            0.0000000000
     13032      4344  TIP3      H2             11.0633003705      -23.7890771127        8.6515769866  W2        4416            0.0000000000
     13033      4345  TIP3      OH2            11.9059503705      -26.6894971127        7.5770169866  W2        4417            0.0000000000
     13034      4345  TIP3      H1             11.6484303705      -27.3794871127        6.9656069866  W2        4417            0.0000000000
     13035      4345  TIP3      H2             11.9770303705      -27.1323771127        8.4226069866  W2        4417            0.0000000000
     13036      4346  TIP3      OH2            13.5919703705      -28.1228271127       16.0543669866  W2        4418            0.0000000000
     13037      4346  TIP3      H1             13.7316003705      -28.7145771127       15.3150669866  W2        4418            0.0000000000
     13038      4346  TIP3      H2             13.7592503705      -27.2502371127       15.6982469866  W2        4418            0.0000000000
     13039      4347  TIP3      OH2             8.0645103705      -31.1608771127        5.8269669866  W2        4419            0.0000000000
     13040      4347  TIP3      H1              7.3530603705      -30.6259071127        5.4750169866  W2        4419            0.0000000000
     13041      4347  TIP3      H2              8.7554703705      -31.1056671127        5.1668569866  W2        4419            0.0000000000
     13042      4348  TIP3      OH2             8.1184303705      -32.7034471127        2.8654669866  W2        4420            0.0000000000
     13043      4348  TIP3      H1              8.8194203705      -32.6807571127        3.5168669866  W2        4420            0.0000000000
     13044      4348  TIP3      H2              8.4207203705      -33.3314771127        2.2093969866  W2        4420            0.0000000000
     13045      4349  TIP3      OH2            15.4339003705      -31.7830271127       14.1204069866  W2        4421            0.0000000000
     13046      4349  TIP3      H1             14.7813103705      -31.0884671127       14.2094969866  W2        4421            0.0000000000
     13047      4349  TIP3      H2             15.8989303705      -31.5729371127       13.3105669866  W2        4421            0.0000000000
     13048      4350  TIP3      OH2            11.4702803705      -30.9515471127        6.7785569866  W2        4422            0.0000000000
     13049      4350  TIP3      H1             10.7383803705      -30.7231771127        7.3516169866  W2        4422            0.0000000000
     13050      4350  TIP3      H2             11.9175003705      -31.6652771127        7.2333069866  W2        4422            0.0000000000
     13051      4351  TIP3      OH2            11.3676303705      -32.7772871127       15.8462569866  W2        4423            0.0000000000
     13052      4351  TIP3      H1             11.4475403705      -32.0138471127       16.4181069866  W2        4423            0.0000000000
     13053      4351  TIP3      H2             10.7664003705      -32.4980471127       15.1557669866  W2        4423            0.0000000000
     13054      4352  TIP3      OH2             3.1156503705      -30.3209271127        8.6610569866  W2        4424            0.0000000000
     13055      4352  TIP3      H1              2.7851703705      -30.6915871127        7.8427569866  W2        4424            0.0000000000
     13056      4352  TIP3      H2              3.7040603705      -30.9915271127        9.0078869866  W2        4424            0.0000000000
     13057      4353  TIP3      OH2             4.4824003705      -26.8928671127       11.3422769866  W2        4425            0.0000000000
     13058      4353  TIP3      H1              4.3875303705      -27.4715571127       10.5857369866  W2        4425            0.0000000000
     13059      4353  TIP3      H2              5.2117603705      -27.2642971127       11.8385569866  W2        4425            0.0000000000
     13060      4354  TIP3      OH2             3.4822003705      -31.5523671127       12.2945569866  W2        4426            0.0000000000
     13061      4354  TIP3      H1              4.0474503705      -31.4309471127       11.5316769866  W2        4426            0.0000000000
     13062      4354  TIP3      H2              3.8010903705      -30.9148671127       12.9334069866  W2        4426            0.0000000000
     13063      4355  TIP3      OH2             9.7914203705      -26.0491771127       13.0286069866  W2        4427            0.0000000000
     13064      4355  TIP3      H1              9.5510803705      -25.3868671127       13.6765269866  W2        4427            0.0000000000
     13065      4355  TIP3      H2              9.5932403705      -26.8836571127       13.4535669866  W2        4427            0.0000000000
     13066      4356  TIP3      OH2             4.3622703705      -27.1530971127       17.0117469866  W2        4428            0.0000000000
     13067      4356  TIP3      H1              4.0510203705      -26.3707771127       17.4670669866  W2        4428            0.0000000000
     13068      4356  TIP3      H2              3.7122903705      -27.3061871127       16.3259469866  W2        4428            0.0000000000
     13069      4357  TIP3      OH2            10.3412303705      -31.7892571127        4.4636769866  W2        4429            0.0000000000
     13070      4357  TIP3      H1             10.9207803705      -31.6392271127        5.2105669866  W2        4429            0.0000000000
     13071      4357  TIP3      H2             10.7552303705      -31.3185171127        3.7403169866  W2        4429            0.0000000000
     13072      4358  TIP3      OH2             1.2822603705      -30.9549871127       16.2403169866  W2        4430            0.0000000000
     13073      4358  TIP3      H1              1.3525803705      -30.3043071127       16.9388169866  W2        4430            0.0000000000
     13074      4358  TIP3      H2              0.3914803705      -30.8522371127       15.9054069866  W2        4430            0.0000000000
     13075      4359  TIP3      OH2             8.0677203705      -25.0524071127        7.8989869866  W2        4431            0.0000000000
     13076      4359  TIP3      H1              8.5414803705      -24.7567771127        8.6764069866  W2        4431            0.0000000000
     13077      4359  TIP3      H2              7.5046503705      -24.3142471127        7.6659469866  W2        4431            0.0000000000
     13078      4360  TIP3      OH2            14.0400703705      -40.0392171127        4.2766469866  W2        4433            0.0000000000
     13079      4360  TIP3      H1             13.1401403705      -39.9003171127        4.5717069866  W2        4433            0.0000000000
     13080      4360  TIP3      H2             14.2919103705      -39.2077571127        3.8748169866  W2        4433            0.0000000000
     13081      4361  TIP3      OH2             2.1059203705      -31.2514971127        6.2503369866  W2        4434            0.0000000000
     13082      4361  TIP3      H1              1.8140503705      -30.4833271127        5.7594669866  W2        4434            0.0000000000
     13083      4361  TIP3      H2              1.4314403705      -31.9108771127        6.0874769866  W2        4434            0.0000000000
     13084      4362  TIP3      OH2            15.2292103705      -25.6729771127        2.6530369866  W2        4435            0.0000000000
     13085      4362  TIP3      H1             15.3025603705      -24.7339571127        2.8235669866  W2        4435            0.0000000000
     13086      4362  TIP3      H2             16.1347203705      -25.9781171127        2.5967669866  W2        4435            0.0000000000
     13087      4363  TIP3      OH2            -1.8010696295      -28.8885771127       15.0653169866  W2        4436            0.0000000000
     13088      4363  TIP3      H1             -2.3022296295      -28.9166371127       14.2502869866  W2        4436            0.0000000000
     13089      4363  TIP3      H2             -1.7956996295      -29.7942571127       15.3750469866  W2        4436            0.0000000000
     13090      4364  TIP3      OH2            -2.0507996295      -26.1081971127       11.9493369866  W2        4437            0.0000000000
     13091      4364  TIP3      H1             -1.1047396295      -26.2524971127       11.9302869866  W2        4437            0.0000000000
     13092      4364  TIP3      H2             -2.1631696295      -25.3239171127       12.4864569866  W2        4437            0.0000000000
     13093      4365  TIP3      OH2             7.1254503705      -25.8683071127       16.5078469866  W2        4439            0.0000000000
     13094      4365  TIP3      H1              7.2129103705      -25.0418471127       16.9827569866  W2        4439            0.0000000000
     13095      4365  TIP3      H2              6.2619603705      -26.1979271127       16.7567769866  W2        4439            0.0000000000
     13096      4366  TIP3      OH2             7.5400303705      -22.0959371127        6.3139069866  W2        4440            0.0000000000
     13097      4366  TIP3      H1              7.4646303705      -22.2172171127        5.3674269866  W2        4440            0.0000000000
     13098      4366  TIP3      H2              7.5729003705      -21.1466671127        6.4323669866  W2        4440            0.0000000000
     13099      4367  TIP3      OH2             1.1934103705      -23.3072371127        8.0948069866  W2        4441            0.0000000000
     13100      4367  TIP3      H1              1.3454503705      -23.6551971127        8.9734569866  W2        4441            0.0000000000
     13101      4367  TIP3      H2              0.3424503705      -23.6635071127        7.8395269866  W2        4441            0.0000000000
     13102      4368  TIP3      OH2            10.6416303705      -22.9419171127        3.3161469866  W2        4442            0.0000000000
     13103      4368  TIP3      H1             11.0164703705      -23.6863071127        2.8454069866  W2        4442            0.0000000000
     13104      4368  TIP3      H2             10.6460003705      -23.2118571127        4.2344769866  W2        4442            0.0000000000
     13105      4369  TIP3      OH2            10.3104403705      -23.0162071127        6.0653669866  W2        4443            0.0000000000
     13106      4369  TIP3      H1              9.3754203705      -22.9160171127        6.2440669866  W2        4443            0.0000000000
     13107      4369  TIP3      H2             10.5906303705      -23.7256071127        6.6436869866  W2        4443            0.0000000000
     13108      4370  TIP3      OH2             0.4479803705      -27.5650371127       16.1085969866  W2        4445            0.0000000000
     13109      4370  TIP3      H1              0.6641103705      -27.9264771127       16.9681769866  W2        4445            0.0000000000
     13110      4370  TIP3      H2             -0.4075496295      -27.9396571127       15.8989469866  W2        4445            0.0000000000
     13111      4371  TIP3      OH2             3.0667803705      -39.0949871127       12.1040169866  W2        4446            0.0000000000
     13112      4371  TIP3      H1              2.2051503705      -39.1821671127       11.6963069866  W2        4446            0.0000000000
     13113      4371  TIP3      H2              3.0443503705      -38.2389771127       12.5317769866  W2        4446            0.0000000000
     13114      4372  TIP3      OH2             7.7295603705      -39.3729471127       15.4787169866  W2        4447            0.0000000000
     13115      4372  TIP3      H1              8.1498703705      -39.7882371127       16.2317769866  W2        4447            0.0000000000
     13116      4372  TIP3      H2              6.7965203705      -39.5516171127       15.5959169866  W2        4447            0.0000000000
     13117      4373  TIP3      OH2            11.0560503705      -35.6174271127       16.3321669866  W2        4448            0.0000000000
     13118      4373  TIP3      H1             10.5420003705      -35.7432071127       17.1297669866  W2        4448            0.0000000000
     13119      4373  TIP3      H2             10.9005203705      -34.7051171127       16.0877869866  W2        4448            0.0000000000
     13120      4374  TIP3      OH2            11.8185403705      -30.7564271127        2.0934669866  W2        4449            0.0000000000
     13121      4374  TIP3      H1             11.8606203705      -30.9790371127        1.1634669866  W2        4449            0.0000000000
     13122      4374  TIP3      H2             12.6677503705      -30.3577171127        2.2834569866  W2        4449            0.0000000000
     13123      4375  TIP3      OH2             7.3912903705      -36.8806071127        2.7637969866  W2        4450            0.0000000000
     13124      4375  TIP3      H1              7.1377703705      -36.8614471127        3.6866069866  W2        4450            0.0000000000
     13125      4375  TIP3      H2              7.1345003705      -37.7520671127        2.4624169866  W2        4450            0.0000000000
     13126      4376  TIP3      OH2             3.1577903705      -34.1295371127       13.1990369866  W2        4451            0.0000000000
     13127      4376  TIP3      H1              2.5160003705      -34.1698071127       13.9080469866  W2        4451            0.0000000000
     13128      4376  TIP3      H2              3.1949903705      -33.2030671127       12.9613369866  W2        4451            0.0000000000
     13129      4377  TIP3      OH2             3.1547003705      -33.9085271127        8.1110369866  W2        4452            0.0000000000
     13130      4377  TIP3      H1              2.2619903705      -34.2489171127        8.0524169866  W2        4452            0.0000000000
     13131      4377  TIP3      H2              3.6053603705      -34.2854371127        7.3553569866  W2        4452            0.0000000000
     13132      4378  TIP3      OH2             8.6902503705      -33.4924971127        6.9281169866  W2        4453            0.0000000000
     13133      4378  TIP3      H1              8.2812803705      -32.6776371127        6.6365969866  W2        4453            0.0000000000
     13134      4378  TIP3      H2              9.4108703705      -33.6324871127        6.3138269866  W2        4453            0.0000000000
     13135      4379  TIP3      OH2             9.6950203705      -34.0464571127        9.7420869866  W2        4455            0.0000000000
     13136      4379  TIP3      H1              9.4994703705      -33.4407771127        9.0271469866  W2        4455            0.0000000000
     13137      4379  TIP3      H2              9.8762803705      -34.8799371127        9.3077169866  W2        4455            0.0000000000
     13138      4380  TIP3      OH2             0.9078403705      -33.8091871127       15.0662369866  W2        4456            0.0000000000
     13139      4380  TIP3      H1              0.8697803705      -33.4090271127       15.9349469866  W2        4456            0.0000000000
     13140      4380  TIP3      H2              0.4169503705      -34.6259471127       15.1565269866  W2        4456            0.0000000000
     13141      4381  TIP3      OH2             4.2735803705      -36.4349571127        1.8648369866  W2        4457            0.0000000000
     13142      4381  TIP3      H1              3.8426503705      -36.8799471127        2.5945769866  W2        4457            0.0000000000
     13143      4381  TIP3      H2              3.5554503705      -36.0633271127        1.3525869866  W2        4457            0.0000000000
     13144      4382  TIP3      OH2            -2.4840796295      -36.6930071127        8.9167069866  W2        4458            0.0000000000
     13145      4382  TIP3      H1             -1.8533096295      -36.7217971127        9.6360969866  W2        4458            0.0000000000
     13146      4382  TIP3      H2             -2.0346496295      -37.1181371127        8.1862969866  W2        4458            0.0000000000
     13147      4383  TIP3      OH2            -1.2098696295      -35.9468071127        4.3407469866  W2        4459            0.0000000000
     13148      4383  TIP3      H1             -0.7356996295      -35.3558171127        3.7558369866  W2        4459            0.0000000000
     13149      4383  TIP3      H2             -1.9272296295      -35.4165171127        4.6877569866  W2        4459            0.0000000000
     13150      4384  TIP3      OH2             8.9589403705      -32.4083271127       14.4133269866  W2        4460            0.0000000000
     13151      4384  TIP3      H1              9.2824203705      -33.0393571127       13.7703769866  W2        4460            0.0000000000
     13152      4384  TIP3      H2              8.5188703705      -32.9431071127       15.0740669866  W2        4460            0.0000000000
     13153      4385  TIP3      OH2             5.7362303705      -36.4807771127        9.1974469866  W2        4461            0.0000000000
     13154      4385  TIP3      H1              4.8253403705      -36.4240971127        9.4860469866  W2        4461            0.0000000000
     13155      4385  TIP3      H2              6.2415203705      -36.5412271127       10.0081669866  W2        4461            0.0000000000
     13156      4386  TIP3      OH2             0.5645703705      -34.8521471127        8.0242069866  W2        4462            0.0000000000
     13157      4386  TIP3      H1             -0.3246296295      -34.7525971127        7.6841669866  W2        4462            0.0000000000
     13158      4386  TIP3      H2              0.8610603705      -35.6938471127        7.6779969866  W2        4462            0.0000000000
     13159      4387  TIP3      OH2             4.2177503705      -34.8518871127        5.6806669866  W2        4463            0.0000000000
     13160      4387  TIP3      H1              5.1493003705      -34.7228871127        5.8589769866  W2        4463            0.0000000000
     13161      4387  TIP3      H2              4.0027803705      -34.1824571127        5.0311369866  W2        4463            0.0000000000
     13162      4388  TIP3      OH2            10.1414203705      -37.2461471127       12.4616269866  W2        4464            0.0000000000
     13163      4388  TIP3      H1              9.4645803705      -37.1148371127       13.1255969866  W2        4464            0.0000000000
     13164      4388  TIP3      H2              9.6559103705      -37.4011971127       11.6513969866  W2        4464            0.0000000000
     13165      4389  TIP3      OH2             2.8917703705      -33.6576671127        3.2472769866  W2        4465            0.0000000000
     13166      4389  TIP3      H1              2.3492803705      -34.0372871127        2.5560369866  W2        4465            0.0000000000
     13167      4389  TIP3      H2              3.7252603705      -33.4631971127        2.8186869866  W2        4465            0.0000000000
     13168      4390  TIP3      OH2             7.0562003705      -33.6934771127       11.0844069866  W2        4468            0.0000000000
     13169      4390  TIP3      H1              7.6205403705      -34.2398171127       10.5373669866  W2        4468            0.0000000000
     13170      4390  TIP3      H2              6.9085403705      -34.2152871127       11.8731669866  W2        4468            0.0000000000
     13171      4391  TIP3      OH2             2.0581703705      -37.5568671127        7.5028869866  W2        4469            0.0000000000
     13172      4391  TIP3      H1              1.7411203705      -38.4593371127        7.4674269866  W2        4469            0.0000000000
     13173      4391  TIP3      H2              2.8395803705      -37.5551271127        6.9500469866  W2        4469            0.0000000000
     13174      4392  TIP3      OH2             5.6827903705      -35.3048671127       13.4984469866  W2        4470            0.0000000000
     13175      4392  TIP3      H1              4.8473203705      -34.8509171127       13.6086869866  W2        4470            0.0000000000
     13176      4392  TIP3      H2              6.2068503705      -35.0290171127       14.2504369866  W2        4470            0.0000000000
     13177      4393  TIP3      OH2             6.2270503705      -29.0920971127        5.1830869866  W2        4471            0.0000000000
     13178      4393  TIP3      H1              5.4821503705      -29.5995671127        4.8608769866  W2        4471            0.0000000000
     13179      4393  TIP3      H2              6.0927703705      -29.0432971127        6.1295669866  W2        4471            0.0000000000
     13180      4394  TIP3      OH2            13.3769403705      -29.9592771127       13.9698469866  W2        4472            0.0000000000
     13181      4394  TIP3      H1             14.0188203705      -29.5026471127       13.4260669866  W2        4472            0.0000000000
     13182      4394  TIP3      H2             12.5466303705      -29.8460371127       13.5072569866  W2        4472            0.0000000000
     13183      4395  TIP3      OH2            10.1247303705      -36.2781071127        3.3823469866  W2        4473            0.0000000000
     13184      4395  TIP3      H1              9.1861503705      -36.1665471127        3.2312269866  W2        4473            0.0000000000
     13185      4395  TIP3      H2             10.4219403705      -35.4214171127        3.6889169866  W2        4473            0.0000000000
     13186      4396  TIP3      OH2             7.7462603705      -28.9077671127       16.4199969866  W2        4474            0.0000000000
     13187      4396  TIP3      H1              7.4008703705      -29.2895271127       17.2269569866  W2        4474            0.0000000000
     13188      4396  TIP3      H2              7.5462703705      -27.9744071127       16.4912869866  W2        4474            0.0000000000
     13189      4397  TIP3      OH2            10.8430803705      -34.4108371127        5.0430869866  W2        4475            0.0000000000
     13190      4397  TIP3      H1             11.7349803705      -34.5483371127        5.3622069866  W2        4475            0.0000000000
     13191      4397  TIP3      H2             10.8994403705      -33.6202271127        4.5064369866  W2        4475            0.0000000000
     13192      4398  TIP3      OH2             1.3518803705      -29.7970971127       10.9528769866  W2        4476            0.0000000000
     13193      4398  TIP3      H1              2.0966003705      -29.7995271127       10.3515269866  W2        4476            0.0000000000
     13194      4398  TIP3      H2              1.4295403705      -30.6207171127       11.4343869866  W2        4476            0.0000000000
     13195      4399  TIP3      OH2             8.3524603705      -27.6336671127        4.2085469866  W2        4477            0.0000000000
     13196      4399  TIP3      H1              8.0573003705      -26.8068771127        4.5900269866  W2        4477            0.0000000000
     13197      4399  TIP3      H2              7.6494603705      -28.2529771127        4.4046869866  W2        4477            0.0000000000
     13198      4400  TIP3      OH2            -1.6401496295      -31.3364071127       16.2677269866  W2        4478            0.0000000000
     13199      4400  TIP3      H1             -1.4172896295      -31.7544471127       17.0994769866  W2        4478            0.0000000000
     13200      4400  TIP3      H2             -2.2421396295      -31.9489071127       15.8450069866  W2        4478            0.0000000000
     13201      4401  TIP3      OH2             9.9966203705      -26.4462171127       16.3704969866  W2        4480            0.0000000000
     13202      4401  TIP3      H1              9.0960503705      -26.2629571127       16.1028869866  W2        4480            0.0000000000
     13203      4401  TIP3      H2             10.0307303705      -26.1872871127       17.2913769866  W2        4480            0.0000000000
     13204      4402  TIP3      OH2            15.7279503705      -34.2014271127        4.7377569866  W2        4481            0.0000000000
     13205      4402  TIP3      H1             15.1735803705      -34.5976271127        4.0655069866  W2        4481            0.0000000000
     13206      4402  TIP3      H2             15.8283103705      -33.2909071127        4.4600869866  W2        4481            0.0000000000
     13207      4403  TIP3      OH2            14.0231203705      -25.4153871127        5.2029669866  W2        4483            0.0000000000
     13208      4403  TIP3      H1             13.6502303705      -26.2410071127        5.5120269866  W2        4483            0.0000000000
     13209      4403  TIP3      H2             14.3004703705      -25.5984471127        4.3053069866  W2        4483            0.0000000000
     13210      4404  TIP3      OH2            11.1835103705      -30.6074371127       12.2241569866  W2        4484            0.0000000000
     13211      4404  TIP3      H1             10.2552003705      -30.8392471127       12.1970869866  W2        4484            0.0000000000
     13212      4404  TIP3      H2             11.6346203705      -31.3844571127       11.8940369866  W2        4484            0.0000000000
     13213      4405  TIP3      OH2             3.7268203705      -26.2792771127        8.3570269866  W2        4485            0.0000000000
     13214      4405  TIP3      H1              4.2540403705      -25.5058371127        8.1569069866  W2        4485            0.0000000000
     13215      4405  TIP3      H2              2.8466703705      -26.0543571127        8.0554269866  W2        4485            0.0000000000
     13216      4406  TIP3      OH2            -0.5184096295      -31.4168671127        2.9442669866  W2        4486            0.0000000000
     13217      4406  TIP3      H1              0.0975803705      -30.7901471127        3.3237469866  W2        4486            0.0000000000
     13218      4406  TIP3      H2             -1.3801496295      -31.1008871127        3.2159169866  W2        4486            0.0000000000
     13219      4407  TIP3      OH2             5.1540503705      -28.6162871127        7.9334569866  W2        4487            0.0000000000
     13220      4407  TIP3      H1              4.9130503705      -27.6908471127        7.9749869866  W2        4487            0.0000000000
     13221      4407  TIP3      H2              4.4134103705      -29.0751571127        8.3298469866  W2        4487            0.0000000000
     13222      4408  TIP3      OH2             5.6687103705      -24.4669271127       14.2485669866  W2        4488            0.0000000000
     13223      4408  TIP3      H1              6.0311803705      -23.6123671127       14.0150069866  W2        4488            0.0000000000
     13224      4408  TIP3      H2              6.2002303705      -24.7587671127       14.9891969866  W2        4488            0.0000000000
     13225      4409  TIP3      OH2             3.8371303705      -23.5945271127        7.4786769866  W2        4489            0.0000000000
     13226      4409  TIP3      H1              2.8871803705      -23.4887871127        7.5300069866  W2        4489            0.0000000000
     13227      4409  TIP3      H2              4.1889403705      -22.7737871127        7.8234269866  W2        4489            0.0000000000
     13228      4410  TIP3      OH2             9.2127903705      -28.3678571127       13.9491269866  W2        4490            0.0000000000
     13229      4410  TIP3      H1              8.7869203705      -28.5956871127       14.7755269866  W2        4490            0.0000000000
     13230      4410  TIP3      H2              9.7933703705      -29.1066771127       13.7666569866  W2        4490            0.0000000000
     13231      4411  TIP3      OH2            11.4156803705      -27.4388071127        3.0230269866  W2        4491            0.0000000000
     13232      4411  TIP3      H1             11.7689903705      -27.8188271127        3.8273769866  W2        4491            0.0000000000
     13233      4411  TIP3      H2             10.4670303705      -27.5323271127        3.1099569866  W2        4491            0.0000000000
     13234      4412  TIP3      OH2            11.8712103705      -23.8159071127       16.4186069866  W2        4492            0.0000000000
     13235      4412  TIP3      H1             11.2695303705      -24.3716171127       15.9232369866  W2        4492            0.0000000000
     13236      4412  TIP3      H2             12.1525803705      -23.1489271127       15.7923469866  W2        4492            0.0000000000
     13237      4413  TIP3      OH2            15.9191203705      -22.9595571127        3.2240469866  W2        4493            0.0000000000
     13238      4413  TIP3      H1             16.6629103705      -22.3735071127        3.0842069866  W2        4493            0.0000000000
     13239      4413  TIP3      H2             15.2249303705      -22.3909771127        3.5572869866  W2        4493            0.0000000000
     13240      4414  TIP3      OH2            -0.0061996295      -36.5831371127       15.8258669866  W2        4494            0.0000000000
     13241      4414  TIP3      H1             -0.8989696295      -36.2445971127       15.7582669866  W2        4494            0.0000000000
     13242      4414  TIP3      H2             -0.1049196295      -37.4385271127       16.2439469866  W2        4494            0.0000000000
     13243      4415  TIP3      OH2            12.2816103705      -28.7666071127        5.2498169866  W2        4495            0.0000000000
     13244      4415  TIP3      H1             12.0043703705      -29.4946771127        5.8059269866  W2        4495            0.0000000000
     13245      4415  TIP3      H2             13.2089103705      -28.6474071127        5.4550769866  W2        4495            0.0000000000
     13246      4416  TIP3      OH2            -0.3549996295      -24.7786971127       14.2608069866  W2        4496            0.0000000000
     13247      4416  TIP3      H1             -0.1379696295      -25.7104571127       14.2297769866  W2        4496            0.0000000000
     13248      4416  TIP3      H2             -0.1086496295      -24.5041971127       15.1440869866  W2        4496            0.0000000000
     13249      4417  TIP3      OH2             5.5064603705      -26.3271971127        1.4700269866  W2        4497            0.0000000000
     13250      4417  TIP3      H1              5.7454403705      -27.0753871127        0.9229169866  W2        4497            0.0000000000
     13251      4417  TIP3      H2              5.2375903705      -26.7150271127        2.3028069866  W2        4497            0.0000000000
     13252      4418  TIP3      OH2             4.4435203705      -26.7568171127        3.9262869866  W2        4498            0.0000000000
     13253      4418  TIP3      H1              4.5903203705      -27.2768371127        4.7163769866  W2        4498            0.0000000000
     13254      4418  TIP3      H2              4.4406903705      -25.8500571127        4.2328769866  W2        4498            0.0000000000
     13255      4419  TIP3      OH2             0.8966303705      -29.5044871127        4.4368269866  W2        4499            0.0000000000
     13256      4419  TIP3      H1              0.2105603705      -29.1522371127        5.0037969866  W2        4499            0.0000000000
     13257      4419  TIP3      H2              1.4194203705      -28.7415271127        4.1902569866  W2        4499            0.0000000000
     13258      4420  TIP3      OH2             8.7281403705      -36.8421071127       14.7157269866  W2        4500            0.0000000000
     13259      4420  TIP3      H1              9.4269303705      -36.7682371127       15.3656969866  W2        4500            0.0000000000
     13260      4420  TIP3      H2              8.3472803705      -37.7066071127       14.8700169866  W2        4500            0.0000000000
     13261      4421  TIP3      OH2             9.5126303705      -37.1899371127        5.8129569866  W2        4501            0.0000000000
     13262      4421  TIP3      H1              9.7324603705      -36.7183971127        5.0094969866  W2        4501            0.0000000000
     13263      4421  TIP3      H2             10.0710303705      -36.7956771127        6.4830169866  W2        4501            0.0000000000
     13264      4422  TIP3      OH2             7.1812403705      -25.0594571127        4.6757069866  W2        4502            0.0000000000
     13265      4422  TIP3      H1              6.3648503705      -24.5624871127        4.7281369866  W2        4502            0.0000000000
     13266      4422  TIP3      H2              7.7108703705      -24.5841071127        4.0355869866  W2        4502            0.0000000000
     13267      4423  TIP3      OH2             6.7126203705      -35.4620571127        6.6477969866  W2        4503            0.0000000000
     13268      4423  TIP3      H1              7.5248803705      -34.9577371127        6.6939669866  W2        4503            0.0000000000
     13269      4423  TIP3      H2              6.4679203705      -35.6070871127        7.5617569866  W2        4503            0.0000000000
     13270      4424  TIP3      OH2             7.2482603705      -34.4757871127       15.8324569866  W2        4504            0.0000000000
     13271      4424  TIP3      H1              7.3672903705      -33.9022471127       16.5894969866  W2        4504            0.0000000000
     13272      4424  TIP3      H2              7.9037203705      -35.1638471127       15.9472369866  W2        4504            0.0000000000
     13273      4425  TIP3      OH2             7.5962903705      -38.3807571127        7.5859069866  W2        4505            0.0000000000
     13274      4425  TIP3      H1              7.2496403705      -37.7636971127        8.2303369866  W2        4505            0.0000000000
     13275      4425  TIP3      H2              8.2549803705      -37.8801871127        7.1044569866  W2        4505            0.0000000000
     13276      4426  TIP3      OH2             4.5195503705      -24.0157371127        4.6573969866  W2        4506            0.0000000000
     13277      4426  TIP3      H1              4.6804203705      -23.2159871127        4.1566569866  W2        4506            0.0000000000
     13278      4426  TIP3      H2              4.3223303705      -23.7091371127        5.5424569866  W2        4506            0.0000000000
     13279      4427  TIP3      OH2             3.2539903705      -37.3178171127        4.2731569866  W2        4507            0.0000000000
     13280      4427  TIP3      H1              3.1704703705      -36.4295071127        4.6197969866  W2        4507            0.0000000000
     13281      4427  TIP3      H2              4.1440203705      -37.5831471127        4.5048369866  W2        4507            0.0000000000
     13282      4428  TIP3      OH2            13.4528403705      -36.5687571127       16.6674269866  W2        4508            0.0000000000
     13283      4428  TIP3      H1             12.5364203705      -36.3065871127       16.5797969866  W2        4508            0.0000000000
     13284      4428  TIP3      H2             13.7883403705      -36.5718571127       15.7709569866  W2        4508            0.0000000000
     13285      4429  TIP3      OH2            12.0549403705      -32.8186571127       10.7631569866  W2        4509            0.0000000000
     13286      4429  TIP3      H1             11.2573803705      -33.2336371127       10.4346569866  W2        4509            0.0000000000
     13287      4429  TIP3      H2             12.5000503705      -33.5092871127       11.2542069866  W2        4509            0.0000000000
     13288      4430  TIP3      OH2             1.5125203705      -26.8905971127        3.3336069866  W2        4510            0.0000000000
     13289      4430  TIP3      H1              2.1046703705      -26.1911171127        3.6098469866  W2        4510            0.0000000000
     13290      4430  TIP3      H2              1.9718203705      -27.3236471127        2.6140669866  W2        4510            0.0000000000
     13291      4431  TIP3      OH2            -0.1715596295      -34.2262971127        2.4495469866  W2        4511            0.0000000000
     13292      4431  TIP3      H1             -0.2162996295      -33.2869871127        2.6282469866  W2        4511            0.0000000000
     13293      4431  TIP3      H2             -1.0592396295      -34.4618071127        2.1797569866  W2        4511            0.0000000000
     13294      4432  TIP3      OH2            13.1414003705      -23.5624071127       12.3855069866  W2        4512            0.0000000000
     13295      4432  TIP3      H1             12.9858303705      -22.8839671127       11.7284369866  W2        4512            0.0000000000
     13296      4432  TIP3      H2             14.0740403705      -23.4904771127       12.5885669866  W2        4512            0.0000000000
     13297      4433  TIP3      OH2             0.6366403705      -39.4446371127       11.1226469866  W2        4513            0.0000000000
     13298      4433  TIP3      H1              0.4076203705      -39.3853871127       10.1951469866  W2        4513            0.0000000000
     13299      4433  TIP3      H2              0.1939803705      -40.2360871127       11.4290569866  W2        4513            0.0000000000
     13300      4434  TIP3      OH2            -0.4330296295      -25.5039271127        7.2832269866  W2        4514            0.0000000000
     13301      4434  TIP3      H1             -1.2651696295      -25.0316571127        7.3103669866  W2        4514            0.0000000000
     13302      4434  TIP3      H2              0.1128003705      -24.9941671127        6.6845369866  W2        4514            0.0000000000
     13303      4435  TIP3      OH2             7.5446403705      -24.4640571127        1.6086269866  W2        4517            0.0000000000
     13304      4435  TIP3      H1              6.9007403705      -25.0951971127        1.9299969866  W2        4517            0.0000000000
     13305      4435  TIP3      H2              8.3064703705      -24.9952571127        1.3769769866  W2        4517            0.0000000000
     13306      4436  TIP3      OH2            12.1489303705      -24.6470671127        1.8424269866  W2        4519            0.0000000000
     13307      4436  TIP3      H1             12.4319703705      -25.4415471127        2.2951169866  W2        4519            0.0000000000
     13308      4436  TIP3      H2             12.8887203705      -24.4139671127        1.2815369866  W2        4519            0.0000000000
     13309      4437  TIP3      OH2             3.1036603705      -28.7375771127        1.6999169866  W2        4521            0.0000000000
     13310      4437  TIP3      H1              3.1680703705      -29.5316171127        2.2305569866  W2        4521            0.0000000000
     13311      4437  TIP3      H2              3.7565803705      -28.8562971127        1.0101169866  W2        4521            0.0000000000
     13312      4438  TIP3      OH2             8.4560003705      -27.6904071127        1.4357169866  W2        4523            0.0000000000
     13313      4438  TIP3      H1              8.1874103705      -27.5101971127        2.3366069866  W2        4523            0.0000000000
     13314      4438  TIP3      H2              8.2495603705      -28.6157871127        1.3042969866  W2        4523            0.0000000000
     13315      4439  TIP3      OH2            11.1524203705      -29.1956071127       16.3833269866  W2        4524            0.0000000000
     13316      4439  TIP3      H1             11.8979003705      -28.6072371127       16.2637269866  W2        4524            0.0000000000
     13317      4439  TIP3      H2             10.3951003705      -28.6136371127       16.4466369866  W2        4524            0.0000000000
     13318      4440  TIP3      OH2             4.2530403705      -30.7649571127        4.0057169866  W2        4526            0.0000000000
     13319      4440  TIP3      H1              3.7932403705      -31.2491271127        4.6915669866  W2        4526            0.0000000000
     13320      4440  TIP3      H2              4.5079103705      -31.4334171127        3.3697669866  W2        4526            0.0000000000
     13321      4441  TIP3      OH2             3.5419703705      -32.8722471127       16.3616769866  W2        4527            0.0000000000
     13322      4441  TIP3      H1              2.9235803705      -32.1975871127       16.6421469866  W2        4527            0.0000000000
     13323      4441  TIP3      H2              3.8860903705      -32.5508571127       15.5282969866  W2        4527            0.0000000000
     13324      4442  TIP3      OH2             5.3240803705      -32.5217771127        2.2680369866  W2        4528            0.0000000000
     13325      4442  TIP3      H1              5.1435803705      -32.6766571127        1.3408669866  W2        4528            0.0000000000
     13326      4442  TIP3      H2              6.2741303705      -32.4139071127        2.3128269866  W2        4528            0.0000000000
     13327      4443  TIP3      OH2            14.7139103705      -30.1673571127        1.7138469866  W2        4530            0.0000000000
     13328      4443  TIP3      H1             14.4403903705      -30.5918071127        0.9006769866  W2        4530            0.0000000000
     13329      4443  TIP3      H2             14.7533203705      -29.2359071127        1.4968869866  W2        4530            0.0000000000
     13330      4444  TIP3      OH2             3.8813403705      -35.5171671127       17.4439869866  W2        4531            0.0000000000
     13331      4444  TIP3      H1              4.0314303705      -36.2460371127       16.8419569866  W2        4531            0.0000000000
     13332      4444  TIP3      H2              3.8835803705      -34.7399971127       16.8852069866  W2        4531            0.0000000000
     13333      4445  TIP3      OH2             4.2939103705      -37.1475871127       14.9367269866  W2        4532            0.0000000000
     13334      4445  TIP3      H1              4.8296603705      -36.6959171127       14.2846569866  W2        4532            0.0000000000
     13335      4445  TIP3      H2              3.4418703705      -37.2556071127       14.5141369866  W2        4532            0.0000000000
     13336      4446  TIP3      OH2             5.8757503705      -31.7079671127       15.1762469866  W2        4533            0.0000000000
     13337      4446  TIP3      H1              6.6262303705      -31.8642171127       14.6030269866  W2        4533            0.0000000000
     13338      4446  TIP3      H2              5.5365803705      -30.8563071127       14.9007969866  W2        4533            0.0000000000
     13339      4447  TIP3      OH2             5.0994603705      -39.6910171127       15.3680869866  W2        4537            0.0000000000
     13340      4447  TIP3      H1              5.0014203705      -38.7446971127       15.2627069866  W2        4537            0.0000000000
     13341      4447  TIP3      H2              4.3570803705      -40.0636371127       14.8924369866  W2        4537            0.0000000000
     13342      4448  TIP3      OH2             5.2212503705      -21.8314071127        3.2693969866  W2        4544            0.0000000000
     13343      4448  TIP3      H1              6.1543203705      -21.6735371127        3.4132369866  W2        4544            0.0000000000
     13344      4448  TIP3      H2              4.9571303705      -21.1561071127        2.6445469866  W2        4544            0.0000000000
     13345      4449  TIP3      OH2            -1.2102596295      -27.1950271127        2.7522069866  W2        4545            0.0000000000
     13346      4449  TIP3      H1             -0.2963396295      -27.1161371127        3.0255969866  W2        4545            0.0000000000
     13347      4449  TIP3      H2             -1.2029496295      -27.8820671127        2.0857669866  W2        4545            0.0000000000
     13348      4450  TIP3      OH2            -2.5611996295      -21.8021771127        7.8295969866  W2        4546            0.0000000000
     13349      4450  TIP3      H1             -3.2084896295      -22.2640071127        7.2967169866  W2        4546            0.0000000000
     13350      4450  TIP3      H2             -2.2067396295      -22.4738471127        8.4122169866  W2        4546            0.0000000000
     13351      4451  TIP3      OH2            -1.6912796295      -23.7214771127        9.6342169866  W2        4547            0.0000000000
     13352      4451  TIP3      H1             -2.0255996295      -24.6017471127        9.8062369866  W2        4547            0.0000000000
     13353      4451  TIP3      H2             -1.4690396295      -23.3759771127       10.4987769866  W2        4547            0.0000000000
     13354      4452  TIP3      OH2            15.8572003705      -22.9118371127       12.6146969866  W2        4548            0.0000000000
     13355      4452  TIP3      H1             15.8358703705      -22.7269971127       13.5536369866  W2        4548            0.0000000000
     13356      4452  TIP3      H2             16.5478203705      -22.3434371127       12.2738369866  W2        4548            0.0000000000
     13357      4453  TIP3      OH2            15.4204903705      -23.3447271127       15.5366069866  W2        4549            0.0000000000
     13358      4453  TIP3      H1             14.9333603705      -24.0803171127       15.1653469866  W2        4549            0.0000000000
     13359      4453  TIP3      H2             15.9697603705      -23.7383371127       16.2145469866  W2        4549            0.0000000000
     13360      4454  TIP3      OH2            15.1721903705      -29.2985471127        5.6888869866  W2        4551            0.0000000000
     13361      4454  TIP3      H1             16.0223303705      -28.8774571127        5.8160469866  W2        4551            0.0000000000
     13362      4454  TIP3      H2             15.1777003705      -30.0385371127        6.2960269866  W2        4551            0.0000000000
     13363      4455  TIP3      OH2            15.5667503705      -31.2448071127        7.5124569866  W2        4552            0.0000000000
     13364      4455  TIP3      H1             14.8402103705      -31.7245471127        7.9102169866  W2        4552            0.0000000000
     13365      4455  TIP3      H2             16.1480803705      -31.0393371127        8.2446169866  W2        4552            0.0000000000
     13366      4456  TIP3      OH2            15.3258703705      -28.4600571127       12.4602169866  W2        4553            0.0000000000
     13367      4456  TIP3      H1             16.1592903705      -28.8380571127       12.1795769866  W2        4553            0.0000000000
     13368      4456  TIP3      H2             15.4379003705      -27.5169371127       12.3411269866  W2        4553            0.0000000000
     13369      4457  TIP3      OH2            13.8121003705      -25.5823071127       14.7670569866  W2        4554            0.0000000000
     13370      4457  TIP3      H1             13.1646303705      -25.2571571127       15.3925769866  W2        4554            0.0000000000
     13371      4457  TIP3      H2             13.2945003705      -26.0225371127       14.0928869866  W2        4554            0.0000000000
     13372      4458  TIP3      OH2            15.8350603705      -31.3439571127        3.9035869866  W2        4555            0.0000000000
     13373      4458  TIP3      H1             15.3131703705      -30.9875471127        3.1846769866  W2        4555            0.0000000000
     13374      4458  TIP3      H2             15.8019803705      -30.6691771127        4.5816769866  W2        4555            0.0000000000
     13375      4459  TIP3      OH2            14.1839603705      -34.1043971127        2.4542969866  W2        4556            0.0000000000
     13376      4459  TIP3      H1             14.2804003705      -33.4376971127        1.7742669866  W2        4556            0.0000000000
     13377      4459  TIP3      H2             14.0439203705      -34.9197671127        1.9728469866  W2        4556            0.0000000000
     13378      4460  TIP3      OH2            13.3534303705      -32.7241571127        8.0753269866  W2        4557            0.0000000000
     13379      4460  TIP3      H1             13.2033103705      -33.6692971127        8.0551069866  W2        4557            0.0000000000
     13380      4460  TIP3      H2             12.9998803705      -32.4430171127        8.9192369866  W2        4557            0.0000000000
     13381      4461  TIP3      OH2            -1.6113296295      -30.6459371127       12.0857069866  W2        4558            0.0000000000
     13382      4461  TIP3      H1             -1.4270396295      -30.7277671127       11.1499969866  W2        4558            0.0000000000
     13383      4461  TIP3      H2             -0.7620396295      -30.7702371127       12.5093469866  W2        4558            0.0000000000
     13384      4462  TIP3      OH2            13.4313403705      -36.6964171127        1.5718469866  W2        4561            0.0000000000
     13385      4462  TIP3      H1             14.0419203705      -37.0677371127        2.2086669866  W2        4561            0.0000000000
     13386      4462  TIP3      H2             12.5944903705      -37.1177271127        1.7678469866  W2        4561            0.0000000000
     13387      4463  TIP3      OH2            13.0639103705      -35.1415771127        6.5378369866  W2        4562            0.0000000000
     13388      4463  TIP3      H1             13.3436203705      -36.0485371127        6.6620069866  W2        4562            0.0000000000
     13389      4463  TIP3      H2             13.8230803705      -34.7074271127        6.1487569866  W2        4562            0.0000000000
     13390      4464  TIP3      OH2            13.6757403705      -34.5598371127       11.9737269866  W2        4563            0.0000000000
     13391      4464  TIP3      H1             14.6085403705      -34.3478471127       11.9393269866  W2        4563            0.0000000000
     13392      4464  TIP3      H2             13.4404903705      -34.4586271127       12.8960269866  W2        4563            0.0000000000
     13393      4465  TIP3      OH2            13.7049303705      -33.8233071127       14.7496669866  W2        4564            0.0000000000
     13394      4465  TIP3      H1             12.8620603705      -33.5552671127       15.1156469866  W2        4564            0.0000000000
     13395      4465  TIP3      H2             14.1473603705      -33.0011171127       14.5387769866  W2        4564            0.0000000000
     13396      4466  TIP3      OH2            13.6773903705      -37.8786471127        6.5860369866  W2        4567            0.0000000000
     13397      4466  TIP3      H1             13.8598903705      -38.3274971127        7.4115369866  W2        4567            0.0000000000
     13398      4466  TIP3      H2             13.0776803705      -38.4632071127        6.1224969866  W2        4567            0.0000000000
     13399      4467  TIP3      OH2            -0.7925996295      -37.0632771127       11.1178769866  W2        4568            0.0000000000
     13400      4467  TIP3      H1             -0.3474396295      -37.8550271127       11.4198469866  W2        4568            0.0000000000
     13401      4467  TIP3      H2             -0.3262996295      -36.3467571127       11.5484369866  W2        4568            0.0000000000
     13402      4468  TIP3      OH2            -2.4885696295      -34.0639771127       12.1868969866  W2        4569            0.0000000000
     13403      4468  TIP3      H1             -1.9965896295      -34.2849271127       11.3960969866  W2        4569            0.0000000000
     13404      4468  TIP3      H2             -2.1264796295      -33.2236371127       12.4678469866  W2        4569            0.0000000000
     13405      4469  TIP3      OH2            15.5440103705      -37.8108371127        3.1140669866  W2        4571            0.0000000000
     13406      4469  TIP3      H1             15.9562703705      -38.5322671127        2.6388669866  W2        4571            0.0000000000
     13407      4469  TIP3      H2             16.2256603705      -37.1413771127        3.1724969866  W2        4571            0.0000000000
     13408      4470  TIP3      OH2            -2.1749196295      -37.8060671127        6.2411369866  W2        4572            0.0000000000
     13409      4470  TIP3      H1             -3.1000796295      -37.5974071127        6.1116869866  W2        4572            0.0000000000
     13410      4470  TIP3      H2             -1.7209296295      -37.3219871127        5.5513669866  W2        4572            0.0000000000
     13411      4471  TIP3      OH2            12.5958003705      -22.8218971127        8.1868769866  W2        4573            0.0000000000
     13412      4471  TIP3      H1             13.2480903705      -23.1696871127        7.5787869866  W2        4573            0.0000000000
     13413      4471  TIP3      H2             13.1061803705      -22.3335771127        8.8328469866  W2        4573            0.0000000000
     13414      4472  TIP3      OH2            -2.2113796295      -39.0681671127       14.5853869866  W2        4574            0.0000000000
     13415      4472  TIP3      H1             -2.8763296295      -39.3141371127       15.2284769866  W2        4574            0.0000000000
     13416      4472  TIP3      H2             -2.6542496295      -38.4461271127       14.0081869866  W2        4574            0.0000000000
     13417      4473  TIP3      OH2             2.9348403705      -24.9186371127       14.9883669866  W2        4576            0.0000000000
     13418      4473  TIP3      H1              2.5099503705      -24.1087871127       14.7058269866  W2        4576            0.0000000000
     13419      4473  TIP3      H2              3.8391203705      -24.8332271127       14.6863469866  W2        4576            0.0000000000
     13420      4474  TIP3      OH2             9.5910203705      -22.2337471127       17.1918769866  W2        4578            0.0000000000
     13421      4474  TIP3      H1             10.2679103705      -22.8665171127       16.9517969866  W2        4578            0.0000000000
     13422      4474  TIP3      H2              9.9129003705      -21.8326971127       17.9992069866  W2        4578            0.0000000000
     13423      4475  TIP3      OH2            14.5084003705      -39.6441971127       16.2713769866  W2        4579            0.0000000000
     13424      4475  TIP3      H1             13.6957503705      -39.3191671127       15.8838469866  W2        4579            0.0000000000
     13425      4475  TIP3      H2             14.7412503705      -40.4043471127       15.7382869866  W2        4579            0.0000000000
     13426      4476  TIP3      OH2             0.3365103705      -21.6622471127       15.0358969866  W2        4580            0.0000000000
     13427      4476  TIP3      H1             -0.3838496295      -21.2221471127       14.5846669866  W2        4580            0.0000000000
     13428      4476  TIP3      H2             -0.0290896295      -21.9127771127       15.8842969866  W2        4580            0.0000000000
     13429      4477  TIP3      OH2             2.8037703705      -22.0618571127       14.0656169866  W2        4581            0.0000000000
     13430      4477  TIP3      H1              1.9389903705      -21.9900071127       14.4696269866  W2        4581            0.0000000000
     13431      4477  TIP3      H2              2.7486703705      -21.5151271127       13.2818669866  W2        4581            0.0000000000
     13432      4478  TIP3      OH2             7.5143303705      -22.1739671127       13.2412169866  W2        4582            0.0000000000
     13433      4478  TIP3      H1              7.0577303705      -21.6449971127       12.5870569866  W2        4582            0.0000000000
     13434      4478  TIP3      H2              7.6771303705      -21.5708271127       13.9664469866  W2        4582            0.0000000000
     13435      4479  TIP3      OH2             9.8419603705      -23.2960071127       14.1862469866  W2        4583            0.0000000000
     13436      4479  TIP3      H1              8.9373303705      -23.1309871127       13.9204569866  W2        4583            0.0000000000
     13437      4479  TIP3      H2             10.2708203705      -22.4427871127       14.1205869866  W2        4583            0.0000000000
     13438      4480  TIP3      OH2            12.4461503705      -21.7260971127       14.4810269866  W2        4584            0.0000000000
     13439      4480  TIP3      H1             12.2643503705      -20.8102071127       14.2705169866  W2        4584            0.0000000000
     13440      4480  TIP3      H2             12.6229303705      -22.1363871127       13.6344869866  W2        4584            0.0000000000
     13441      4481  TIP3      OH2            -0.2486796295      -23.0389971127       11.9460769866  W2        4585            0.0000000000
     13442      4481  TIP3      H1             -0.2670796295      -23.4644871127       12.8033069866  W2        4585            0.0000000000
     13443      4481  TIP3      H2              0.5561103705      -23.3574971127       11.5372969866  W2        4585            0.0000000000
     13444      4482  TIP3      OH2             1.8926303705      -24.3291271127       10.6010669866  W2        4586            0.0000000000
     13445      4482  TIP3      H1              1.6737003705      -25.2453871127       10.7706669866  W2        4586            0.0000000000
     13446      4482  TIP3      H2              2.7168503705      -24.1890871127       11.0672069866  W2        4586            0.0000000000
     13447      4483  TIP3      OH2             4.4298803705      -23.8591971127       11.4498669866  W2        4587            0.0000000000
     13448      4483  TIP3      H1              4.6424503705      -24.7472971127       11.1629569866  W2        4587            0.0000000000
     13449      4483  TIP3      H2              4.4943903705      -23.8934271127       12.4042669866  W2        4587            0.0000000000
     13450      4484  TIP3      OH2             7.9382503705      -38.1951371127       10.5941969866  W2        4588            0.0000000000
     13451      4484  TIP3      H1              7.2639303705      -38.8245771127       10.8497769866  W2        4588            0.0000000000
     13452      4484  TIP3      H2              8.5021703705      -38.6792471127        9.9909869866  W2        4588            0.0000000000
     13453      4485  TIP3      OH2            13.0809703705      -40.0877371127       10.7069069866  W2        4589            0.0000000000
     13454      4485  TIP3      H1             13.6847303705      -39.5401971127       10.2050069866  W2        4589            0.0000000000
     13455      4485  TIP3      H2             12.2111703705      -39.7686971127       10.4663169866  W2        4589            0.0000000000
     13456      4486  TIP3      OH2            14.8080103705      -38.9488671127        9.0399969866  W2        4590            0.0000000000
     13457      4486  TIP3      H1             15.4197603705      -39.4632971127        8.5133569866  W2        4590            0.0000000000
     13458      4486  TIP3      H2             15.1903503705      -38.0716571127        9.0634369866  W2        4590            0.0000000000
     13459      4487  TIP3      OH2             0.2650003705      -39.5611071127        8.4161869866  W2        4591            0.0000000000
     13460      4487  TIP3      H1             -0.5120196295      -39.7956171127        7.9087769866  W2        4591            0.0000000000
     13461      4487  TIP3      H2              0.7953603705      -40.3578971127        8.4249869866  W2        4591            0.0000000000
     13462      4488  TIP3      OH2            -0.8986596295      -39.7632971127        4.2197969866  W2        4592            0.0000000000
     13463      4488  TIP3      H1             -0.4595896295      -39.1522471127        3.6281469866  W2        4592            0.0000000000
     13464      4488  TIP3      H2             -1.5324196295      -39.2248871127        4.6937969866  W2        4592            0.0000000000
     13465      4489  TIP3      OH2             4.8442603705      -39.6343971127        8.2294969866  W2        4593            0.0000000000
     13466      4489  TIP3      H1              5.7186003705      -39.2459671127        8.1999269866  W2        4593            0.0000000000
     13467      4489  TIP3      H2              4.7083403705      -39.8496171127        9.1522169866  W2        4593            0.0000000000
     13468      4490  TIP3      OH2            10.4011003705      -39.6044171127        9.8786669866  W2        4594            0.0000000000
     13469      4490  TIP3      H1             10.4772603705      -39.5092571127        8.9292669866  W2        4594            0.0000000000
     13470      4490  TIP3      H2             10.1260203705      -40.5121271127       10.0075769866  W2        4594            0.0000000000
     13471      4491  TIP3      OH2            11.7543603705      -39.5786371127        5.5711669866  W2        4595            0.0000000000
     13472      4491  TIP3      H1             11.0514703705      -38.9637171127        5.3613069866  W2        4595            0.0000000000
     13473      4491  TIP3      H2             11.3095003705      -40.4159671127        5.7022569866  W2        4595            0.0000000000
     13474      4492  TIP3      OH2            -0.9977096295      -23.8150771127        5.1173069866  W2        4596            0.0000000000
     13475      4492  TIP3      H1             -1.6827196295      -23.8531871127        4.4498169866  W2        4596            0.0000000000
     13476      4492  TIP3      H2             -0.9939896295      -22.9023171127        5.4055169866  W2        4596            0.0000000000
     13477      4493  TIP3      OH2             0.9622503705      -37.8471471127        2.6622069866  W2        4597            0.0000000000
     13478      4493  TIP3      H1              1.4535903705      -38.4769071127        2.1347569866  W2        4597            0.0000000000
     13479      4493  TIP3      H2              1.5858803705      -37.5512071127        3.3253269866  W2        4597            0.0000000000
     13480      4494  TIP3      OH2             5.9882603705      -37.5539971127        5.1192569866  W2        4598            0.0000000000
     13481      4494  TIP3      H1              6.1663903705      -38.2006771127        5.8021169866  W2        4598            0.0000000000
     13482      4494  TIP3      H2              5.9348803705      -36.7202271127        5.5863669866  W2        4598            0.0000000000
     13483      4495  TIP3      OH2             7.8666403705      -22.6055871127        3.5149269866  W2        4599            0.0000000000
     13484      4495  TIP3      H1              8.7326603705      -22.2388471127        3.3367469866  W2        4599            0.0000000000
     13485      4495  TIP3      H2              7.6199203705      -23.0447871127        2.7010069866  W2        4599            0.0000000000
     13486      4496  TIP3      OH2            14.5756003705      -23.0425571127        6.1940369866  W2        4600            0.0000000000
     13487      4496  TIP3      H1             14.3813103705      -23.7903471127        5.6289969866  W2        4600            0.0000000000
     13488      4496  TIP3      H2             14.5366103705      -22.2845471127        5.6108269866  W2        4600            0.0000000000
     13489      4497  TIP3      OH2             0.8204103705      -22.8949971127        2.1425169866  W2        4603            0.0000000000
     13490      4497  TIP3      H1              0.5528703705      -22.6087071127        3.0158269866  W2        4603            0.0000000000
     13491      4497  TIP3      H2              1.5916703705      -23.4410771127        2.2947669866  W2        4603            0.0000000000
     13492      4498  TIP3      OH2            28.1992603705      -30.4048771127        8.3749369866  W2        4606            0.0000000000
     13493      4498  TIP3      H1             28.2883703705      -29.4610571127        8.2426469866  W2        4606            0.0000000000
     13494      4498  TIP3      H2             27.5610203705      -30.6802371127        7.7168769866  W2        4606            0.0000000000
     13495      4499  TIP3      OH2            27.1323903705      -31.1498071127       11.7937569866  W2        4607            0.0000000000
     13496      4499  TIP3      H1             27.0941403705      -31.7961771127       12.4987169866  W2        4607            0.0000000000
     13497      4499  TIP3      H2             26.8100403705      -31.6163671127       11.0226269866  W2        4607            0.0000000000
     13498      4500  TIP3      OH2            19.5008903705      -31.5355971127       13.3867469866  W2        4608            0.0000000000
     13499      4500  TIP3      H1             19.5421003705      -32.1612671127       14.1099869866  W2        4608            0.0000000000
     13500      4500  TIP3      H2             20.2036603705      -30.9117371127       13.5687869866  W2        4608            0.0000000000
     13501      4501  TIP3      OH2            30.8384103705      -28.2107671127       10.0952669866  W2        4609            0.0000000000
     13502      4501  TIP3      H1             30.3976803705      -28.9311671127       10.5458269866  W2        4609            0.0000000000
     13503      4501  TIP3      H2             30.8253803705      -27.4900471127       10.7250369866  W2        4609            0.0000000000
     13504      4502  TIP3      OH2            20.4242003705      -27.0857071127       11.9216569866  W2        4610            0.0000000000
     13505      4502  TIP3      H1             20.0547203705      -27.8876571127       11.5520869866  W2        4610            0.0000000000
     13506      4502  TIP3      H2             21.3653103705      -27.2542171127       11.9679969866  W2        4610            0.0000000000
     13507      4503  TIP3      OH2            17.0342503705      -33.4254471127        7.3145369866  W2        4611            0.0000000000
     13508      4503  TIP3      H1             16.5865903705      -32.5795771127        7.2961869866  W2        4611            0.0000000000
     13509      4503  TIP3      H2             16.4733703705      -34.0050271127        6.7990469866  W2        4611            0.0000000000
     13510      4504  TIP3      OH2            17.7448603705      -31.2634871127        9.4403369866  W2        4612            0.0000000000
     13511      4504  TIP3      H1             17.9582103705      -32.0333271127        9.9676369866  W2        4612            0.0000000000
     13512      4504  TIP3      H2             18.4826203705      -31.1738171127        8.8370969866  W2        4612            0.0000000000
     13513      4505  TIP3      OH2            27.9499603705      -23.1065971127       10.3073069866  W2        4613            0.0000000000
     13514      4505  TIP3      H1             28.5696003705      -23.7831271127       10.0342269866  W2        4613            0.0000000000
     13515      4505  TIP3      H2             27.7417003705      -23.3245171127       11.2157969866  W2        4613            0.0000000000
     13516      4506  TIP3      OH2            25.5218303705      -28.7176671127       12.1998569866  W2        4614            0.0000000000
     13517      4506  TIP3      H1             25.8256203705      -29.4035271127       11.6052669866  W2        4614            0.0000000000
     13518      4506  TIP3      H2             26.2432303705      -28.5987971127       12.8176569866  W2        4614            0.0000000000
     13519      4507  TIP3      OH2            34.1848103705      -37.1161371127       13.0604769866  W2        4615            0.0000000000
     13520      4507  TIP3      H1             34.2340303705      -36.5060171127       13.7963869866  W2        4615            0.0000000000
     13521      4507  TIP3      H2             34.6103203705      -36.6550471127       12.3375869866  W2        4615            0.0000000000
     13522      4508  TIP3      OH2            28.6625303705      -34.3234271127       12.5273369866  W2        4616            0.0000000000
     13523      4508  TIP3      H1             28.8051203705      -35.2697271127       12.5474969866  W2        4616            0.0000000000
     13524      4508  TIP3      H2             28.5564303705      -34.1164471127       11.5988269866  W2        4616            0.0000000000
     13525      4509  TIP3      OH2            21.8173603705      -36.2217871127        9.7998169866  W2        4617            0.0000000000
     13526      4509  TIP3      H1             21.8604703705      -35.3619371127        9.3814469866  W2        4617            0.0000000000
     13527      4509  TIP3      H2             21.3597703705      -36.7743171127        9.1661369866  W2        4617            0.0000000000
     13528      4510  TIP3      OH2            29.5396303705      -36.0912271127        8.2006469866  W2        4618            0.0000000000
     13529      4510  TIP3      H1             30.1860603705      -36.4199071127        8.8254069866  W2        4618            0.0000000000
     13530      4510  TIP3      H2             30.0495703705      -35.5733271127        7.5777869866  W2        4618            0.0000000000
     13531      4511  TIP3      OH2            18.4375103705      -33.8252071127       10.5619569866  W2        4619            0.0000000000
     13532      4511  TIP3      H1             19.0911703705      -34.3750371127       10.9939669866  W2        4619            0.0000000000
     13533      4511  TIP3      H2             18.4614403705      -34.0993071127        9.6451569866  W2        4619            0.0000000000
     13534      4512  TIP3      OH2            23.5939603705      -32.2750771127        9.7771069866  W2        4620            0.0000000000
     13535      4512  TIP3      H1             24.2100603705      -32.8015371127       10.2865069866  W2        4620            0.0000000000
     13536      4512  TIP3      H2             23.0078403705      -32.9152071127        9.3734669866  W2        4620            0.0000000000
     13537      4513  TIP3      OH2            34.5762703705      -35.6382171127       15.2964569866  W2        4621            0.0000000000
     13538      4513  TIP3      H1             33.8877303705      -34.9801471127       15.2011169866  W2        4621            0.0000000000
     13539      4513  TIP3      H2             34.5917303705      -35.8354271127       16.2329969866  W2        4621            0.0000000000
     13540      4514  TIP3      OH2            20.6275503705      -37.3039471127       13.8738969866  W2        4622            0.0000000000
     13541      4514  TIP3      H1             20.4087203705      -36.7738871127       13.1074969866  W2        4622            0.0000000000
     13542      4514  TIP3      H2             19.9596403705      -37.0773971127       14.5210369866  W2        4622            0.0000000000
     13543      4515  TIP3      OH2            27.9965303705      -27.8038371127        7.4178069866  W2        4623            0.0000000000
     13544      4515  TIP3      H1             27.7010403705      -28.1266071127        6.5664969866  W2        4623            0.0000000000
     13545      4515  TIP3      H2             27.6723103705      -26.9041671127        7.4590669866  W2        4623            0.0000000000
     13546      4516  TIP3      OH2            23.1966903705      -29.6283771127       14.1612669866  W2        4624            0.0000000000
     13547      4516  TIP3      H1             22.4566003705      -29.0302271127       14.2647869866  W2        4624            0.0000000000
     13548      4516  TIP3      H2             23.9106403705      -29.0744171127       13.8456269866  W2        4624            0.0000000000
     13549      4517  TIP3      OH2            31.3034703705      -36.8002971127       10.1812369866  W2        4625            0.0000000000
     13550      4517  TIP3      H1             31.0882703705      -37.5659571127       10.7138369866  W2        4625            0.0000000000
     13551      4517  TIP3      H2             31.9592103705      -36.3278371127       10.6940869866  W2        4625            0.0000000000
     13552      4518  TIP3      OH2            20.2212803705      -35.4117671127       11.8261169866  W2        4626            0.0000000000
     13553      4518  TIP3      H1             20.8349103705      -34.7790071127       12.1993569866  W2        4626            0.0000000000
     13554      4518  TIP3      H2             20.7333503705      -35.8842671127       11.1698069866  W2        4626            0.0000000000
     13555      4519  TIP3      OH2            21.6041203705      -27.6640771127       14.9484169866  W2        4627            0.0000000000
     13556      4519  TIP3      H1             21.5988803705      -26.7847271127       14.5703469866  W2        4627            0.0000000000
     13557      4519  TIP3      H2             20.7505303705      -27.7476671127       15.3734069866  W2        4627            0.0000000000
     13558      4520  TIP3      OH2            17.7252103705      -27.9932871127        5.7303469866  W2        4628            0.0000000000
     13559      4520  TIP3      H1             17.4533003705      -27.7641871127        4.8416369866  W2        4628            0.0000000000
     13560      4520  TIP3      H2             17.7707803705      -27.1554071127        6.1908769866  W2        4628            0.0000000000
     13561      4521  TIP3      OH2            31.3501803705      -26.3716971127       12.4431969866  W2        4629            0.0000000000
     13562      4521  TIP3      H1             30.4085503705      -26.3133071127       12.6048869866  W2        4629            0.0000000000
     13563      4521  TIP3      H2             31.6267903705      -25.4656471127       12.3061669866  W2        4629            0.0000000000
     13564      4522  TIP3      OH2            31.6508803705      -38.0851671127       13.8605869866  W2        4630            0.0000000000
     13565      4522  TIP3      H1             30.9148003705      -37.4744571127       13.8227169866  W2        4630            0.0000000000
     13566      4522  TIP3      H2             32.3342803705      -37.6702671127       13.3342269866  W2        4630            0.0000000000
     13567      4523  TIP3      OH2            24.6540203705      -39.9984371127       11.3263869866  W2        4631            0.0000000000
     13568      4523  TIP3      H1             24.5364403705      -40.9468371127       11.2722169866  W2        4631            0.0000000000
     13569      4523  TIP3      H2             23.7990303705      -39.6658271127       11.5994969866  W2        4631            0.0000000000
     13570      4524  TIP3      OH2            29.6023003705      -24.5903471127        9.0683569866  W2        4632            0.0000000000
     13571      4524  TIP3      H1             30.0275303705      -25.2975571127        8.5833169866  W2        4632            0.0000000000
     13572      4524  TIP3      H2             29.9193003705      -23.7890771127        8.6515769866  W2        4632            0.0000000000
     13573      4525  TIP3      OH2            30.7619503705      -26.6894971127        7.5770169866  W2        4633            0.0000000000
     13574      4525  TIP3      H1             30.5044303705      -27.3794871127        6.9656069866  W2        4633            0.0000000000
     13575      4525  TIP3      H2             30.8330303705      -27.1323771127        8.4226069866  W2        4633            0.0000000000
     13576      4526  TIP3      OH2            32.4479703705      -28.1228271127       16.0543669866  W2        4634            0.0000000000
     13577      4526  TIP3      H1             32.5876003705      -28.7145771127       15.3150669866  W2        4634            0.0000000000
     13578      4526  TIP3      H2             32.6152503705      -27.2502371127       15.6982469866  W2        4634            0.0000000000
     13579      4527  TIP3      OH2            26.9205103705      -31.1608771127        5.8269669866  W2        4635            0.0000000000
     13580      4527  TIP3      H1             26.2090603705      -30.6259071127        5.4750169866  W2        4635            0.0000000000
     13581      4527  TIP3      H2             27.6114703705      -31.1056671127        5.1668569866  W2        4635            0.0000000000
     13582      4528  TIP3      OH2            26.9744303705      -32.7034471127        2.8654669866  W2        4636            0.0000000000
     13583      4528  TIP3      H1             27.6754203705      -32.6807571127        3.5168669866  W2        4636            0.0000000000
     13584      4528  TIP3      H2             27.2767203705      -33.3314771127        2.2093969866  W2        4636            0.0000000000
     13585      4529  TIP3      OH2            34.2899003705      -31.7830271127       14.1204069866  W2        4637            0.0000000000
     13586      4529  TIP3      H1             33.6373103705      -31.0884671127       14.2094969866  W2        4637            0.0000000000
     13587      4529  TIP3      H2             34.7549303705      -31.5729371127       13.3105669866  W2        4637            0.0000000000
     13588      4530  TIP3      OH2            30.3262803705      -30.9515471127        6.7785569866  W2        4638            0.0000000000
     13589      4530  TIP3      H1             29.5943803705      -30.7231771127        7.3516169866  W2        4638            0.0000000000
     13590      4530  TIP3      H2             30.7735003705      -31.6652771127        7.2333069866  W2        4638            0.0000000000
     13591      4531  TIP3      OH2            30.2236303705      -32.7772871127       15.8462569866  W2        4639            0.0000000000
     13592      4531  TIP3      H1             30.3035403705      -32.0138471127       16.4181069866  W2        4639            0.0000000000
     13593      4531  TIP3      H2             29.6224003705      -32.4980471127       15.1557669866  W2        4639            0.0000000000
     13594      4532  TIP3      OH2            21.9716503705      -30.3209271127        8.6610569866  W2        4640            0.0000000000
     13595      4532  TIP3      H1             21.6411703705      -30.6915871127        7.8427569866  W2        4640            0.0000000000
     13596      4532  TIP3      H2             22.5600603705      -30.9915271127        9.0078869866  W2        4640            0.0000000000
     13597      4533  TIP3      OH2            23.3384003705      -26.8928671127       11.3422769866  W2        4641            0.0000000000
     13598      4533  TIP3      H1             23.2435303705      -27.4715571127       10.5857369866  W2        4641            0.0000000000
     13599      4533  TIP3      H2             24.0677603705      -27.2642971127       11.8385569866  W2        4641            0.0000000000
     13600      4534  TIP3      OH2            22.3382003705      -31.5523671127       12.2945569866  W2        4642            0.0000000000
     13601      4534  TIP3      H1             22.9034503705      -31.4309471127       11.5316769866  W2        4642            0.0000000000
     13602      4534  TIP3      H2             22.6570903705      -30.9148671127       12.9334069866  W2        4642            0.0000000000
     13603      4535  TIP3      OH2            28.6474203705      -26.0491771127       13.0286069866  W2        4643            0.0000000000
     13604      4535  TIP3      H1             28.4070803705      -25.3868671127       13.6765269866  W2        4643            0.0000000000
     13605      4535  TIP3      H2             28.4492403705      -26.8836571127       13.4535669866  W2        4643            0.0000000000
     13606      4536  TIP3      OH2            23.2182703705      -27.1530971127       17.0117469866  W2        4644            0.0000000000
     13607      4536  TIP3      H1             22.9070203705      -26.3707771127       17.4670669866  W2        4644            0.0000000000
     13608      4536  TIP3      H2             22.5682903705      -27.3061871127       16.3259469866  W2        4644            0.0000000000
     13609      4537  TIP3      OH2            29.1972303705      -31.7892571127        4.4636769866  W2        4645            0.0000000000
     13610      4537  TIP3      H1             29.7767803705      -31.6392271127        5.2105669866  W2        4645            0.0000000000
     13611      4537  TIP3      H2             29.6112303705      -31.3185171127        3.7403169866  W2        4645            0.0000000000
     13612      4538  TIP3      OH2            20.1382603705      -30.9549871127       16.2403169866  W2        4646            0.0000000000
     13613      4538  TIP3      H1             20.2085803705      -30.3043071127       16.9388169866  W2        4646            0.0000000000
     13614      4538  TIP3      H2             19.2474803705      -30.8522371127       15.9054069866  W2        4646            0.0000000000
     13615      4539  TIP3      OH2            26.9237203705      -25.0524071127        7.8989869866  W2        4647            0.0000000000
     13616      4539  TIP3      H1             27.3974803705      -24.7567771127        8.6764069866  W2        4647            0.0000000000
     13617      4539  TIP3      H2             26.3606503705      -24.3142471127        7.6659469866  W2        4647            0.0000000000
     13618      4540  TIP3      OH2            32.8960703705      -40.0392171127        4.2766469866  W2        4649            0.0000000000
     13619      4540  TIP3      H1             31.9961403705      -39.9003171127        4.5717069866  W2        4649            0.0000000000
     13620      4540  TIP3      H2             33.1479103705      -39.2077571127        3.8748169866  W2        4649            0.0000000000
     13621      4541  TIP3      OH2            20.9619203705      -31.2514971127        6.2503369866  W2        4650            0.0000000000
     13622      4541  TIP3      H1             20.6700503705      -30.4833271127        5.7594669866  W2        4650            0.0000000000
     13623      4541  TIP3      H2             20.2874403705      -31.9108771127        6.0874769866  W2        4650            0.0000000000
     13624      4542  TIP3      OH2            34.0852103705      -25.6729771127        2.6530369866  W2        4651            0.0000000000
     13625      4542  TIP3      H1             34.1585603705      -24.7339571127        2.8235669866  W2        4651            0.0000000000
     13626      4542  TIP3      H2             34.9907203705      -25.9781171127        2.5967669866  W2        4651            0.0000000000
     13627      4543  TIP3      OH2            17.0549303705      -28.8885771127       15.0653169866  W2        4652            0.0000000000
     13628      4543  TIP3      H1             16.5537703705      -28.9166371127       14.2502869866  W2        4652            0.0000000000
     13629      4543  TIP3      H2             17.0603003705      -29.7942571127       15.3750469866  W2        4652            0.0000000000
     13630      4544  TIP3      OH2            16.8052003705      -26.1081971127       11.9493369866  W2        4653            0.0000000000
     13631      4544  TIP3      H1             17.7512603705      -26.2524971127       11.9302869866  W2        4653            0.0000000000
     13632      4544  TIP3      H2             16.6928303705      -25.3239171127       12.4864569866  W2        4653            0.0000000000
     13633      4545  TIP3      OH2            25.9814503705      -25.8683071127       16.5078469866  W2        4655            0.0000000000
     13634      4545  TIP3      H1             26.0689103705      -25.0418471127       16.9827569866  W2        4655            0.0000000000
     13635      4545  TIP3      H2             25.1179603705      -26.1979271127       16.7567769866  W2        4655            0.0000000000
     13636      4546  TIP3      OH2            26.3960303705      -22.0959371127        6.3139069866  W2        4656            0.0000000000
     13637      4546  TIP3      H1             26.3206303705      -22.2172171127        5.3674269866  W2        4656            0.0000000000
     13638      4546  TIP3      H2             26.4289003705      -21.1466671127        6.4323669866  W2        4656            0.0000000000
     13639      4547  TIP3      OH2            20.0494103705      -23.3072371127        8.0948069866  W2        4657            0.0000000000
     13640      4547  TIP3      H1             20.2014503705      -23.6551971127        8.9734569866  W2        4657            0.0000000000
     13641      4547  TIP3      H2             19.1984503705      -23.6635071127        7.8395269866  W2        4657            0.0000000000
     13642      4548  TIP3      OH2            29.4976303705      -22.9419171127        3.3161469866  W2        4658            0.0000000000
     13643      4548  TIP3      H1             29.8724703705      -23.6863071127        2.8454069866  W2        4658            0.0000000000
     13644      4548  TIP3      H2             29.5020003705      -23.2118571127        4.2344769866  W2        4658            0.0000000000
     13645      4549  TIP3      OH2            29.1664403705      -23.0162071127        6.0653669866  W2        4659            0.0000000000
     13646      4549  TIP3      H1             28.2314203705      -22.9160171127        6.2440669866  W2        4659            0.0000000000
     13647      4549  TIP3      H2             29.4466303705      -23.7256071127        6.6436869866  W2        4659            0.0000000000
     13648      4550  TIP3      OH2            19.3039803705      -27.5650371127       16.1085969866  W2        4661            0.0000000000
     13649      4550  TIP3      H1             19.5201103705      -27.9264771127       16.9681769866  W2        4661            0.0000000000
     13650      4550  TIP3      H2             18.4484503705      -27.9396571127       15.8989469866  W2        4661            0.0000000000
     13651      4551  TIP3      OH2            21.9227803705      -39.0949871127       12.1040169866  W2        4662            0.0000000000
     13652      4551  TIP3      H1             21.0611503705      -39.1821671127       11.6963069866  W2        4662            0.0000000000
     13653      4551  TIP3      H2             21.9003503705      -38.2389771127       12.5317769866  W2        4662            0.0000000000
     13654      4552  TIP3      OH2            26.5855603705      -39.3729471127       15.4787169866  W2        4663            0.0000000000
     13655      4552  TIP3      H1             27.0058703705      -39.7882371127       16.2317769866  W2        4663            0.0000000000
     13656      4552  TIP3      H2             25.6525203705      -39.5516171127       15.5959169866  W2        4663            0.0000000000
     13657      4553  TIP3      OH2            29.9120503705      -35.6174271127       16.3321669866  W2        4664            0.0000000000
     13658      4553  TIP3      H1             29.3980003705      -35.7432071127       17.1297669866  W2        4664            0.0000000000
     13659      4553  TIP3      H2             29.7565203705      -34.7051171127       16.0877869866  W2        4664            0.0000000000
     13660      4554  TIP3      OH2            30.6745403705      -30.7564271127        2.0934669866  W2        4665            0.0000000000
     13661      4554  TIP3      H1             30.7166203705      -30.9790371127        1.1634669866  W2        4665            0.0000000000
     13662      4554  TIP3      H2             31.5237503705      -30.3577171127        2.2834569866  W2        4665            0.0000000000
     13663      4555  TIP3      OH2            26.2472903705      -36.8806071127        2.7637969866  W2        4666            0.0000000000
     13664      4555  TIP3      H1             25.9937703705      -36.8614471127        3.6866069866  W2        4666            0.0000000000
     13665      4555  TIP3      H2             25.9905003705      -37.7520671127        2.4624169866  W2        4666            0.0000000000
     13666      4556  TIP3      OH2            22.0137903705      -34.1295371127       13.1990369866  W2        4667            0.0000000000
     13667      4556  TIP3      H1             21.3720003705      -34.1698071127       13.9080469866  W2        4667            0.0000000000
     13668      4556  TIP3      H2             22.0509903705      -33.2030671127       12.9613369866  W2        4667            0.0000000000
     13669      4557  TIP3      OH2            22.0107003705      -33.9085271127        8.1110369866  W2        4668            0.0000000000
     13670      4557  TIP3      H1             21.1179903705      -34.2489171127        8.0524169866  W2        4668            0.0000000000
     13671      4557  TIP3      H2             22.4613603705      -34.2854371127        7.3553569866  W2        4668            0.0000000000
     13672      4558  TIP3      OH2            27.5462503705      -33.4924971127        6.9281169866  W2        4669            0.0000000000
     13673      4558  TIP3      H1             27.1372803705      -32.6776371127        6.6365969866  W2        4669            0.0000000000
     13674      4558  TIP3      H2             28.2668703705      -33.6324871127        6.3138269866  W2        4669            0.0000000000
     13675      4559  TIP3      OH2            28.5510203705      -34.0464571127        9.7420869866  W2        4671            0.0000000000
     13676      4559  TIP3      H1             28.3554703705      -33.4407771127        9.0271469866  W2        4671            0.0000000000
     13677      4559  TIP3      H2             28.7322803705      -34.8799371127        9.3077169866  W2        4671            0.0000000000
     13678      4560  TIP3      OH2            19.7638403705      -33.8091871127       15.0662369866  W2        4672            0.0000000000
     13679      4560  TIP3      H1             19.7257803705      -33.4090271127       15.9349469866  W2        4672            0.0000000000
     13680      4560  TIP3      H2             19.2729503705      -34.6259471127       15.1565269866  W2        4672            0.0000000000
     13681      4561  TIP3      OH2            23.1295803705      -36.4349571127        1.8648369866  W2        4673            0.0000000000
     13682      4561  TIP3      H1             22.6986503705      -36.8799471127        2.5945769866  W2        4673            0.0000000000
     13683      4561  TIP3      H2             22.4114503705      -36.0633271127        1.3525869866  W2        4673            0.0000000000
     13684      4562  TIP3      OH2            16.3719203705      -36.6930071127        8.9167069866  W2        4674            0.0000000000
     13685      4562  TIP3      H1             17.0026903705      -36.7217971127        9.6360969866  W2        4674            0.0000000000
     13686      4562  TIP3      H2             16.8213503705      -37.1181371127        8.1862969866  W2        4674            0.0000000000
     13687      4563  TIP3      OH2            17.6461303705      -35.9468071127        4.3407469866  W2        4675            0.0000000000
     13688      4563  TIP3      H1             18.1203003705      -35.3558171127        3.7558369866  W2        4675            0.0000000000
     13689      4563  TIP3      H2             16.9287703705      -35.4165171127        4.6877569866  W2        4675            0.0000000000
     13690      4564  TIP3      OH2            27.8149403705      -32.4083271127       14.4133269866  W2        4676            0.0000000000
     13691      4564  TIP3      H1             28.1384203705      -33.0393571127       13.7703769866  W2        4676            0.0000000000
     13692      4564  TIP3      H2             27.3748703705      -32.9431071127       15.0740669866  W2        4676            0.0000000000
     13693      4565  TIP3      OH2            24.5922303705      -36.4807771127        9.1974469866  W2        4677            0.0000000000
     13694      4565  TIP3      H1             23.6813403705      -36.4240971127        9.4860469866  W2        4677            0.0000000000
     13695      4565  TIP3      H2             25.0975203705      -36.5412271127       10.0081669866  W2        4677            0.0000000000
     13696      4566  TIP3      OH2            19.4205703705      -34.8521471127        8.0242069866  W2        4678            0.0000000000
     13697      4566  TIP3      H1             18.5313703705      -34.7525971127        7.6841669866  W2        4678            0.0000000000
     13698      4566  TIP3      H2             19.7170603705      -35.6938471127        7.6779969866  W2        4678            0.0000000000
     13699      4567  TIP3      OH2            23.0737503705      -34.8518871127        5.6806669866  W2        4679            0.0000000000
     13700      4567  TIP3      H1             24.0053003705      -34.7228871127        5.8589769866  W2        4679            0.0000000000
     13701      4567  TIP3      H2             22.8587803705      -34.1824571127        5.0311369866  W2        4679            0.0000000000
     13702      4568  TIP3      OH2            28.9974203705      -37.2461471127       12.4616269866  W2        4680            0.0000000000
     13703      4568  TIP3      H1             28.3205803705      -37.1148371127       13.1255969866  W2        4680            0.0000000000
     13704      4568  TIP3      H2             28.5119103705      -37.4011971127       11.6513969866  W2        4680            0.0000000000
     13705      4569  TIP3      OH2            21.7477703705      -33.6576671127        3.2472769866  W2        4681            0.0000000000
     13706      4569  TIP3      H1             21.2052803705      -34.0372871127        2.5560369866  W2        4681            0.0000000000
     13707      4569  TIP3      H2             22.5812603705      -33.4631971127        2.8186869866  W2        4681            0.0000000000
     13708      4570  TIP3      OH2            25.9122003705      -33.6934771127       11.0844069866  W2        4684            0.0000000000
     13709      4570  TIP3      H1             26.4765403705      -34.2398171127       10.5373669866  W2        4684            0.0000000000
     13710      4570  TIP3      H2             25.7645403705      -34.2152871127       11.8731669866  W2        4684            0.0000000000
     13711      4571  TIP3      OH2            20.9141703705      -37.5568671127        7.5028869866  W2        4685            0.0000000000
     13712      4571  TIP3      H1             20.5971203705      -38.4593371127        7.4674269866  W2        4685            0.0000000000
     13713      4571  TIP3      H2             21.6955803705      -37.5551271127        6.9500469866  W2        4685            0.0000000000
     13714      4572  TIP3      OH2            24.5387903705      -35.3048671127       13.4984469866  W2        4686            0.0000000000
     13715      4572  TIP3      H1             23.7033203705      -34.8509171127       13.6086869866  W2        4686            0.0000000000
     13716      4572  TIP3      H2             25.0628503705      -35.0290171127       14.2504369866  W2        4686            0.0000000000
     13717      4573  TIP3      OH2            25.0830503705      -29.0920971127        5.1830869866  W2        4687            0.0000000000
     13718      4573  TIP3      H1             24.3381503705      -29.5995671127        4.8608769866  W2        4687            0.0000000000
     13719      4573  TIP3      H2             24.9487703705      -29.0432971127        6.1295669866  W2        4687            0.0000000000
     13720      4574  TIP3      OH2            32.2329403705      -29.9592771127       13.9698469866  W2        4688            0.0000000000
     13721      4574  TIP3      H1             32.8748203705      -29.5026471127       13.4260669866  W2        4688            0.0000000000
     13722      4574  TIP3      H2             31.4026303705      -29.8460371127       13.5072569866  W2        4688            0.0000000000
     13723      4575  TIP3      OH2            28.9807303705      -36.2781071127        3.3823469866  W2        4689            0.0000000000
     13724      4575  TIP3      H1             28.0421503705      -36.1665471127        3.2312269866  W2        4689            0.0000000000
     13725      4575  TIP3      H2             29.2779403705      -35.4214171127        3.6889169866  W2        4689            0.0000000000
     13726      4576  TIP3      OH2            26.6022603705      -28.9077671127       16.4199969866  W2        4690            0.0000000000
     13727      4576  TIP3      H1             26.2568703705      -29.2895271127       17.2269569866  W2        4690            0.0000000000
     13728      4576  TIP3      H2             26.4022703705      -27.9744071127       16.4912869866  W2        4690            0.0000000000
     13729      4577  TIP3      OH2            29.6990803705      -34.4108371127        5.0430869866  W2        4691            0.0000000000
     13730      4577  TIP3      H1             30.5909803705      -34.5483371127        5.3622069866  W2        4691            0.0000000000
     13731      4577  TIP3      H2             29.7554403705      -33.6202271127        4.5064369866  W2        4691            0.0000000000
     13732      4578  TIP3      OH2            20.2078803705      -29.7970971127       10.9528769866  W2        4692            0.0000000000
     13733      4578  TIP3      H1             20.9526003705      -29.7995271127       10.3515269866  W2        4692            0.0000000000
     13734      4578  TIP3      H2             20.2855403705      -30.6207171127       11.4343869866  W2        4692            0.0000000000
     13735      4579  TIP3      OH2            27.2084603705      -27.6336671127        4.2085469866  W2        4693            0.0000000000
     13736      4579  TIP3      H1             26.9133003705      -26.8068771127        4.5900269866  W2        4693            0.0000000000
     13737      4579  TIP3      H2             26.5054603705      -28.2529771127        4.4046869866  W2        4693            0.0000000000
     13738      4580  TIP3      OH2            17.2158503705      -31.3364071127       16.2677269866  W2        4694            0.0000000000
     13739      4580  TIP3      H1             17.4387103705      -31.7544471127       17.0994769866  W2        4694            0.0000000000
     13740      4580  TIP3      H2             16.6138603705      -31.9489071127       15.8450069866  W2        4694            0.0000000000
     13741      4581  TIP3      OH2            28.8526203705      -26.4462171127       16.3704969866  W2        4696            0.0000000000
     13742      4581  TIP3      H1             27.9520503705      -26.2629571127       16.1028869866  W2        4696            0.0000000000
     13743      4581  TIP3      H2             28.8867303705      -26.1872871127       17.2913769866  W2        4696            0.0000000000
     13744      4582  TIP3      OH2            34.5839503705      -34.2014271127        4.7377569866  W2        4697            0.0000000000
     13745      4582  TIP3      H1             34.0295803705      -34.5976271127        4.0655069866  W2        4697            0.0000000000
     13746      4582  TIP3      H2             34.6843103705      -33.2909071127        4.4600869866  W2        4697            0.0000000000
     13747      4583  TIP3      OH2            32.8791203705      -25.4153871127        5.2029669866  W2        4699            0.0000000000
     13748      4583  TIP3      H1             32.5062303705      -26.2410071127        5.5120269866  W2        4699            0.0000000000
     13749      4583  TIP3      H2             33.1564703705      -25.5984471127        4.3053069866  W2        4699            0.0000000000
     13750      4584  TIP3      OH2            30.0395103705      -30.6074371127       12.2241569866  W2        4700            0.0000000000
     13751      4584  TIP3      H1             29.1112003705      -30.8392471127       12.1970869866  W2        4700            0.0000000000
     13752      4584  TIP3      H2             30.4906203705      -31.3844571127       11.8940369866  W2        4700            0.0000000000
     13753      4585  TIP3      OH2            22.5828203705      -26.2792771127        8.3570269866  W2        4701            0.0000000000
     13754      4585  TIP3      H1             23.1100403705      -25.5058371127        8.1569069866  W2        4701            0.0000000000
     13755      4585  TIP3      H2             21.7026703705      -26.0543571127        8.0554269866  W2        4701            0.0000000000
     13756      4586  TIP3      OH2            18.3375903705      -31.4168671127        2.9442669866  W2        4702            0.0000000000
     13757      4586  TIP3      H1             18.9535803705      -30.7901471127        3.3237469866  W2        4702            0.0000000000
     13758      4586  TIP3      H2             17.4758503705      -31.1008871127        3.2159169866  W2        4702            0.0000000000
     13759      4587  TIP3      OH2            24.0100503705      -28.6162871127        7.9334569866  W2        4703            0.0000000000
     13760      4587  TIP3      H1             23.7690503705      -27.6908471127        7.9749869866  W2        4703            0.0000000000
     13761      4587  TIP3      H2             23.2694103705      -29.0751571127        8.3298469866  W2        4703            0.0000000000
     13762      4588  TIP3      OH2            24.5247103705      -24.4669271127       14.2485669866  W2        4704            0.0000000000
     13763      4588  TIP3      H1             24.8871803705      -23.6123671127       14.0150069866  W2        4704            0.0000000000
     13764      4588  TIP3      H2             25.0562303705      -24.7587671127       14.9891969866  W2        4704            0.0000000000
     13765      4589  TIP3      OH2            22.6931303705      -23.5945271127        7.4786769866  W2        4705            0.0000000000
     13766      4589  TIP3      H1             21.7431803705      -23.4887871127        7.5300069866  W2        4705            0.0000000000
     13767      4589  TIP3      H2             23.0449403705      -22.7737871127        7.8234269866  W2        4705            0.0000000000
     13768      4590  TIP3      OH2            28.0687903705      -28.3678571127       13.9491269866  W2        4706            0.0000000000
     13769      4590  TIP3      H1             27.6429203705      -28.5956871127       14.7755269866  W2        4706            0.0000000000
     13770      4590  TIP3      H2             28.6493703705      -29.1066771127       13.7666569866  W2        4706            0.0000000000
     13771      4591  TIP3      OH2            30.2716803705      -27.4388071127        3.0230269866  W2        4707            0.0000000000
     13772      4591  TIP3      H1             30.6249903705      -27.8188271127        3.8273769866  W2        4707            0.0000000000
     13773      4591  TIP3      H2             29.3230303705      -27.5323271127        3.1099569866  W2        4707            0.0000000000
     13774      4592  TIP3      OH2            30.7272103705      -23.8159071127       16.4186069866  W2        4708            0.0000000000
     13775      4592  TIP3      H1             30.1255303705      -24.3716171127       15.9232369866  W2        4708            0.0000000000
     13776      4592  TIP3      H2             31.0085803705      -23.1489271127       15.7923469866  W2        4708            0.0000000000
     13777      4593  TIP3      OH2            34.7751203705      -22.9595571127        3.2240469866  W2        4709            0.0000000000
     13778      4593  TIP3      H1             35.5189103705      -22.3735071127        3.0842069866  W2        4709            0.0000000000
     13779      4593  TIP3      H2             34.0809303705      -22.3909771127        3.5572869866  W2        4709            0.0000000000
     13780      4594  TIP3      OH2            18.8498003705      -36.5831371127       15.8258669866  W2        4710            0.0000000000
     13781      4594  TIP3      H1             17.9570303705      -36.2445971127       15.7582669866  W2        4710            0.0000000000
     13782      4594  TIP3      H2             18.7510803705      -37.4385271127       16.2439469866  W2        4710            0.0000000000
     13783      4595  TIP3      OH2            31.1376103705      -28.7666071127        5.2498169866  W2        4711            0.0000000000
     13784      4595  TIP3      H1             30.8603703705      -29.4946771127        5.8059269866  W2        4711            0.0000000000
     13785      4595  TIP3      H2             32.0649103705      -28.6474071127        5.4550769866  W2        4711            0.0000000000
     13786      4596  TIP3      OH2            18.5010003705      -24.7786971127       14.2608069866  W2        4712            0.0000000000
     13787      4596  TIP3      H1             18.7180303705      -25.7104571127       14.2297769866  W2        4712            0.0000000000
     13788      4596  TIP3      H2             18.7473503705      -24.5041971127       15.1440869866  W2        4712            0.0000000000
     13789      4597  TIP3      OH2            24.3624603705      -26.3271971127        1.4700269866  W2        4713            0.0000000000
     13790      4597  TIP3      H1             24.6014403705      -27.0753871127        0.9229169866  W2        4713            0.0000000000
     13791      4597  TIP3      H2             24.0935903705      -26.7150271127        2.3028069866  W2        4713            0.0000000000
     13792      4598  TIP3      OH2            23.2995203705      -26.7568171127        3.9262869866  W2        4714            0.0000000000
     13793      4598  TIP3      H1             23.4463203705      -27.2768371127        4.7163769866  W2        4714            0.0000000000
     13794      4598  TIP3      H2             23.2966903705      -25.8500571127        4.2328769866  W2        4714            0.0000000000
     13795      4599  TIP3      OH2            19.7526303705      -29.5044871127        4.4368269866  W2        4715            0.0000000000
     13796      4599  TIP3      H1             19.0665603705      -29.1522371127        5.0037969866  W2        4715            0.0000000000
     13797      4599  TIP3      H2             20.2754203705      -28.7415271127        4.1902569866  W2        4715            0.0000000000
     13798      4600  TIP3      OH2            27.5841403705      -36.8421071127       14.7157269866  W2        4716            0.0000000000
     13799      4600  TIP3      H1             28.2829303705      -36.7682371127       15.3656969866  W2        4716            0.0000000000
     13800      4600  TIP3      H2             27.2032803705      -37.7066071127       14.8700169866  W2        4716            0.0000000000
     13801      4601  TIP3      OH2            28.3686303705      -37.1899371127        5.8129569866  W2        4717            0.0000000000
     13802      4601  TIP3      H1             28.5884603705      -36.7183971127        5.0094969866  W2        4717            0.0000000000
     13803      4601  TIP3      H2             28.9270303705      -36.7956771127        6.4830169866  W2        4717            0.0000000000
     13804      4602  TIP3      OH2            26.0372403705      -25.0594571127        4.6757069866  W2        4718            0.0000000000
     13805      4602  TIP3      H1             25.2208503705      -24.5624871127        4.7281369866  W2        4718            0.0000000000
     13806      4602  TIP3      H2             26.5668703705      -24.5841071127        4.0355869866  W2        4718            0.0000000000
     13807      4603  TIP3      OH2            25.5686203705      -35.4620571127        6.6477969866  W2        4719            0.0000000000
     13808      4603  TIP3      H1             26.3808803705      -34.9577371127        6.6939669866  W2        4719            0.0000000000
     13809      4603  TIP3      H2             25.3239203705      -35.6070871127        7.5617569866  W2        4719            0.0000000000
     13810      4604  TIP3      OH2            26.1042603705      -34.4757871127       15.8324569866  W2        4720            0.0000000000
     13811      4604  TIP3      H1             26.2232903705      -33.9022471127       16.5894969866  W2        4720            0.0000000000
     13812      4604  TIP3      H2             26.7597203705      -35.1638471127       15.9472369866  W2        4720            0.0000000000
     13813      4605  TIP3      OH2            26.4522903705      -38.3807571127        7.5859069866  W2        4721            0.0000000000
     13814      4605  TIP3      H1             26.1056403705      -37.7636971127        8.2303369866  W2        4721            0.0000000000
     13815      4605  TIP3      H2             27.1109803705      -37.8801871127        7.1044569866  W2        4721            0.0000000000
     13816      4606  TIP3      OH2            23.3755503705      -24.0157371127        4.6573969866  W2        4722            0.0000000000
     13817      4606  TIP3      H1             23.5364203705      -23.2159871127        4.1566569866  W2        4722            0.0000000000
     13818      4606  TIP3      H2             23.1783303705      -23.7091371127        5.5424569866  W2        4722            0.0000000000
     13819      4607  TIP3      OH2            22.1099903705      -37.3178171127        4.2731569866  W2        4723            0.0000000000
     13820      4607  TIP3      H1             22.0264703705      -36.4295071127        4.6197969866  W2        4723            0.0000000000
     13821      4607  TIP3      H2             23.0000203705      -37.5831471127        4.5048369866  W2        4723            0.0000000000
     13822      4608  TIP3      OH2            32.3088403705      -36.5687571127       16.6674269866  W2        4724            0.0000000000
     13823      4608  TIP3      H1             31.3924203705      -36.3065871127       16.5797969866  W2        4724            0.0000000000
     13824      4608  TIP3      H2             32.6443403705      -36.5718571127       15.7709569866  W2        4724            0.0000000000
     13825      4609  TIP3      OH2            30.9109403705      -32.8186571127       10.7631569866  W2        4725            0.0000000000
     13826      4609  TIP3      H1             30.1133803705      -33.2336371127       10.4346569866  W2        4725            0.0000000000
     13827      4609  TIP3      H2             31.3560503705      -33.5092871127       11.2542069866  W2        4725            0.0000000000
     13828      4610  TIP3      OH2            20.3685203705      -26.8905971127        3.3336069866  W2        4726            0.0000000000
     13829      4610  TIP3      H1             20.9606703705      -26.1911171127        3.6098469866  W2        4726            0.0000000000
     13830      4610  TIP3      H2             20.8278203705      -27.3236471127        2.6140669866  W2        4726            0.0000000000
     13831      4611  TIP3      OH2            18.6844403705      -34.2262971127        2.4495469866  W2        4727            0.0000000000
     13832      4611  TIP3      H1             18.6397003705      -33.2869871127        2.6282469866  W2        4727            0.0000000000
     13833      4611  TIP3      H2             17.7967603705      -34.4618071127        2.1797569866  W2        4727            0.0000000000
     13834      4612  TIP3      OH2            31.9974003705      -23.5624071127       12.3855069866  W2        4728            0.0000000000
     13835      4612  TIP3      H1             31.8418303705      -22.8839671127       11.7284369866  W2        4728            0.0000000000
     13836      4612  TIP3      H2             32.9300403705      -23.4904771127       12.5885669866  W2        4728            0.0000000000
     13837      4613  TIP3      OH2            19.4926403705      -39.4446371127       11.1226469866  W2        4729            0.0000000000
     13838      4613  TIP3      H1             19.2636203705      -39.3853871127       10.1951469866  W2        4729            0.0000000000
     13839      4613  TIP3      H2             19.0499803705      -40.2360871127       11.4290569866  W2        4729            0.0000000000
     13840      4614  TIP3      OH2            18.4229703705      -25.5039271127        7.2832269866  W2        4730            0.0000000000
     13841      4614  TIP3      H1             17.5908303705      -25.0316571127        7.3103669866  W2        4730            0.0000000000
     13842      4614  TIP3      H2             18.9688003705      -24.9941671127        6.6845369866  W2        4730            0.0000000000
     13843      4615  TIP3      OH2            26.4006403705      -24.4640571127        1.6086269866  W2        4733            0.0000000000
     13844      4615  TIP3      H1             25.7567403705      -25.0951971127        1.9299969866  W2        4733            0.0000000000
     13845      4615  TIP3      H2             27.1624703705      -24.9952571127        1.3769769866  W2        4733            0.0000000000
     13846      4616  TIP3      OH2            31.0049303705      -24.6470671127        1.8424269866  W2        4735            0.0000000000
     13847      4616  TIP3      H1             31.2879703705      -25.4415471127        2.2951169866  W2        4735            0.0000000000
     13848      4616  TIP3      H2             31.7447203705      -24.4139671127        1.2815369866  W2        4735            0.0000000000
     13849      4617  TIP3      OH2            21.9596603705      -28.7375771127        1.6999169866  W2        4737            0.0000000000
     13850      4617  TIP3      H1             22.0240703705      -29.5316171127        2.2305569866  W2        4737            0.0000000000
     13851      4617  TIP3      H2             22.6125803705      -28.8562971127        1.0101169866  W2        4737            0.0000000000
     13852      4618  TIP3      OH2            27.3120003705      -27.6904071127        1.4357169866  W2        4739            0.0000000000
     13853      4618  TIP3      H1             27.0434103705      -27.5101971127        2.3366069866  W2        4739            0.0000000000
     13854      4618  TIP3      H2             27.1055603705      -28.6157871127        1.3042969866  W2        4739            0.0000000000
     13855      4619  TIP3      OH2            30.0084203705      -29.1956071127       16.3833269866  W2        4740            0.0000000000
     13856      4619  TIP3      H1             30.7539003705      -28.6072371127       16.2637269866  W2        4740            0.0000000000
     13857      4619  TIP3      H2             29.2511003705      -28.6136371127       16.4466369866  W2        4740            0.0000000000
     13858      4620  TIP3      OH2            23.1090403705      -30.7649571127        4.0057169866  W2        4742            0.0000000000
     13859      4620  TIP3      H1             22.6492403705      -31.2491271127        4.6915669866  W2        4742            0.0000000000
     13860      4620  TIP3      H2             23.3639103705      -31.4334171127        3.3697669866  W2        4742            0.0000000000
     13861      4621  TIP3      OH2            22.3979703705      -32.8722471127       16.3616769866  W2        4743            0.0000000000
     13862      4621  TIP3      H1             21.7795803705      -32.1975871127       16.6421469866  W2        4743            0.0000000000
     13863      4621  TIP3      H2             22.7420903705      -32.5508571127       15.5282969866  W2        4743            0.0000000000
     13864      4622  TIP3      OH2            24.1800803705      -32.5217771127        2.2680369866  W2        4744            0.0000000000
     13865      4622  TIP3      H1             23.9995803705      -32.6766571127        1.3408669866  W2        4744            0.0000000000
     13866      4622  TIP3      H2             25.1301303705      -32.4139071127        2.3128269866  W2        4744            0.0000000000
     13867      4623  TIP3      OH2            33.5699103705      -30.1673571127        1.7138469866  W2        4746            0.0000000000
     13868      4623  TIP3      H1             33.2963903705      -30.5918071127        0.9006769866  W2        4746            0.0000000000
     13869      4623  TIP3      H2             33.6093203705      -29.2359071127        1.4968869866  W2        4746            0.0000000000
     13870      4624  TIP3      OH2            22.7373403705      -35.5171671127       17.4439869866  W2        4747            0.0000000000
     13871      4624  TIP3      H1             22.8874303705      -36.2460371127       16.8419569866  W2        4747            0.0000000000
     13872      4624  TIP3      H2             22.7395803705      -34.7399971127       16.8852069866  W2        4747            0.0000000000
     13873      4625  TIP3      OH2            23.1499103705      -37.1475871127       14.9367269866  W2        4748            0.0000000000
     13874      4625  TIP3      H1             23.6856603705      -36.6959171127       14.2846569866  W2        4748            0.0000000000
     13875      4625  TIP3      H2             22.2978703705      -37.2556071127       14.5141369866  W2        4748            0.0000000000
     13876      4626  TIP3      OH2            24.7317503705      -31.7079671127       15.1762469866  W2        4749            0.0000000000
     13877      4626  TIP3      H1             25.4822303705      -31.8642171127       14.6030269866  W2        4749            0.0000000000
     13878      4626  TIP3      H2             24.3925803705      -30.8563071127       14.9007969866  W2        4749            0.0000000000
     13879      4627  TIP3      OH2            23.9554603705      -39.6910171127       15.3680869866  W2        4753            0.0000000000
     13880      4627  TIP3      H1             23.8574203705      -38.7446971127       15.2627069866  W2        4753            0.0000000000
     13881      4627  TIP3      H2             23.2130803705      -40.0636371127       14.8924369866  W2        4753            0.0000000000
     13882      4628  TIP3      OH2            24.0772503705      -21.8314071127        3.2693969866  W2        4760            0.0000000000
     13883      4628  TIP3      H1             25.0103203705      -21.6735371127        3.4132369866  W2        4760            0.0000000000
     13884      4628  TIP3      H2             23.8131303705      -21.1561071127        2.6445469866  W2        4760            0.0000000000
     13885      4629  TIP3      OH2            17.6457403705      -27.1950271127        2.7522069866  W2        4761            0.0000000000
     13886      4629  TIP3      H1             18.5596603705      -27.1161371127        3.0255969866  W2        4761            0.0000000000
     13887      4629  TIP3      H2             17.6530503705      -27.8820671127        2.0857669866  W2        4761            0.0000000000
     13888      4630  TIP3      OH2            16.2948003705      -21.8021771127        7.8295969866  W2        4762            0.0000000000
     13889      4630  TIP3      H1             15.6475103705      -22.2640071127        7.2967169866  W2        4762            0.0000000000
     13890      4630  TIP3      H2             16.6492603705      -22.4738471127        8.4122169866  W2        4762            0.0000000000
     13891      4631  TIP3      OH2            17.1647203705      -23.7214771127        9.6342169866  W2        4763            0.0000000000
     13892      4631  TIP3      H1             16.8304003705      -24.6017471127        9.8062369866  W2        4763            0.0000000000
     13893      4631  TIP3      H2             17.3869603705      -23.3759771127       10.4987769866  W2        4763            0.0000000000
     13894      4632  TIP3      OH2            34.7132003705      -22.9118371127       12.6146969866  W2        4764            0.0000000000
     13895      4632  TIP3      H1             34.6918703705      -22.7269971127       13.5536369866  W2        4764            0.0000000000
     13896      4632  TIP3      H2             35.4038203705      -22.3434371127       12.2738369866  W2        4764            0.0000000000
     13897      4633  TIP3      OH2            34.2764903705      -23.3447271127       15.5366069866  W2        4765            0.0000000000
     13898      4633  TIP3      H1             33.7893603705      -24.0803171127       15.1653469866  W2        4765            0.0000000000
     13899      4633  TIP3      H2             34.8257603705      -23.7383371127       16.2145469866  W2        4765            0.0000000000
     13900      4634  TIP3      OH2            34.0281903705      -29.2985471127        5.6888869866  W2        4767            0.0000000000
     13901      4634  TIP3      H1             34.8783303705      -28.8774571127        5.8160469866  W2        4767            0.0000000000
     13902      4634  TIP3      H2             34.0337003705      -30.0385371127        6.2960269866  W2        4767            0.0000000000
     13903      4635  TIP3      OH2            34.4227503705      -31.2448071127        7.5124569866  W2        4768            0.0000000000
     13904      4635  TIP3      H1             33.6962103705      -31.7245471127        7.9102169866  W2        4768            0.0000000000
     13905      4635  TIP3      H2             35.0040803705      -31.0393371127        8.2446169866  W2        4768            0.0000000000
     13906      4636  TIP3      OH2            34.1818703705      -28.4600571127       12.4602169866  W2        4769            0.0000000000
     13907      4636  TIP3      H1             35.0152903705      -28.8380571127       12.1795769866  W2        4769            0.0000000000
     13908      4636  TIP3      H2             34.2939003705      -27.5169371127       12.3411269866  W2        4769            0.0000000000
     13909      4637  TIP3      OH2            32.6681003705      -25.5823071127       14.7670569866  W2        4770            0.0000000000
     13910      4637  TIP3      H1             32.0206303705      -25.2571571127       15.3925769866  W2        4770            0.0000000000
     13911      4637  TIP3      H2             32.1505003705      -26.0225371127       14.0928869866  W2        4770            0.0000000000
     13912      4638  TIP3      OH2            34.6910603705      -31.3439571127        3.9035869866  W2        4771            0.0000000000
     13913      4638  TIP3      H1             34.1691703705      -30.9875471127        3.1846769866  W2        4771            0.0000000000
     13914      4638  TIP3      H2             34.6579803705      -30.6691771127        4.5816769866  W2        4771            0.0000000000
     13915      4639  TIP3      OH2            33.0399603705      -34.1043971127        2.4542969866  W2        4772            0.0000000000
     13916      4639  TIP3      H1             33.1364003705      -33.4376971127        1.7742669866  W2        4772            0.0000000000
     13917      4639  TIP3      H2             32.8999203705      -34.9197671127        1.9728469866  W2        4772            0.0000000000
     13918      4640  TIP3      OH2            32.2094303705      -32.7241571127        8.0753269866  W2        4773            0.0000000000
     13919      4640  TIP3      H1             32.0593103705      -33.6692971127        8.0551069866  W2        4773            0.0000000000
     13920      4640  TIP3      H2             31.8558803705      -32.4430171127        8.9192369866  W2        4773            0.0000000000
     13921      4641  TIP3      OH2            17.2446703705      -30.6459371127       12.0857069866  W2        4774            0.0000000000
     13922      4641  TIP3      H1             17.4289603705      -30.7277671127       11.1499969866  W2        4774            0.0000000000
     13923      4641  TIP3      H2             18.0939603705      -30.7702371127       12.5093469866  W2        4774            0.0000000000
     13924      4642  TIP3      OH2            32.2873403705      -36.6964171127        1.5718469866  W2        4777            0.0000000000
     13925      4642  TIP3      H1             32.8979203705      -37.0677371127        2.2086669866  W2        4777            0.0000000000
     13926      4642  TIP3      H2             31.4504903705      -37.1177271127        1.7678469866  W2        4777            0.0000000000
     13927      4643  TIP3      OH2            31.9199103705      -35.1415771127        6.5378369866  W2        4778            0.0000000000
     13928      4643  TIP3      H1             32.1996203705      -36.0485371127        6.6620069866  W2        4778            0.0000000000
     13929      4643  TIP3      H2             32.6790803705      -34.7074271127        6.1487569866  W2        4778            0.0000000000
     13930      4644  TIP3      OH2            32.5317403705      -34.5598371127       11.9737269866  W2        4779            0.0000000000
     13931      4644  TIP3      H1             33.4645403705      -34.3478471127       11.9393269866  W2        4779            0.0000000000
     13932      4644  TIP3      H2             32.2964903705      -34.4586271127       12.8960269866  W2        4779            0.0000000000
     13933      4645  TIP3      OH2            32.5609303705      -33.8233071127       14.7496669866  W2        4780            0.0000000000
     13934      4645  TIP3      H1             31.7180603705      -33.5552671127       15.1156469866  W2        4780            0.0000000000
     13935      4645  TIP3      H2             33.0033603705      -33.0011171127       14.5387769866  W2        4780            0.0000000000
     13936      4646  TIP3      OH2            32.5333903705      -37.8786471127        6.5860369866  W2        4783            0.0000000000
     13937      4646  TIP3      H1             32.7158903705      -38.3274971127        7.4115369866  W2        4783            0.0000000000
     13938      4646  TIP3      H2             31.9336803705      -38.4632071127        6.1224969866  W2        4783            0.0000000000
     13939      4647  TIP3      OH2            18.0634003705      -37.0632771127       11.1178769866  W2        4784            0.0000000000
     13940      4647  TIP3      H1             18.5085603705      -37.8550271127       11.4198469866  W2        4784            0.0000000000
     13941      4647  TIP3      H2             18.5297003705      -36.3467571127       11.5484369866  W2        4784            0.0000000000
     13942      4648  TIP3      OH2            16.3674303705      -34.0639771127       12.1868969866  W2        4785            0.0000000000
     13943      4648  TIP3      H1             16.8594103705      -34.2849271127       11.3960969866  W2        4785            0.0000000000
     13944      4648  TIP3      H2             16.7295203705      -33.2236371127       12.4678469866  W2        4785            0.0000000000
     13945      4649  TIP3      OH2            34.4000103705      -37.8108371127        3.1140669866  W2        4787            0.0000000000
     13946      4649  TIP3      H1             34.8122703705      -38.5322671127        2.6388669866  W2        4787            0.0000000000
     13947      4649  TIP3      H2             35.0816603705      -37.1413771127        3.1724969866  W2        4787            0.0000000000
     13948      4650  TIP3      OH2            16.6810803705      -37.8060671127        6.2411369866  W2        4788            0.0000000000
     13949      4650  TIP3      H1             15.7559203705      -37.5974071127        6.1116869866  W2        4788            0.0000000000
     13950      4650  TIP3      H2             17.1350703705      -37.3219871127        5.5513669866  W2        4788            0.0000000000
     13951      4651  TIP3      OH2            31.4518003705      -22.8218971127        8.1868769866  W2        4789            0.0000000000
     13952      4651  TIP3      H1             32.1040903705      -23.1696871127        7.5787869866  W2        4789            0.0000000000
     13953      4651  TIP3      H2             31.9621803705      -22.3335771127        8.8328469866  W2        4789            0.0000000000
     13954      4652  TIP3      OH2            16.6446203705      -39.0681671127       14.5853869866  W2        4790            0.0000000000
     13955      4652  TIP3      H1             15.9796703705      -39.3141371127       15.2284769866  W2        4790            0.0000000000
     13956      4652  TIP3      H2             16.2017503705      -38.4461271127       14.0081869866  W2        4790            0.0000000000
     13957      4653  TIP3      OH2            21.7908403705      -24.9186371127       14.9883669866  W2        4792            0.0000000000
     13958      4653  TIP3      H1             21.3659503705      -24.1087871127       14.7058269866  W2        4792            0.0000000000
     13959      4653  TIP3      H2             22.6951203705      -24.8332271127       14.6863469866  W2        4792            0.0000000000
     13960      4654  TIP3      OH2            28.4470203705      -22.2337471127       17.1918769866  W2        4794            0.0000000000
     13961      4654  TIP3      H1             29.1239103705      -22.8665171127       16.9517969866  W2        4794            0.0000000000
     13962      4654  TIP3      H2             28.7689003705      -21.8326971127       17.9992069866  W2        4794            0.0000000000
     13963      4655  TIP3      OH2            33.3644003705      -39.6441971127       16.2713769866  W2        4795            0.0000000000
     13964      4655  TIP3      H1             32.5517503705      -39.3191671127       15.8838469866  W2        4795            0.0000000000
     13965      4655  TIP3      H2             33.5972503705      -40.4043471127       15.7382869866  W2        4795            0.0000000000
     13966      4656  TIP3      OH2            19.1925103705      -21.6622471127       15.0358969866  W2        4796            0.0000000000
     13967      4656  TIP3      H1             18.4721503705      -21.2221471127       14.5846669866  W2        4796            0.0000000000
     13968      4656  TIP3      H2             18.8269103705      -21.9127771127       15.8842969866  W2        4796            0.0000000000
     13969      4657  TIP3      OH2            21.6597703705      -22.0618571127       14.0656169866  W2        4797            0.0000000000
     13970      4657  TIP3      H1             20.7949903705      -21.9900071127       14.4696269866  W2        4797            0.0000000000
     13971      4657  TIP3      H2             21.6046703705      -21.5151271127       13.2818669866  W2        4797            0.0000000000
     13972      4658  TIP3      OH2            26.3703303705      -22.1739671127       13.2412169866  W2        4798            0.0000000000
     13973      4658  TIP3      H1             25.9137303705      -21.6449971127       12.5870569866  W2        4798            0.0000000000
     13974      4658  TIP3      H2             26.5331303705      -21.5708271127       13.9664469866  W2        4798            0.0000000000
     13975      4659  TIP3      OH2            28.6979603705      -23.2960071127       14.1862469866  W2        4799            0.0000000000
     13976      4659  TIP3      H1             27.7933303705      -23.1309871127       13.9204569866  W2        4799            0.0000000000
     13977      4659  TIP3      H2             29.1268203705      -22.4427871127       14.1205869866  W2        4799            0.0000000000
     13978      4660  TIP3      OH2            31.3021503705      -21.7260971127       14.4810269866  W2        4800            0.0000000000
     13979      4660  TIP3      H1             31.1203503705      -20.8102071127       14.2705169866  W2        4800            0.0000000000
     13980      4660  TIP3      H2             31.4789303705      -22.1363871127       13.6344869866  W2        4800            0.0000000000
     13981      4661  TIP3      OH2            18.6073203705      -23.0389971127       11.9460769866  W2        4801            0.0000000000
     13982      4661  TIP3      H1             18.5889203705      -23.4644871127       12.8033069866  W2        4801            0.0000000000
     13983      4661  TIP3      H2             19.4121103705      -23.3574971127       11.5372969866  W2        4801            0.0000000000
     13984      4662  TIP3      OH2            20.7486303705      -24.3291271127       10.6010669866  W2        4802            0.0000000000
     13985      4662  TIP3      H1             20.5297003705      -25.2453871127       10.7706669866  W2        4802            0.0000000000
     13986      4662  TIP3      H2             21.5728503705      -24.1890871127       11.0672069866  W2        4802            0.0000000000
     13987      4663  TIP3      OH2            23.2858803705      -23.8591971127       11.4498669866  W2        4803            0.0000000000
     13988      4663  TIP3      H1             23.4984503705      -24.7472971127       11.1629569866  W2        4803            0.0000000000
     13989      4663  TIP3      H2             23.3503903705      -23.8934271127       12.4042669866  W2        4803            0.0000000000
     13990      4664  TIP3      OH2            26.7942503705      -38.1951371127       10.5941969866  W2        4804            0.0000000000
     13991      4664  TIP3      H1             26.1199303705      -38.8245771127       10.8497769866  W2        4804            0.0000000000
     13992      4664  TIP3      H2             27.3581703705      -38.6792471127        9.9909869866  W2        4804            0.0000000000
     13993      4665  TIP3      OH2            31.9369703705      -40.0877371127       10.7069069866  W2        4805            0.0000000000
     13994      4665  TIP3      H1             32.5407303705      -39.5401971127       10.2050069866  W2        4805            0.0000000000
     13995      4665  TIP3      H2             31.0671703705      -39.7686971127       10.4663169866  W2        4805            0.0000000000
     13996      4666  TIP3      OH2            33.6640103705      -38.9488671127        9.0399969866  W2        4806            0.0000000000
     13997      4666  TIP3      H1             34.2757603705      -39.4632971127        8.5133569866  W2        4806            0.0000000000
     13998      4666  TIP3      H2             34.0463503705      -38.0716571127        9.0634369866  W2        4806            0.0000000000
     13999      4667  TIP3      OH2            19.1210003705      -39.5611071127        8.4161869866  W2        4807            0.0000000000
     14000      4667  TIP3      H1             18.3439803705      -39.7956171127        7.9087769866  W2        4807            0.0000000000
     14001      4667  TIP3      H2             19.6513603705      -40.3578971127        8.4249869866  W2        4807            0.0000000000
     14002      4668  TIP3      OH2            17.9573403705      -39.7632971127        4.2197969866  W2        4808            0.0000000000
     14003      4668  TIP3      H1             18.3964103705      -39.1522471127        3.6281469866  W2        4808            0.0000000000
     14004      4668  TIP3      H2             17.3235803705      -39.2248871127        4.6937969866  W2        4808            0.0000000000
     14005      4669  TIP3      OH2            23.7002603705      -39.6343971127        8.2294969866  W2        4809            0.0000000000
     14006      4669  TIP3      H1             24.5746003705      -39.2459671127        8.1999269866  W2        4809            0.0000000000
     14007      4669  TIP3      H2             23.5643403705      -39.8496171127        9.1522169866  W2        4809            0.0000000000
     14008      4670  TIP3      OH2            29.2571003705      -39.6044171127        9.8786669866  W2        4810            0.0000000000
     14009      4670  TIP3      H1             29.3332603705      -39.5092571127        8.9292669866  W2        4810            0.0000000000
     14010      4670  TIP3      H2             28.9820203705      -40.5121271127       10.0075769866  W2        4810            0.0000000000
     14011      4671  TIP3      OH2            30.6103603705      -39.5786371127        5.5711669866  W2        4811            0.0000000000
     14012      4671  TIP3      H1             29.9074703705      -38.9637171127        5.3613069866  W2        4811            0.0000000000
     14013      4671  TIP3      H2             30.1655003705      -40.4159671127        5.7022569866  W2        4811            0.0000000000
     14014      4672  TIP3      OH2            17.8582903705      -23.8150771127        5.1173069866  W2        4812            0.0000000000
     14015      4672  TIP3      H1             17.1732803705      -23.8531871127        4.4498169866  W2        4812            0.0000000000
     14016      4672  TIP3      H2             17.8620103705      -22.9023171127        5.4055169866  W2        4812            0.0000000000
     14017      4673  TIP3      OH2            19.8182503705      -37.8471471127        2.6622069866  W2        4813            0.0000000000
     14018      4673  TIP3      H1             20.3095903705      -38.4769071127        2.1347569866  W2        4813            0.0000000000
     14019      4673  TIP3      H2             20.4418803705      -37.5512071127        3.3253269866  W2        4813            0.0000000000
     14020      4674  TIP3      OH2            24.8442603705      -37.5539971127        5.1192569866  W2        4814            0.0000000000
     14021      4674  TIP3      H1             25.0223903705      -38.2006771127        5.8021169866  W2        4814            0.0000000000
     14022      4674  TIP3      H2             24.7908803705      -36.7202271127        5.5863669866  W2        4814            0.0000000000
     14023      4675  TIP3      OH2            26.7226403705      -22.6055871127        3.5149269866  W2        4815            0.0000000000
     14024      4675  TIP3      H1             27.5886603705      -22.2388471127        3.3367469866  W2        4815            0.0000000000
     14025      4675  TIP3      H2             26.4759203705      -23.0447871127        2.7010069866  W2        4815            0.0000000000
     14026      4676  TIP3      OH2            33.4316003705      -23.0425571127        6.1940369866  W2        4816            0.0000000000
     14027      4676  TIP3      H1             33.2373103705      -23.7903471127        5.6289969866  W2        4816            0.0000000000
     14028      4676  TIP3      H2             33.3926103705      -22.2845471127        5.6108269866  W2        4816            0.0000000000
     14029      4677  TIP3      OH2            19.6764103705      -22.8949971127        2.1425169866  W2        4819            0.0000000000
     14030      4677  TIP3      H1             19.4088703705      -22.6087071127        3.0158269866  W2        4819            0.0000000000
     14031      4677  TIP3      H2             20.4476703705      -23.4410771127        2.2947669866  W2        4819            0.0000000000
     14032      4678  TIP3      OH2            38.3568903705      -31.5355971127       13.3867469866  W2        4822            0.0000000000
     14033      4678  TIP3      H1             38.3981003705      -32.1612671127       14.1099869866  W2        4822            0.0000000000
     14034      4678  TIP3      H2             39.0596603705      -30.9117371127       13.5687869866  W2        4822            0.0000000000
     14035      4679  TIP3      OH2            39.2802003705      -27.0857071127       11.9216569866  W2        4823            0.0000000000
     14036      4679  TIP3      H1             38.9107203705      -27.8876571127       11.5520869866  W2        4823            0.0000000000
     14037      4679  TIP3      H2             40.2213103705      -27.2542171127       11.9679969866  W2        4823            0.0000000000
     14038      4680  TIP3      OH2            35.8902503705      -33.4254471127        7.3145369866  W2        4824            0.0000000000
     14039      4680  TIP3      H1             35.4425903705      -32.5795771127        7.2961869866  W2        4824            0.0000000000
     14040      4680  TIP3      H2             35.3293703705      -34.0050271127        6.7990469866  W2        4824            0.0000000000
     14041      4681  TIP3      OH2            36.6008603705      -31.2634871127        9.4403369866  W2        4825            0.0000000000
     14042      4681  TIP3      H1             36.8142103705      -32.0333271127        9.9676369866  W2        4825            0.0000000000
     14043      4681  TIP3      H2             37.3386203705      -31.1738171127        8.8370969866  W2        4825            0.0000000000
     14044      4682  TIP3      OH2            37.2935103705      -33.8252071127       10.5619569866  W2        4826            0.0000000000
     14045      4682  TIP3      H1             37.9471703705      -34.3750371127       10.9939669866  W2        4826            0.0000000000
     14046      4682  TIP3      H2             37.3174403705      -34.0993071127        9.6451569866  W2        4826            0.0000000000
     14047      4683  TIP3      OH2            39.4835503705      -37.3039471127       13.8738969866  W2        4827            0.0000000000
     14048      4683  TIP3      H1             39.2647203705      -36.7738871127       13.1074969866  W2        4827            0.0000000000
     14049      4683  TIP3      H2             38.8156403705      -37.0773971127       14.5210369866  W2        4827            0.0000000000
     14050      4684  TIP3      OH2            39.0772803705      -35.4117671127       11.8261169866  W2        4828            0.0000000000
     14051      4684  TIP3      H1             39.6909103705      -34.7790071127       12.1993569866  W2        4828            0.0000000000
     14052      4684  TIP3      H2             39.5893503705      -35.8842671127       11.1698069866  W2        4828            0.0000000000
     14053      4685  TIP3      OH2            40.4601203705      -27.6640771127       14.9484169866  W2        4829            0.0000000000
     14054      4685  TIP3      H1             40.4548803705      -26.7847271127       14.5703469866  W2        4829            0.0000000000
     14055      4685  TIP3      H2             39.6065303705      -27.7476671127       15.3734069866  W2        4829            0.0000000000
     14056      4686  TIP3      OH2            36.5812103705      -27.9932871127        5.7303469866  W2        4830            0.0000000000
     14057      4686  TIP3      H1             36.3093003705      -27.7641871127        4.8416369866  W2        4830            0.0000000000
     14058      4686  TIP3      H2             36.6267803705      -27.1554071127        6.1908769866  W2        4830            0.0000000000
     14059      4687  TIP3      OH2            38.9942603705      -30.9549871127       16.2403169866  W2        4831            0.0000000000
     14060      4687  TIP3      H1             39.0645803705      -30.3043071127       16.9388169866  W2        4831            0.0000000000
     14061      4687  TIP3      H2             38.1034803705      -30.8522371127       15.9054069866  W2        4831            0.0000000000
     14062      4688  TIP3      OH2            39.8179203705      -31.2514971127        6.2503369866  W2        4833            0.0000000000
     14063      4688  TIP3      H1             39.5260503705      -30.4833271127        5.7594669866  W2        4833            0.0000000000
     14064      4688  TIP3      H2             39.1434403705      -31.9108771127        6.0874769866  W2        4833            0.0000000000
     14065      4689  TIP3      OH2            35.9109303705      -28.8885771127       15.0653169866  W2        4834            0.0000000000
     14066      4689  TIP3      H1             35.4097703705      -28.9166371127       14.2502869866  W2        4834            0.0000000000
     14067      4689  TIP3      H2             35.9163003705      -29.7942571127       15.3750469866  W2        4834            0.0000000000
     14068      4690  TIP3      OH2            35.6612003705      -26.1081971127       11.9493369866  W2        4835            0.0000000000
     14069      4690  TIP3      H1             36.6072603705      -26.2524971127       11.9302869866  W2        4835            0.0000000000
     14070      4690  TIP3      H2             35.5488303705      -25.3239171127       12.4864569866  W2        4835            0.0000000000
     14071      4691  TIP3      OH2            38.9054103705      -23.3072371127        8.0948069866  W2        4836            0.0000000000
     14072      4691  TIP3      H1             39.0574503705      -23.6551971127        8.9734569866  W2        4836            0.0000000000
     14073      4691  TIP3      H2             38.0544503705      -23.6635071127        7.8395269866  W2        4836            0.0000000000
     14074      4692  TIP3      OH2            38.1599803705      -27.5650371127       16.1085969866  W2        4837            0.0000000000
     14075      4692  TIP3      H1             38.3761103705      -27.9264771127       16.9681769866  W2        4837            0.0000000000
     14076      4692  TIP3      H2             37.3044503705      -27.9396571127       15.8989469866  W2        4837            0.0000000000
     14077      4693  TIP3      OH2            38.6198403705      -33.8091871127       15.0662369866  W2        4838            0.0000000000
     14078      4693  TIP3      H1             38.5817803705      -33.4090271127       15.9349469866  W2        4838            0.0000000000
     14079      4693  TIP3      H2             38.1289503705      -34.6259471127       15.1565269866  W2        4838            0.0000000000
     14080      4694  TIP3      OH2            35.2279203705      -36.6930071127        8.9167069866  W2        4839            0.0000000000
     14081      4694  TIP3      H1             35.8586903705      -36.7217971127        9.6360969866  W2        4839            0.0000000000
     14082      4694  TIP3      H2             35.6773503705      -37.1181371127        8.1862969866  W2        4839            0.0000000000
     14083      4695  TIP3      OH2            36.5021303705      -35.9468071127        4.3407469866  W2        4840            0.0000000000
     14084      4695  TIP3      H1             36.9763003705      -35.3558171127        3.7558369866  W2        4840            0.0000000000
     14085      4695  TIP3      H2             35.7847703705      -35.4165171127        4.6877569866  W2        4840            0.0000000000
     14086      4696  TIP3      OH2            38.2765703705      -34.8521471127        8.0242069866  W2        4841            0.0000000000
     14087      4696  TIP3      H1             37.3873703705      -34.7525971127        7.6841669866  W2        4841            0.0000000000
     14088      4696  TIP3      H2             38.5730603705      -35.6938471127        7.6779969866  W2        4841            0.0000000000
     14089      4697  TIP3      OH2            39.7701703705      -37.5568671127        7.5028869866  W2        4843            0.0000000000
     14090      4697  TIP3      H1             39.4531203705      -38.4593371127        7.4674269866  W2        4843            0.0000000000
     14091      4697  TIP3      H2             40.5515803705      -37.5551271127        6.9500469866  W2        4843            0.0000000000
     14092      4698  TIP3      OH2            39.0638803705      -29.7970971127       10.9528769866  W2        4844            0.0000000000
     14093      4698  TIP3      H1             39.8086003705      -29.7995271127       10.3515269866  W2        4844            0.0000000000
     14094      4698  TIP3      H2             39.1415403705      -30.6207171127       11.4343869866  W2        4844            0.0000000000
     14095      4699  TIP3      OH2            36.0718503705      -31.3364071127       16.2677269866  W2        4845            0.0000000000
     14096      4699  TIP3      H1             36.2947103705      -31.7544471127       17.0994769866  W2        4845            0.0000000000
     14097      4699  TIP3      H2             35.4698603705      -31.9489071127       15.8450069866  W2        4845            0.0000000000
     14098      4700  TIP3      OH2            37.1935903705      -31.4168671127        2.9442669866  W2        4846            0.0000000000
     14099      4700  TIP3      H1             37.8095803705      -30.7901471127        3.3237469866  W2        4846            0.0000000000
     14100      4700  TIP3      H2             36.3318503705      -31.1008871127        3.2159169866  W2        4846            0.0000000000
     14101      4701  TIP3      OH2            37.7058003705      -36.5831371127       15.8258669866  W2        4847            0.0000000000
     14102      4701  TIP3      H1             36.8130303705      -36.2445971127       15.7582669866  W2        4847            0.0000000000
     14103      4701  TIP3      H2             37.6070803705      -37.4385271127       16.2439469866  W2        4847            0.0000000000
     14104      4702  TIP3      OH2            37.3570003705      -24.7786971127       14.2608069866  W2        4848            0.0000000000
     14105      4702  TIP3      H1             37.5740303705      -25.7104571127       14.2297769866  W2        4848            0.0000000000
     14106      4702  TIP3      H2             37.6033503705      -24.5041971127       15.1440869866  W2        4848            0.0000000000
     14107      4703  TIP3      OH2            38.6086303705      -29.5044871127        4.4368269866  W2        4849            0.0000000000
     14108      4703  TIP3      H1             37.9225603705      -29.1522371127        5.0037969866  W2        4849            0.0000000000
     14109      4703  TIP3      H2             39.1314203705      -28.7415271127        4.1902569866  W2        4849            0.0000000000
     14110      4704  TIP3      OH2            39.2245203705      -26.8905971127        3.3336069866  W2        4850            0.0000000000
     14111      4704  TIP3      H1             39.8166703705      -26.1911171127        3.6098469866  W2        4850            0.0000000000
     14112      4704  TIP3      H2             39.6838203705      -27.3236471127        2.6140669866  W2        4850            0.0000000000
     14113      4705  TIP3      OH2            37.5404403705      -34.2262971127        2.4495469866  W2        4851            0.0000000000
     14114      4705  TIP3      H1             37.4957003705      -33.2869871127        2.6282469866  W2        4851            0.0000000000
     14115      4705  TIP3      H2             36.6527603705      -34.4618071127        2.1797569866  W2        4851            0.0000000000
     14116      4706  TIP3      OH2            38.3486403705      -39.4446371127       11.1226469866  W2        4852            0.0000000000
     14117      4706  TIP3      H1             38.1196203705      -39.3853871127       10.1951469866  W2        4852            0.0000000000
     14118      4706  TIP3      H2             37.9059803705      -40.2360871127       11.4290569866  W2        4852            0.0000000000
     14119      4707  TIP3      OH2            37.2789703705      -25.5039271127        7.2832269866  W2        4853            0.0000000000
     14120      4707  TIP3      H1             36.4468303705      -25.0316571127        7.3103669866  W2        4853            0.0000000000
     14121      4707  TIP3      H2             37.8248003705      -24.9941671127        6.6845369866  W2        4853            0.0000000000
     14122      4708  TIP3      OH2            36.5017403705      -27.1950271127        2.7522069866  W2        4859            0.0000000000
     14123      4708  TIP3      H1             37.4156603705      -27.1161371127        3.0255969866  W2        4859            0.0000000000
     14124      4708  TIP3      H2             36.5090503705      -27.8820671127        2.0857669866  W2        4859            0.0000000000
     14125      4709  TIP3      OH2            35.1508003705      -21.8021771127        7.8295969866  W2        4860            0.0000000000
     14126      4709  TIP3      H1             34.5035103705      -22.2640071127        7.2967169866  W2        4860            0.0000000000
     14127      4709  TIP3      H2             35.5052603705      -22.4738471127        8.4122169866  W2        4860            0.0000000000
     14128      4710  TIP3      OH2            36.0207203705      -23.7214771127        9.6342169866  W2        4861            0.0000000000
     14129      4710  TIP3      H1             35.6864003705      -24.6017471127        9.8062369866  W2        4861            0.0000000000
     14130      4710  TIP3      H2             36.2429603705      -23.3759771127       10.4987769866  W2        4861            0.0000000000
     14131      4711  TIP3      OH2            36.1006703705      -30.6459371127       12.0857069866  W2        4862            0.0000000000
     14132      4711  TIP3      H1             36.2849603705      -30.7277671127       11.1499969866  W2        4862            0.0000000000
     14133      4711  TIP3      H2             36.9499603705      -30.7702371127       12.5093469866  W2        4862            0.0000000000
     14134      4712  TIP3      OH2            36.9194003705      -37.0632771127       11.1178769866  W2        4864            0.0000000000
     14135      4712  TIP3      H1             37.3645603705      -37.8550271127       11.4198469866  W2        4864            0.0000000000
     14136      4712  TIP3      H2             37.3857003705      -36.3467571127       11.5484369866  W2        4864            0.0000000000
     14137      4713  TIP3      OH2            35.2234303705      -34.0639771127       12.1868969866  W2        4865            0.0000000000
     14138      4713  TIP3      H1             35.7154103705      -34.2849271127       11.3960969866  W2        4865            0.0000000000
     14139      4713  TIP3      H2             35.5855203705      -33.2236371127       12.4678469866  W2        4865            0.0000000000
     14140      4714  TIP3      OH2            35.5370803705      -37.8060671127        6.2411369866  W2        4866            0.0000000000
     14141      4714  TIP3      H1             34.6119203705      -37.5974071127        6.1116869866  W2        4866            0.0000000000
     14142      4714  TIP3      H2             35.9910703705      -37.3219871127        5.5513669866  W2        4866            0.0000000000
     14143      4715  TIP3      OH2            35.5006203705      -39.0681671127       14.5853869866  W2        4867            0.0000000000
     14144      4715  TIP3      H1             34.8356703705      -39.3141371127       15.2284769866  W2        4867            0.0000000000
     14145      4715  TIP3      H2             35.0577503705      -38.4461271127       14.0081869866  W2        4867            0.0000000000
     14146      4716  TIP3      OH2            38.0485103705      -21.6622471127       15.0358969866  W2        4869            0.0000000000
     14147      4716  TIP3      H1             37.3281503705      -21.2221471127       14.5846669866  W2        4869            0.0000000000
     14148      4716  TIP3      H2             37.6829103705      -21.9127771127       15.8842969866  W2        4869            0.0000000000
     14149      4717  TIP3      OH2            40.5157703705      -22.0618571127       14.0656169866  W2        4870            0.0000000000
     14150      4717  TIP3      H1             39.6509903705      -21.9900071127       14.4696269866  W2        4870            0.0000000000
     14151      4717  TIP3      H2             40.4606703705      -21.5151271127       13.2818669866  W2        4870            0.0000000000
     14152      4718  TIP3      OH2            37.4633203705      -23.0389971127       11.9460769866  W2        4871            0.0000000000
     14153      4718  TIP3      H1             37.4449203705      -23.4644871127       12.8033069866  W2        4871            0.0000000000
     14154      4718  TIP3      H2             38.2681103705      -23.3574971127       11.5372969866  W2        4871            0.0000000000
     14155      4719  TIP3      OH2            39.6046303705      -24.3291271127       10.6010669866  W2        4872            0.0000000000
     14156      4719  TIP3      H1             39.3857003705      -25.2453871127       10.7706669866  W2        4872            0.0000000000
     14157      4719  TIP3      H2             40.4288503705      -24.1890871127       11.0672069866  W2        4872            0.0000000000
     14158      4720  TIP3      OH2            37.9770003705      -39.5611071127        8.4161869866  W2        4873            0.0000000000
     14159      4720  TIP3      H1             37.1999803705      -39.7956171127        7.9087769866  W2        4873            0.0000000000
     14160      4720  TIP3      H2             38.5073603705      -40.3578971127        8.4249869866  W2        4873            0.0000000000
     14161      4721  TIP3      OH2            36.8133403705      -39.7632971127        4.2197969866  W2        4874            0.0000000000
     14162      4721  TIP3      H1             37.2524103705      -39.1522471127        3.6281469866  W2        4874            0.0000000000
     14163      4721  TIP3      H2             36.1795803705      -39.2248871127        4.6937969866  W2        4874            0.0000000000
     14164      4722  TIP3      OH2            36.7142903705      -23.8150771127        5.1173069866  W2        4875            0.0000000000
     14165      4722  TIP3      H1             36.0292803705      -23.8531871127        4.4498169866  W2        4875            0.0000000000
     14166      4722  TIP3      H2             36.7180103705      -22.9023171127        5.4055169866  W2        4875            0.0000000000
     14167      4723  TIP3      OH2            38.6742503705      -37.8471471127        2.6622069866  W2        4876            0.0000000000
     14168      4723  TIP3      H1             39.1655903705      -38.4769071127        2.1347569866  W2        4876            0.0000000000
     14169      4723  TIP3      H2             39.2978803705      -37.5512071127        3.3253269866  W2        4876            0.0000000000
     14170      4724  TIP3      OH2            38.5324103705      -22.8949971127        2.1425169866  W2        4879            0.0000000000
     14171      4724  TIP3      H1             38.2648703705      -22.6087071127        3.0158269866  W2        4879            0.0000000000
     14172      4724  TIP3      H2             39.3036703705      -23.4410771127        2.2947669866  W2        4879            0.0000000000
     14173      4725  TIP3      OH2           -28.3687396295      -11.5488771127        8.3749369866  W2        4880            0.0000000000
     14174      4725  TIP3      H1            -28.2796296295      -10.6050571127        8.2426469866  W2        4880            0.0000000000
     14175      4725  TIP3      H2            -29.0069796295      -11.8242371127        7.7168769866  W2        4880            0.0000000000
     14176      4726  TIP3      OH2           -29.4356096295      -12.2938071127       11.7937569866  W2        4881            0.0000000000
     14177      4726  TIP3      H1            -29.4738596295      -12.9401771127       12.4987169866  W2        4881            0.0000000000
     14178      4726  TIP3      H2            -29.7579596295      -12.7603671127       11.0226269866  W2        4881            0.0000000000
     14179      4727  TIP3      OH2           -37.0671096295      -12.6795971127       13.3867469866  W2        4882            0.0000000000
     14180      4727  TIP3      H1            -37.0258996295      -13.3052671127       14.1099869866  W2        4882            0.0000000000
     14181      4727  TIP3      H2            -36.3643396295      -12.0557371127       13.5687869866  W2        4882            0.0000000000
     14182      4728  TIP3      OH2           -25.7295896295       -9.3547671127       10.0952669866  W2        4883            0.0000000000
     14183      4728  TIP3      H1            -26.1703196295      -10.0751671127       10.5458269866  W2        4883            0.0000000000
     14184      4728  TIP3      H2            -25.7426196295       -8.6340471127       10.7250369866  W2        4883            0.0000000000
     14185      4729  TIP3      OH2           -36.1437996295       -8.2297071127       11.9216569866  W2        4884            0.0000000000
     14186      4729  TIP3      H1            -36.5132796295       -9.0316571127       11.5520869866  W2        4884            0.0000000000
     14187      4729  TIP3      H2            -35.2026896295       -8.3982171127       11.9679969866  W2        4884            0.0000000000
     14188      4730  TIP3      OH2           -39.5337496295      -14.5694471127        7.3145369866  W2        4885            0.0000000000
     14189      4730  TIP3      H1            -39.9814096295      -13.7235771127        7.2961869866  W2        4885            0.0000000000
     14190      4730  TIP3      H2            -40.0946296295      -15.1490271127        6.7990469866  W2        4885            0.0000000000
     14191      4731  TIP3      OH2           -38.8231396295      -12.4074871127        9.4403369866  W2        4886            0.0000000000
     14192      4731  TIP3      H1            -38.6097896295      -13.1773271127        9.9676369866  W2        4886            0.0000000000
     14193      4731  TIP3      H2            -38.0853796295      -12.3178171127        8.8370969866  W2        4886            0.0000000000
     14194      4732  TIP3      OH2           -28.6180396295       -4.2505971127       10.3073069866  W2        4887            0.0000000000
     14195      4732  TIP3      H1            -27.9983996295       -4.9271271127       10.0342269866  W2        4887            0.0000000000
     14196      4732  TIP3      H2            -28.8262996295       -4.4685171127       11.2157969866  W2        4887            0.0000000000
     14197      4733  TIP3      OH2           -31.0461696295       -9.8616671127       12.1998569866  W2        4888            0.0000000000
     14198      4733  TIP3      H1            -30.7423796295      -10.5475271127       11.6052669866  W2        4888            0.0000000000
     14199      4733  TIP3      H2            -30.3247696295       -9.7427971127       12.8176569866  W2        4888            0.0000000000
     14200      4734  TIP3      OH2           -22.3831896295      -18.2601371127       13.0604769866  W2        4889            0.0000000000
     14201      4734  TIP3      H1            -22.3339696295      -17.6500171127       13.7963869866  W2        4889            0.0000000000
     14202      4734  TIP3      H2            -21.9576796295      -17.7990471127       12.3375869866  W2        4889            0.0000000000
     14203      4735  TIP3      OH2           -27.9054696295      -15.4674271127       12.5273369866  W2        4890            0.0000000000
     14204      4735  TIP3      H1            -27.7628796295      -16.4137271127       12.5474969866  W2        4890            0.0000000000
     14205      4735  TIP3      H2            -28.0115696295      -15.2604471127       11.5988269866  W2        4890            0.0000000000
     14206      4736  TIP3      OH2           -34.7506396295      -17.3657871127        9.7998169866  W2        4891            0.0000000000
     14207      4736  TIP3      H1            -34.7075296295      -16.5059371127        9.3814469866  W2        4891            0.0000000000
     14208      4736  TIP3      H2            -35.2082296295      -17.9183171127        9.1661369866  W2        4891            0.0000000000
     14209      4737  TIP3      OH2           -27.0283696295      -17.2352271127        8.2006469866  W2        4892            0.0000000000
     14210      4737  TIP3      H1            -26.3819396295      -17.5639071127        8.8254069866  W2        4892            0.0000000000
     14211      4737  TIP3      H2            -26.5184296295      -16.7173271127        7.5777869866  W2        4892            0.0000000000
     14212      4738  TIP3      OH2           -38.1304896295      -14.9692071127       10.5619569866  W2        4893            0.0000000000
     14213      4738  TIP3      H1            -37.4768296295      -15.5190371127       10.9939669866  W2        4893            0.0000000000
     14214      4738  TIP3      H2            -38.1065596295      -15.2433071127        9.6451569866  W2        4893            0.0000000000
     14215      4739  TIP3      OH2           -32.9740396295      -13.4190771127        9.7771069866  W2        4894            0.0000000000
     14216      4739  TIP3      H1            -32.3579396295      -13.9455371127       10.2865069866  W2        4894            0.0000000000
     14217      4739  TIP3      H2            -33.5601596295      -14.0592071127        9.3734669866  W2        4894            0.0000000000
     14218      4740  TIP3      OH2           -21.9917296295      -16.7822171127       15.2964569866  W2        4895            0.0000000000
     14219      4740  TIP3      H1            -22.6802696295      -16.1241471127       15.2011169866  W2        4895            0.0000000000
     14220      4740  TIP3      H2            -21.9762696295      -16.9794271127       16.2329969866  W2        4895            0.0000000000
     14221      4741  TIP3      OH2           -35.9404496295      -18.4479471127       13.8738969866  W2        4896            0.0000000000
     14222      4741  TIP3      H1            -36.1592796295      -17.9178871127       13.1074969866  W2        4896            0.0000000000
     14223      4741  TIP3      H2            -36.6083596295      -18.2213971127       14.5210369866  W2        4896            0.0000000000
     14224      4742  TIP3      OH2           -28.5714696295       -8.9478371127        7.4178069866  W2        4897            0.0000000000
     14225      4742  TIP3      H1            -28.8669596295       -9.2706071127        6.5664969866  W2        4897            0.0000000000
     14226      4742  TIP3      H2            -28.8956896295       -8.0481671127        7.4590669866  W2        4897            0.0000000000
     14227      4743  TIP3      OH2           -33.3713096295      -10.7723771127       14.1612669866  W2        4898            0.0000000000
     14228      4743  TIP3      H1            -34.1113996295      -10.1742271127       14.2647869866  W2        4898            0.0000000000
     14229      4743  TIP3      H2            -32.6573596295      -10.2184171127       13.8456269866  W2        4898            0.0000000000
     14230      4744  TIP3      OH2           -25.2645296295      -17.9442971127       10.1812369866  W2        4899            0.0000000000
     14231      4744  TIP3      H1            -25.4797296295      -18.7099571127       10.7138369866  W2        4899            0.0000000000
     14232      4744  TIP3      H2            -24.6087896295      -17.4718371127       10.6940869866  W2        4899            0.0000000000
     14233      4745  TIP3      OH2           -36.3467196295      -16.5557671127       11.8261169866  W2        4900            0.0000000000
     14234      4745  TIP3      H1            -35.7330896295      -15.9230071127       12.1993569866  W2        4900            0.0000000000
     14235      4745  TIP3      H2            -35.8346496295      -17.0282671127       11.1698069866  W2        4900            0.0000000000
     14236      4746  TIP3      OH2           -34.9638796295       -8.8080771127       14.9484169866  W2        4901            0.0000000000
     14237      4746  TIP3      H1            -34.9691196295       -7.9287271127       14.5703469866  W2        4901            0.0000000000
     14238      4746  TIP3      H2            -35.8174696295       -8.8916671127       15.3734069866  W2        4901            0.0000000000
     14239      4747  TIP3      OH2           -38.8427896295       -9.1372871127        5.7303469866  W2        4902            0.0000000000
     14240      4747  TIP3      H1            -39.1146996295       -8.9081871127        4.8416369866  W2        4902            0.0000000000
     14241      4747  TIP3      H2            -38.7972196295       -8.2994071127        6.1908769866  W2        4902            0.0000000000
     14242      4748  TIP3      OH2           -25.2178196295       -7.5156971127       12.4431969866  W2        4903            0.0000000000
     14243      4748  TIP3      H1            -26.1594496295       -7.4573071127       12.6048869866  W2        4903            0.0000000000
     14244      4748  TIP3      H2            -24.9412096295       -6.6096471127       12.3061669866  W2        4903            0.0000000000
     14245      4749  TIP3      OH2           -24.9171196295      -19.2291671127       13.8605869866  W2        4904            0.0000000000
     14246      4749  TIP3      H1            -25.6531996295      -18.6184571127       13.8227169866  W2        4904            0.0000000000
     14247      4749  TIP3      H2            -24.2337196295      -18.8142671127       13.3342269866  W2        4904            0.0000000000
     14248      4750  TIP3      OH2           -31.9139796295      -21.1424371127       11.3263869866  W2        4905            0.0000000000
     14249      4750  TIP3      H1            -32.0315596295      -22.0908371127       11.2722169866  W2        4905            0.0000000000
     14250      4750  TIP3      H2            -32.7689696295      -20.8098271127       11.5994969866  W2        4905            0.0000000000
     14251      4751  TIP3      OH2           -26.9656996295       -5.7343471127        9.0683569866  W2        4906            0.0000000000
     14252      4751  TIP3      H1            -26.5404696295       -6.4415571127        8.5833169866  W2        4906            0.0000000000
     14253      4751  TIP3      H2            -26.6486996295       -4.9330771127        8.6515769866  W2        4906            0.0000000000
     14254      4752  TIP3      OH2           -25.8060496295       -7.8334971127        7.5770169866  W2        4907            0.0000000000
     14255      4752  TIP3      H1            -26.0635696295       -8.5234871127        6.9656069866  W2        4907            0.0000000000
     14256      4752  TIP3      H2            -25.7349696295       -8.2763771127        8.4226069866  W2        4907            0.0000000000
     14257      4753  TIP3      OH2           -24.1200296295       -9.2668271127       16.0543669866  W2        4908            0.0000000000
     14258      4753  TIP3      H1            -23.9803996295       -9.8585771127       15.3150669866  W2        4908            0.0000000000
     14259      4753  TIP3      H2            -23.9527496295       -8.3942371127       15.6982469866  W2        4908            0.0000000000
     14260      4754  TIP3      OH2           -29.6474896295      -12.3048771127        5.8269669866  W2        4909            0.0000000000
     14261      4754  TIP3      H1            -30.3589396295      -11.7699071127        5.4750169866  W2        4909            0.0000000000
     14262      4754  TIP3      H2            -28.9565296295      -12.2496671127        5.1668569866  W2        4909            0.0000000000
     14263      4755  TIP3      OH2           -29.5935696295      -13.8474471127        2.8654669866  W2        4910            0.0000000000
     14264      4755  TIP3      H1            -28.8925796295      -13.8247571127        3.5168669866  W2        4910            0.0000000000
     14265      4755  TIP3      H2            -29.2912796295      -14.4754771127        2.2093969866  W2        4910            0.0000000000
     14266      4756  TIP3      OH2           -22.2780996295      -12.9270271127       14.1204069866  W2        4911            0.0000000000
     14267      4756  TIP3      H1            -22.9306896295      -12.2324671127       14.2094969866  W2        4911            0.0000000000
     14268      4756  TIP3      H2            -21.8130696295      -12.7169371127       13.3105669866  W2        4911            0.0000000000
     14269      4757  TIP3      OH2           -26.2417196295      -12.0955471127        6.7785569866  W2        4912            0.0000000000
     14270      4757  TIP3      H1            -26.9736196295      -11.8671771127        7.3516169866  W2        4912            0.0000000000
     14271      4757  TIP3      H2            -25.7944996295      -12.8092771127        7.2333069866  W2        4912            0.0000000000
     14272      4758  TIP3      OH2           -26.3443696295      -13.9212871127       15.8462569866  W2        4913            0.0000000000
     14273      4758  TIP3      H1            -26.2644596295      -13.1578471127       16.4181069866  W2        4913            0.0000000000
     14274      4758  TIP3      H2            -26.9455996295      -13.6420471127       15.1557669866  W2        4913            0.0000000000
     14275      4759  TIP3      OH2           -34.5963496295      -11.4649271127        8.6610569866  W2        4914            0.0000000000
     14276      4759  TIP3      H1            -34.9268296295      -11.8355871127        7.8427569866  W2        4914            0.0000000000
     14277      4759  TIP3      H2            -34.0079396295      -12.1355271127        9.0078869866  W2        4914            0.0000000000
     14278      4760  TIP3      OH2           -33.2295996295       -8.0368671127       11.3422769866  W2        4915            0.0000000000
     14279      4760  TIP3      H1            -33.3244696295       -8.6155571127       10.5857369866  W2        4915            0.0000000000
     14280      4760  TIP3      H2            -32.5002396295       -8.4082971127       11.8385569866  W2        4915            0.0000000000
     14281      4761  TIP3      OH2           -34.2297996295      -12.6963671127       12.2945569866  W2        4916            0.0000000000
     14282      4761  TIP3      H1            -33.6645496295      -12.5749471127       11.5316769866  W2        4916            0.0000000000
     14283      4761  TIP3      H2            -33.9109096295      -12.0588671127       12.9334069866  W2        4916            0.0000000000
     14284      4762  TIP3      OH2           -27.9205796295       -7.1931771127       13.0286069866  W2        4917            0.0000000000
     14285      4762  TIP3      H1            -28.1609196295       -6.5308671127       13.6765269866  W2        4917            0.0000000000
     14286      4762  TIP3      H2            -28.1187596295       -8.0276571127       13.4535669866  W2        4917            0.0000000000
     14287      4763  TIP3      OH2           -33.3497296295       -8.2970971127       17.0117469866  W2        4918            0.0000000000
     14288      4763  TIP3      H1            -33.6609796295       -7.5147771127       17.4670669866  W2        4918            0.0000000000
     14289      4763  TIP3      H2            -33.9997096295       -8.4501871127       16.3259469866  W2        4918            0.0000000000
     14290      4764  TIP3      OH2           -27.3707696295      -12.9332571127        4.4636769866  W2        4919            0.0000000000
     14291      4764  TIP3      H1            -26.7912196295      -12.7832271127        5.2105669866  W2        4919            0.0000000000
     14292      4764  TIP3      H2            -26.9567696295      -12.4625171127        3.7403169866  W2        4919            0.0000000000
     14293      4765  TIP3      OH2           -36.4297396295      -12.0989871127       16.2403169866  W2        4920            0.0000000000
     14294      4765  TIP3      H1            -36.3594196295      -11.4483071127       16.9388169866  W2        4920            0.0000000000
     14295      4765  TIP3      H2            -37.3205196295      -11.9962371127       15.9054069866  W2        4920            0.0000000000
     14296      4766  TIP3      OH2           -29.6442796295       -6.1964071127        7.8989869866  W2        4921            0.0000000000
     14297      4766  TIP3      H1            -29.1705196295       -5.9007771127        8.6764069866  W2        4921            0.0000000000
     14298      4766  TIP3      H2            -30.2073496295       -5.4582471127        7.6659469866  W2        4921            0.0000000000
     14299      4767  TIP3      OH2           -23.6719296295      -21.1832171127        4.2766469866  W2        4923            0.0000000000
     14300      4767  TIP3      H1            -24.5718596295      -21.0443171127        4.5717069866  W2        4923            0.0000000000
     14301      4767  TIP3      H2            -23.4200896295      -20.3517571127        3.8748169866  W2        4923            0.0000000000
     14302      4768  TIP3      OH2           -35.6060796295      -12.3954971127        6.2503369866  W2        4924            0.0000000000
     14303      4768  TIP3      H1            -35.8979496295      -11.6273271127        5.7594669866  W2        4924            0.0000000000
     14304      4768  TIP3      H2            -36.2805596295      -13.0548771127        6.0874769866  W2        4924            0.0000000000
     14305      4769  TIP3      OH2           -22.4827896295       -6.8169771127        2.6530369866  W2        4925            0.0000000000
     14306      4769  TIP3      H1            -22.4094396295       -5.8779571127        2.8235669866  W2        4925            0.0000000000
     14307      4769  TIP3      H2            -21.5772796295       -7.1221171127        2.5967669866  W2        4925            0.0000000000
     14308      4770  TIP3      OH2           -39.5130696295      -10.0325771127       15.0653169866  W2        4926            0.0000000000
     14309      4770  TIP3      H1            -40.0142296295      -10.0606371127       14.2502869866  W2        4926            0.0000000000
     14310      4770  TIP3      H2            -39.5076996295      -10.9382571127       15.3750469866  W2        4926            0.0000000000
     14311      4771  TIP3      OH2           -39.7627996295       -7.2521971127       11.9493369866  W2        4927            0.0000000000
     14312      4771  TIP3      H1            -38.8167396295       -7.3964971127       11.9302869866  W2        4927            0.0000000000
     14313      4771  TIP3      H2            -39.8751696295       -6.4679171127       12.4864569866  W2        4927            0.0000000000
     14314      4772  TIP3      OH2           -30.5865496295       -7.0123071127       16.5078469866  W2        4929            0.0000000000
     14315      4772  TIP3      H1            -30.4990896295       -6.1858471127       16.9827569866  W2        4929            0.0000000000
     14316      4772  TIP3      H2            -31.4500396295       -7.3419271127       16.7567769866  W2        4929            0.0000000000
     14317      4773  TIP3      OH2           -30.1719696295       -3.2399371127        6.3139069866  W2        4930            0.0000000000
     14318      4773  TIP3      H1            -30.2473696295       -3.3612171127        5.3674269866  W2        4930            0.0000000000
     14319      4773  TIP3      H2            -30.1390996295       -2.2906671127        6.4323669866  W2        4930            0.0000000000
     14320      4774  TIP3      OH2           -36.5185896295       -4.4512371127        8.0948069866  W2        4931            0.0000000000
     14321      4774  TIP3      H1            -36.3665496295       -4.7991971127        8.9734569866  W2        4931            0.0000000000
     14322      4774  TIP3      H2            -37.3695496295       -4.8075071127        7.8395269866  W2        4931            0.0000000000
     14323      4775  TIP3      OH2           -27.0703696295       -4.0859171127        3.3161469866  W2        4932            0.0000000000
     14324      4775  TIP3      H1            -26.6955296295       -4.8303071127        2.8454069866  W2        4932            0.0000000000
     14325      4775  TIP3      H2            -27.0659996295       -4.3558571127        4.2344769866  W2        4932            0.0000000000
     14326      4776  TIP3      OH2           -27.4015596295       -4.1602071127        6.0653669866  W2        4933            0.0000000000
     14327      4776  TIP3      H1            -28.3365796295       -4.0600171127        6.2440669866  W2        4933            0.0000000000
     14328      4776  TIP3      H2            -27.1213696295       -4.8696071127        6.6436869866  W2        4933            0.0000000000
     14329      4777  TIP3      OH2           -37.2640196295       -8.7090371127       16.1085969866  W2        4935            0.0000000000
     14330      4777  TIP3      H1            -37.0478896295       -9.0704771127       16.9681769866  W2        4935            0.0000000000
     14331      4777  TIP3      H2            -38.1195496295       -9.0836571127       15.8989469866  W2        4935            0.0000000000
     14332      4778  TIP3      OH2           -34.6452196295      -20.2389871127       12.1040169866  W2        4936            0.0000000000
     14333      4778  TIP3      H1            -35.5068496295      -20.3261671127       11.6963069866  W2        4936            0.0000000000
     14334      4778  TIP3      H2            -34.6676496295      -19.3829771127       12.5317769866  W2        4936            0.0000000000
     14335      4779  TIP3      OH2           -29.9824396295      -20.5169471127       15.4787169866  W2        4937            0.0000000000
     14336      4779  TIP3      H1            -29.5621296295      -20.9322371127       16.2317769866  W2        4937            0.0000000000
     14337      4779  TIP3      H2            -30.9154796295      -20.6956171127       15.5959169866  W2        4937            0.0000000000
     14338      4780  TIP3      OH2           -26.6559496295      -16.7614271127       16.3321669866  W2        4938            0.0000000000
     14339      4780  TIP3      H1            -27.1699996295      -16.8872071127       17.1297669866  W2        4938            0.0000000000
     14340      4780  TIP3      H2            -26.8114796295      -15.8491171127       16.0877869866  W2        4938            0.0000000000
     14341      4781  TIP3      OH2           -25.8934596295      -11.9004271127        2.0934669866  W2        4939            0.0000000000
     14342      4781  TIP3      H1            -25.8513796295      -12.1230371127        1.1634669866  W2        4939            0.0000000000
     14343      4781  TIP3      H2            -25.0442496295      -11.5017171127        2.2834569866  W2        4939            0.0000000000
     14344      4782  TIP3      OH2           -30.3207096295      -18.0246071127        2.7637969866  W2        4940            0.0000000000
     14345      4782  TIP3      H1            -30.5742296295      -18.0054471127        3.6866069866  W2        4940            0.0000000000
     14346      4782  TIP3      H2            -30.5774996295      -18.8960671127        2.4624169866  W2        4940            0.0000000000
     14347      4783  TIP3      OH2           -34.5542096295      -15.2735371127       13.1990369866  W2        4941            0.0000000000
     14348      4783  TIP3      H1            -35.1959996295      -15.3138071127       13.9080469866  W2        4941            0.0000000000
     14349      4783  TIP3      H2            -34.5170096295      -14.3470671127       12.9613369866  W2        4941            0.0000000000
     14350      4784  TIP3      OH2           -34.5572996295      -15.0525271127        8.1110369866  W2        4942            0.0000000000
     14351      4784  TIP3      H1            -35.4500096295      -15.3929171127        8.0524169866  W2        4942            0.0000000000
     14352      4784  TIP3      H2            -34.1066396295      -15.4294371127        7.3553569866  W2        4942            0.0000000000
     14353      4785  TIP3      OH2           -29.0217496295      -14.6364971127        6.9281169866  W2        4943            0.0000000000
     14354      4785  TIP3      H1            -29.4307196295      -13.8216371127        6.6365969866  W2        4943            0.0000000000
     14355      4785  TIP3      H2            -28.3011296295      -14.7764871127        6.3138269866  W2        4943            0.0000000000
     14356      4786  TIP3      OH2           -28.0169796295      -15.1904571127        9.7420869866  W2        4945            0.0000000000
     14357      4786  TIP3      H1            -28.2125296295      -14.5847771127        9.0271469866  W2        4945            0.0000000000
     14358      4786  TIP3      H2            -27.8357196295      -16.0239371127        9.3077169866  W2        4945            0.0000000000
     14359      4787  TIP3      OH2           -36.8041596295      -14.9531871127       15.0662369866  W2        4946            0.0000000000
     14360      4787  TIP3      H1            -36.8422196295      -14.5530271127       15.9349469866  W2        4946            0.0000000000
     14361      4787  TIP3      H2            -37.2950496295      -15.7699471127       15.1565269866  W2        4946            0.0000000000
     14362      4788  TIP3      OH2           -33.4384196295      -17.5789571127        1.8648369866  W2        4947            0.0000000000
     14363      4788  TIP3      H1            -33.8693496295      -18.0239471127        2.5945769866  W2        4947            0.0000000000
     14364      4788  TIP3      H2            -34.1565496295      -17.2073271127        1.3525869866  W2        4947            0.0000000000
     14365      4789  TIP3      OH2           -40.1960796295      -17.8370071127        8.9167069866  W2        4948            0.0000000000
     14366      4789  TIP3      H1            -39.5653096295      -17.8657971127        9.6360969866  W2        4948            0.0000000000
     14367      4789  TIP3      H2            -39.7466496295      -18.2621371127        8.1862969866  W2        4948            0.0000000000
     14368      4790  TIP3      OH2           -38.9218696295      -17.0908071127        4.3407469866  W2        4949            0.0000000000
     14369      4790  TIP3      H1            -38.4476996295      -16.4998171127        3.7558369866  W2        4949            0.0000000000
     14370      4790  TIP3      H2            -39.6392296295      -16.5605171127        4.6877569866  W2        4949            0.0000000000
     14371      4791  TIP3      OH2           -28.7530596295      -13.5523271127       14.4133269866  W2        4950            0.0000000000
     14372      4791  TIP3      H1            -28.4295796295      -14.1833571127       13.7703769866  W2        4950            0.0000000000
     14373      4791  TIP3      H2            -29.1931296295      -14.0871071127       15.0740669866  W2        4950            0.0000000000
     14374      4792  TIP3      OH2           -31.9757696295      -17.6247771127        9.1974469866  W2        4951            0.0000000000
     14375      4792  TIP3      H1            -32.8866596295      -17.5680971127        9.4860469866  W2        4951            0.0000000000
     14376      4792  TIP3      H2            -31.4704796295      -17.6852271127       10.0081669866  W2        4951            0.0000000000
     14377      4793  TIP3      OH2           -37.1474296295      -15.9961471127        8.0242069866  W2        4952            0.0000000000
     14378      4793  TIP3      H1            -38.0366296295      -15.8965971127        7.6841669866  W2        4952            0.0000000000
     14379      4793  TIP3      H2            -36.8509396295      -16.8378471127        7.6779969866  W2        4952            0.0000000000
     14380      4794  TIP3      OH2           -33.4942496295      -15.9958871127        5.6806669866  W2        4953            0.0000000000
     14381      4794  TIP3      H1            -32.5626996295      -15.8668871127        5.8589769866  W2        4953            0.0000000000
     14382      4794  TIP3      H2            -33.7092196295      -15.3264571127        5.0311369866  W2        4953            0.0000000000
     14383      4795  TIP3      OH2           -27.5705796295      -18.3901471127       12.4616269866  W2        4954            0.0000000000
     14384      4795  TIP3      H1            -28.2474196295      -18.2588371127       13.1255969866  W2        4954            0.0000000000
     14385      4795  TIP3      H2            -28.0560896295      -18.5451971127       11.6513969866  W2        4954            0.0000000000
     14386      4796  TIP3      OH2           -34.8202296295      -14.8016671127        3.2472769866  W2        4955            0.0000000000
     14387      4796  TIP3      H1            -35.3627196295      -15.1812871127        2.5560369866  W2        4955            0.0000000000
     14388      4796  TIP3      H2            -33.9867396295      -14.6071971127        2.8186869866  W2        4955            0.0000000000
     14389      4797  TIP3      OH2           -30.6557996295      -14.8374771127       11.0844069866  W2        4958            0.0000000000
     14390      4797  TIP3      H1            -30.0914596295      -15.3838171127       10.5373669866  W2        4958            0.0000000000
     14391      4797  TIP3      H2            -30.8034596295      -15.3592871127       11.8731669866  W2        4958            0.0000000000
     14392      4798  TIP3      OH2           -35.6538296295      -18.7008671127        7.5028869866  W2        4959            0.0000000000
     14393      4798  TIP3      H1            -35.9708796295      -19.6033371127        7.4674269866  W2        4959            0.0000000000
     14394      4798  TIP3      H2            -34.8724196295      -18.6991271127        6.9500469866  W2        4959            0.0000000000
     14395      4799  TIP3      OH2           -32.0292096295      -16.4488671127       13.4984469866  W2        4960            0.0000000000
     14396      4799  TIP3      H1            -32.8646796295      -15.9949171127       13.6086869866  W2        4960            0.0000000000
     14397      4799  TIP3      H2            -31.5051496295      -16.1730171127       14.2504369866  W2        4960            0.0000000000
     14398      4800  TIP3      OH2           -31.4849496295      -10.2360971127        5.1830869866  W2        4961            0.0000000000
     14399      4800  TIP3      H1            -32.2298496295      -10.7435671127        4.8608769866  W2        4961            0.0000000000
     14400      4800  TIP3      H2            -31.6192296295      -10.1872971127        6.1295669866  W2        4961            0.0000000000
     14401      4801  TIP3      OH2           -24.3350596295      -11.1032771127       13.9698469866  W2        4962            0.0000000000
     14402      4801  TIP3      H1            -23.6931796295      -10.6466471127       13.4260669866  W2        4962            0.0000000000
     14403      4801  TIP3      H2            -25.1653696295      -10.9900371127       13.5072569866  W2        4962            0.0000000000
     14404      4802  TIP3      OH2           -27.5872696295      -17.4221071127        3.3823469866  W2        4963            0.0000000000
     14405      4802  TIP3      H1            -28.5258496295      -17.3105471127        3.2312269866  W2        4963            0.0000000000
     14406      4802  TIP3      H2            -27.2900596295      -16.5654171127        3.6889169866  W2        4963            0.0000000000
     14407      4803  TIP3      OH2           -29.9657396295      -10.0517671127       16.4199969866  W2        4964            0.0000000000
     14408      4803  TIP3      H1            -30.3111296295      -10.4335271127       17.2269569866  W2        4964            0.0000000000
     14409      4803  TIP3      H2            -30.1657296295       -9.1184071127       16.4912869866  W2        4964            0.0000000000
     14410      4804  TIP3      OH2           -26.8689196295      -15.5548371127        5.0430869866  W2        4965            0.0000000000
     14411      4804  TIP3      H1            -25.9770196295      -15.6923371127        5.3622069866  W2        4965            0.0000000000
     14412      4804  TIP3      H2            -26.8125596295      -14.7642271127        4.5064369866  W2        4965            0.0000000000
     14413      4805  TIP3      OH2           -36.3601196295      -10.9410971127       10.9528769866  W2        4966            0.0000000000
     14414      4805  TIP3      H1            -35.6153996295      -10.9435271127       10.3515269866  W2        4966            0.0000000000
     14415      4805  TIP3      H2            -36.2824596295      -11.7647171127       11.4343869866  W2        4966            0.0000000000
     14416      4806  TIP3      OH2           -29.3595396295       -8.7776671127        4.2085469866  W2        4967            0.0000000000
     14417      4806  TIP3      H1            -29.6546996295       -7.9508771127        4.5900269866  W2        4967            0.0000000000
     14418      4806  TIP3      H2            -30.0625396295       -9.3969771127        4.4046869866  W2        4967            0.0000000000
     14419      4807  TIP3      OH2           -39.3521496295      -12.4804071127       16.2677269866  W2        4968            0.0000000000
     14420      4807  TIP3      H1            -39.1292896295      -12.8984471127       17.0994769866  W2        4968            0.0000000000
     14421      4807  TIP3      H2            -39.9541396295      -13.0929071127       15.8450069866  W2        4968            0.0000000000
     14422      4808  TIP3      OH2           -27.7153796295       -7.5902171127       16.3704969866  W2        4970            0.0000000000
     14423      4808  TIP3      H1            -28.6159496295       -7.4069571127       16.1028869866  W2        4970            0.0000000000
     14424      4808  TIP3      H2            -27.6812696295       -7.3312871127       17.2913769866  W2        4970            0.0000000000
     14425      4809  TIP3      OH2           -21.9840496295      -15.3454271127        4.7377569866  W2        4971            0.0000000000
     14426      4809  TIP3      H1            -22.5384196295      -15.7416271127        4.0655069866  W2        4971            0.0000000000
     14427      4809  TIP3      H2            -21.8836896295      -14.4349071127        4.4600869866  W2        4971            0.0000000000
     14428      4810  TIP3      OH2           -23.6888796295       -6.5593871127        5.2029669866  W2        4973            0.0000000000
     14429      4810  TIP3      H1            -24.0617696295       -7.3850071127        5.5120269866  W2        4973            0.0000000000
     14430      4810  TIP3      H2            -23.4115296295       -6.7424471127        4.3053069866  W2        4973            0.0000000000
     14431      4811  TIP3      OH2           -26.5284896295      -11.7514371127       12.2241569866  W2        4974            0.0000000000
     14432      4811  TIP3      H1            -27.4567996295      -11.9832471127       12.1970869866  W2        4974            0.0000000000
     14433      4811  TIP3      H2            -26.0773796295      -12.5284571127       11.8940369866  W2        4974            0.0000000000
     14434      4812  TIP3      OH2           -33.9851796295       -7.4232771127        8.3570269866  W2        4975            0.0000000000
     14435      4812  TIP3      H1            -33.4579596295       -6.6498371127        8.1569069866  W2        4975            0.0000000000
     14436      4812  TIP3      H2            -34.8653296295       -7.1983571127        8.0554269866  W2        4975            0.0000000000
     14437      4813  TIP3      OH2           -38.2304096295      -12.5608671127        2.9442669866  W2        4976            0.0000000000
     14438      4813  TIP3      H1            -37.6144196295      -11.9341471127        3.3237469866  W2        4976            0.0000000000
     14439      4813  TIP3      H2            -39.0921496295      -12.2448871127        3.2159169866  W2        4976            0.0000000000
     14440      4814  TIP3      OH2           -32.5579496295       -9.7602871127        7.9334569866  W2        4977            0.0000000000
     14441      4814  TIP3      H1            -32.7989496295       -8.8348471127        7.9749869866  W2        4977            0.0000000000
     14442      4814  TIP3      H2            -33.2985896295      -10.2191571127        8.3298469866  W2        4977            0.0000000000
     14443      4815  TIP3      OH2           -32.0432896295       -5.6109271127       14.2485669866  W2        4978            0.0000000000
     14444      4815  TIP3      H1            -31.6808196295       -4.7563671127       14.0150069866  W2        4978            0.0000000000
     14445      4815  TIP3      H2            -31.5117696295       -5.9027671127       14.9891969866  W2        4978            0.0000000000
     14446      4816  TIP3      OH2           -33.8748696295       -4.7385271127        7.4786769866  W2        4979            0.0000000000
     14447      4816  TIP3      H1            -34.8248196295       -4.6327871127        7.5300069866  W2        4979            0.0000000000
     14448      4816  TIP3      H2            -33.5230596295       -3.9177871127        7.8234269866  W2        4979            0.0000000000
     14449      4817  TIP3      OH2           -28.4992096295       -9.5118571127       13.9491269866  W2        4980            0.0000000000
     14450      4817  TIP3      H1            -28.9250796295       -9.7396871127       14.7755269866  W2        4980            0.0000000000
     14451      4817  TIP3      H2            -27.9186296295      -10.2506771127       13.7666569866  W2        4980            0.0000000000
     14452      4818  TIP3      OH2           -26.2963196295       -8.5828071127        3.0230269866  W2        4981            0.0000000000
     14453      4818  TIP3      H1            -25.9430096295       -8.9628271127        3.8273769866  W2        4981            0.0000000000
     14454      4818  TIP3      H2            -27.2449696295       -8.6763271127        3.1099569866  W2        4981            0.0000000000
     14455      4819  TIP3      OH2           -25.8407896295       -4.9599071127       16.4186069866  W2        4982            0.0000000000
     14456      4819  TIP3      H1            -26.4424696295       -5.5156171127       15.9232369866  W2        4982            0.0000000000
     14457      4819  TIP3      H2            -25.5594196295       -4.2929271127       15.7923469866  W2        4982            0.0000000000
     14458      4820  TIP3      OH2           -21.7928796295       -4.1035571127        3.2240469866  W2        4983            0.0000000000
     14459      4820  TIP3      H1            -21.0490896295       -3.5175071127        3.0842069866  W2        4983            0.0000000000
     14460      4820  TIP3      H2            -22.4870696295       -3.5349771127        3.5572869866  W2        4983            0.0000000000
     14461      4821  TIP3      OH2           -37.7181996295      -17.7271371127       15.8258669866  W2        4984            0.0000000000
     14462      4821  TIP3      H1            -38.6109696295      -17.3885971127       15.7582669866  W2        4984            0.0000000000
     14463      4821  TIP3      H2            -37.8169196295      -18.5825271127       16.2439469866  W2        4984            0.0000000000
     14464      4822  TIP3      OH2           -25.4303896295       -9.9106071127        5.2498169866  W2        4985            0.0000000000
     14465      4822  TIP3      H1            -25.7076296295      -10.6386771127        5.8059269866  W2        4985            0.0000000000
     14466      4822  TIP3      H2            -24.5030896295       -9.7914071127        5.4550769866  W2        4985            0.0000000000
     14467      4823  TIP3      OH2           -38.0669996295       -5.9226971127       14.2608069866  W2        4986            0.0000000000
     14468      4823  TIP3      H1            -37.8499696295       -6.8544571127       14.2297769866  W2        4986            0.0000000000
     14469      4823  TIP3      H2            -37.8206496295       -5.6481971127       15.1440869866  W2        4986            0.0000000000
     14470      4824  TIP3      OH2           -32.2055396295       -7.4711971127        1.4700269866  W2        4987            0.0000000000
     14471      4824  TIP3      H1            -31.9665596295       -8.2193871127        0.9229169866  W2        4987            0.0000000000
     14472      4824  TIP3      H2            -32.4744096295       -7.8590271127        2.3028069866  W2        4987            0.0000000000
     14473      4825  TIP3      OH2           -33.2684796295       -7.9008171127        3.9262869866  W2        4988            0.0000000000
     14474      4825  TIP3      H1            -33.1216796295       -8.4208371127        4.7163769866  W2        4988            0.0000000000
     14475      4825  TIP3      H2            -33.2713096295       -6.9940571127        4.2328769866  W2        4988            0.0000000000
     14476      4826  TIP3      OH2           -36.8153696295      -10.6484871127        4.4368269866  W2        4989            0.0000000000
     14477      4826  TIP3      H1            -37.5014396295      -10.2962371127        5.0037969866  W2        4989            0.0000000000
     14478      4826  TIP3      H2            -36.2925796295       -9.8855271127        4.1902569866  W2        4989            0.0000000000
     14479      4827  TIP3      OH2           -28.9838596295      -17.9861071127       14.7157269866  W2        4990            0.0000000000
     14480      4827  TIP3      H1            -28.2850696295      -17.9122371127       15.3656969866  W2        4990            0.0000000000
     14481      4827  TIP3      H2            -29.3647196295      -18.8506071127       14.8700169866  W2        4990            0.0000000000
     14482      4828  TIP3      OH2           -28.1993696295      -18.3339371127        5.8129569866  W2        4991            0.0000000000
     14483      4828  TIP3      H1            -27.9795396295      -17.8623971127        5.0094969866  W2        4991            0.0000000000
     14484      4828  TIP3      H2            -27.6409696295      -17.9396771127        6.4830169866  W2        4991            0.0000000000
     14485      4829  TIP3      OH2           -30.5307596295       -6.2034571127        4.6757069866  W2        4992            0.0000000000
     14486      4829  TIP3      H1            -31.3471496295       -5.7064871127        4.7281369866  W2        4992            0.0000000000
     14487      4829  TIP3      H2            -30.0011296295       -5.7281071127        4.0355869866  W2        4992            0.0000000000
     14488      4830  TIP3      OH2           -30.9993796295      -16.6060571127        6.6477969866  W2        4993            0.0000000000
     14489      4830  TIP3      H1            -30.1871196295      -16.1017371127        6.6939669866  W2        4993            0.0000000000
     14490      4830  TIP3      H2            -31.2440796295      -16.7510871127        7.5617569866  W2        4993            0.0000000000
     14491      4831  TIP3      OH2           -30.4637396295      -15.6197871127       15.8324569866  W2        4994            0.0000000000
     14492      4831  TIP3      H1            -30.3447096295      -15.0462471127       16.5894969866  W2        4994            0.0000000000
     14493      4831  TIP3      H2            -29.8082796295      -16.3078471127       15.9472369866  W2        4994            0.0000000000
     14494      4832  TIP3      OH2           -30.1157096295      -19.5247571127        7.5859069866  W2        4995            0.0000000000
     14495      4832  TIP3      H1            -30.4623596295      -18.9076971127        8.2303369866  W2        4995            0.0000000000
     14496      4832  TIP3      H2            -29.4570196295      -19.0241871127        7.1044569866  W2        4995            0.0000000000
     14497      4833  TIP3      OH2           -33.1924496295       -5.1597371127        4.6573969866  W2        4996            0.0000000000
     14498      4833  TIP3      H1            -33.0315796295       -4.3599871127        4.1566569866  W2        4996            0.0000000000
     14499      4833  TIP3      H2            -33.3896696295       -4.8531371127        5.5424569866  W2        4996            0.0000000000
     14500      4834  TIP3      OH2           -34.4580096295      -18.4618171127        4.2731569866  W2        4997            0.0000000000
     14501      4834  TIP3      H1            -34.5415296295      -17.5735071127        4.6197969866  W2        4997            0.0000000000
     14502      4834  TIP3      H2            -33.5679796295      -18.7271471127        4.5048369866  W2        4997            0.0000000000
     14503      4835  TIP3      OH2           -24.2591596295      -17.7127571127       16.6674269866  W2        4998            0.0000000000
     14504      4835  TIP3      H1            -25.1755796295      -17.4505871127       16.5797969866  W2        4998            0.0000000000
     14505      4835  TIP3      H2            -23.9236596295      -17.7158571127       15.7709569866  W2        4998            0.0000000000
     14506      4836  TIP3      OH2           -25.6570596295      -13.9626571127       10.7631569866  W2        4999            0.0000000000
     14507      4836  TIP3      H1            -26.4546196295      -14.3776371127       10.4346569866  W2        4999            0.0000000000
     14508      4836  TIP3      H2            -25.2119496295      -14.6532871127       11.2542069866  W2        4999            0.0000000000
     14509      4837  TIP3      OH2           -36.1994796295       -8.0345971127        3.3336069866  W2        5000            0.0000000000
     14510      4837  TIP3      H1            -35.6073296295       -7.3351171127        3.6098469866  W2        5000            0.0000000000
     14511      4837  TIP3      H2            -35.7401796295       -8.4676471127        2.6140669866  W2        5000            0.0000000000
     14512      4838  TIP3      OH2           -37.8835596295      -15.3702971127        2.4495469866  W2        5001            0.0000000000
     14513      4838  TIP3      H1            -37.9282996295      -14.4309871127        2.6282469866  W2        5001            0.0000000000
     14514      4838  TIP3      H2            -38.7712396295      -15.6058071127        2.1797569866  W2        5001            0.0000000000
     14515      4839  TIP3      OH2           -24.5705996295       -4.7064071127       12.3855069866  W2        5002            0.0000000000
     14516      4839  TIP3      H1            -24.7261696295       -4.0279671127       11.7284369866  W2        5002            0.0000000000
     14517      4839  TIP3      H2            -23.6379596295       -4.6344771127       12.5885669866  W2        5002            0.0000000000
     14518      4840  TIP3      OH2           -37.0753596295      -20.5886371127       11.1226469866  W2        5003            0.0000000000
     14519      4840  TIP3      H1            -37.3043796295      -20.5293871127       10.1951469866  W2        5003            0.0000000000
     14520      4840  TIP3      H2            -37.5180196295      -21.3800871127       11.4290569866  W2        5003            0.0000000000
     14521      4841  TIP3      OH2           -38.1450296295       -6.6479271127        7.2832269866  W2        5004            0.0000000000
     14522      4841  TIP3      H1            -38.9771696295       -6.1756571127        7.3103669866  W2        5004            0.0000000000
     14523      4841  TIP3      H2            -37.5991996295       -6.1381671127        6.6845369866  W2        5004            0.0000000000
     14524      4842  TIP3      OH2           -30.1673596295       -5.6080571127        1.6086269866  W2        5007            0.0000000000
     14525      4842  TIP3      H1            -30.8112596295       -6.2391971127        1.9299969866  W2        5007            0.0000000000
     14526      4842  TIP3      H2            -29.4055296295       -6.1392571127        1.3769769866  W2        5007            0.0000000000
     14527      4843  TIP3      OH2           -25.5630696295       -5.7910671127        1.8424269866  W2        5009            0.0000000000
     14528      4843  TIP3      H1            -25.2800296295       -6.5855471127        2.2951169866  W2        5009            0.0000000000
     14529      4843  TIP3      H2            -24.8232796295       -5.5579671127        1.2815369866  W2        5009            0.0000000000
     14530      4844  TIP3      OH2           -34.6083396295       -9.8815771127        1.6999169866  W2        5011            0.0000000000
     14531      4844  TIP3      H1            -34.5439296295      -10.6756171127        2.2305569866  W2        5011            0.0000000000
     14532      4844  TIP3      H2            -33.9554196295      -10.0002971127        1.0101169866  W2        5011            0.0000000000
     14533      4845  TIP3      OH2           -29.2559996295       -8.8344071127        1.4357169866  W2        5013            0.0000000000
     14534      4845  TIP3      H1            -29.5245896295       -8.6541971127        2.3366069866  W2        5013            0.0000000000
     14535      4845  TIP3      H2            -29.4624396295       -9.7597871127        1.3042969866  W2        5013            0.0000000000
     14536      4846  TIP3      OH2           -26.5595796295      -10.3396071127       16.3833269866  W2        5014            0.0000000000
     14537      4846  TIP3      H1            -25.8140996295       -9.7512371127       16.2637269866  W2        5014            0.0000000000
     14538      4846  TIP3      H2            -27.3168996295       -9.7576371127       16.4466369866  W2        5014            0.0000000000
     14539      4847  TIP3      OH2           -33.4589596295      -11.9089571127        4.0057169866  W2        5016            0.0000000000
     14540      4847  TIP3      H1            -33.9187596295      -12.3931271127        4.6915669866  W2        5016            0.0000000000
     14541      4847  TIP3      H2            -33.2040896295      -12.5774171127        3.3697669866  W2        5016            0.0000000000
     14542      4848  TIP3      OH2           -34.1700296295      -14.0162471127       16.3616769866  W2        5017            0.0000000000
     14543      4848  TIP3      H1            -34.7884196295      -13.3415871127       16.6421469866  W2        5017            0.0000000000
     14544      4848  TIP3      H2            -33.8259096295      -13.6948571127       15.5282969866  W2        5017            0.0000000000
     14545      4849  TIP3      OH2           -32.3879196295      -13.6657771127        2.2680369866  W2        5018            0.0000000000
     14546      4849  TIP3      H1            -32.5684196295      -13.8206571127        1.3408669866  W2        5018            0.0000000000
     14547      4849  TIP3      H2            -31.4378696295      -13.5579071127        2.3128269866  W2        5018            0.0000000000
     14548      4850  TIP3      OH2           -22.9980896295      -11.3113571127        1.7138469866  W2        5020            0.0000000000
     14549      4850  TIP3      H1            -23.2716096295      -11.7358071127        0.9006769866  W2        5020            0.0000000000
     14550      4850  TIP3      H2            -22.9586796295      -10.3799071127        1.4968869866  W2        5020            0.0000000000
     14551      4851  TIP3      OH2           -33.8306596295      -16.6611671127       17.4439869866  W2        5021            0.0000000000
     14552      4851  TIP3      H1            -33.6805696295      -17.3900371127       16.8419569866  W2        5021            0.0000000000
     14553      4851  TIP3      H2            -33.8284196295      -15.8839971127       16.8852069866  W2        5021            0.0000000000
     14554      4852  TIP3      OH2           -33.4180896295      -18.2915871127       14.9367269866  W2        5022            0.0000000000
     14555      4852  TIP3      H1            -32.8823396295      -17.8399171127       14.2846569866  W2        5022            0.0000000000
     14556      4852  TIP3      H2            -34.2701296295      -18.3996071127       14.5141369866  W2        5022            0.0000000000
     14557      4853  TIP3      OH2           -31.8362496295      -12.8519671127       15.1762469866  W2        5023            0.0000000000
     14558      4853  TIP3      H1            -31.0857696295      -13.0082171127       14.6030269866  W2        5023            0.0000000000
     14559      4853  TIP3      H2            -32.1754196295      -12.0003071127       14.9007969866  W2        5023            0.0000000000
     14560      4854  TIP3      OH2           -32.6125396295      -20.8350171127       15.3680869866  W2        5027            0.0000000000
     14561      4854  TIP3      H1            -32.7105796295      -19.8886971127       15.2627069866  W2        5027            0.0000000000
     14562      4854  TIP3      H2            -33.3549196295      -21.2076371127       14.8924369866  W2        5027            0.0000000000
     14563      4855  TIP3      OH2           -32.4907496295       -2.9754071127        3.2693969866  W2        5034            0.0000000000
     14564      4855  TIP3      H1            -31.5576796295       -2.8175371127        3.4132369866  W2        5034            0.0000000000
     14565      4855  TIP3      H2            -32.7548696295       -2.3001071127        2.6445469866  W2        5034            0.0000000000
     14566      4856  TIP3      OH2           -38.9222596295       -8.3390271127        2.7522069866  W2        5035            0.0000000000
     14567      4856  TIP3      H1            -38.0083396295       -8.2601371127        3.0255969866  W2        5035            0.0000000000
     14568      4856  TIP3      H2            -38.9149496295       -9.0260671127        2.0857669866  W2        5035            0.0000000000
     14569      4857  TIP3      OH2           -40.2731996295       -2.9461771127        7.8295969866  W2        5036            0.0000000000
     14570      4857  TIP3      H1            -40.9204896295       -3.4080071127        7.2967169866  W2        5036            0.0000000000
     14571      4857  TIP3      H2            -39.9187396295       -3.6178471127        8.4122169866  W2        5036            0.0000000000
     14572      4858  TIP3      OH2           -39.4032796295       -4.8654771127        9.6342169866  W2        5037            0.0000000000
     14573      4858  TIP3      H1            -39.7375996295       -5.7457471127        9.8062369866  W2        5037            0.0000000000
     14574      4858  TIP3      H2            -39.1810396295       -4.5199771127       10.4987769866  W2        5037            0.0000000000
     14575      4859  TIP3      OH2           -21.8547996295       -4.0558371127       12.6146969866  W2        5038            0.0000000000
     14576      4859  TIP3      H1            -21.8761296295       -3.8709971127       13.5536369866  W2        5038            0.0000000000
     14577      4859  TIP3      H2            -21.1641796295       -3.4874371127       12.2738369866  W2        5038            0.0000000000
     14578      4860  TIP3      OH2           -22.2915096295       -4.4887271127       15.5366069866  W2        5039            0.0000000000
     14579      4860  TIP3      H1            -22.7786396295       -5.2243171127       15.1653469866  W2        5039            0.0000000000
     14580      4860  TIP3      H2            -21.7422396295       -4.8823371127       16.2145469866  W2        5039            0.0000000000
     14581      4861  TIP3      OH2           -22.5398096295      -10.4425471127        5.6888869866  W2        5041            0.0000000000
     14582      4861  TIP3      H1            -21.6896696295      -10.0214571127        5.8160469866  W2        5041            0.0000000000
     14583      4861  TIP3      H2            -22.5342996295      -11.1825371127        6.2960269866  W2        5041            0.0000000000
     14584      4862  TIP3      OH2           -22.1452496295      -12.3888071127        7.5124569866  W2        5042            0.0000000000
     14585      4862  TIP3      H1            -22.8717896295      -12.8685471127        7.9102169866  W2        5042            0.0000000000
     14586      4862  TIP3      H2            -21.5639196295      -12.1833371127        8.2446169866  W2        5042            0.0000000000
     14587      4863  TIP3      OH2           -22.3861296295       -9.6040571127       12.4602169866  W2        5043            0.0000000000
     14588      4863  TIP3      H1            -21.5527096295       -9.9820571127       12.1795769866  W2        5043            0.0000000000
     14589      4863  TIP3      H2            -22.2740996295       -8.6609371127       12.3411269866  W2        5043            0.0000000000
     14590      4864  TIP3      OH2           -23.8998996295       -6.7263071127       14.7670569866  W2        5044            0.0000000000
     14591      4864  TIP3      H1            -24.5473696295       -6.4011571127       15.3925769866  W2        5044            0.0000000000
     14592      4864  TIP3      H2            -24.4174996295       -7.1665371127       14.0928869866  W2        5044            0.0000000000
     14593      4865  TIP3      OH2           -21.8769396295      -12.4879571127        3.9035869866  W2        5045            0.0000000000
     14594      4865  TIP3      H1            -22.3988296295      -12.1315471127        3.1846769866  W2        5045            0.0000000000
     14595      4865  TIP3      H2            -21.9100196295      -11.8131771127        4.5816769866  W2        5045            0.0000000000
     14596      4866  TIP3      OH2           -23.5280396295      -15.2483971127        2.4542969866  W2        5046            0.0000000000
     14597      4866  TIP3      H1            -23.4315996295      -14.5816971127        1.7742669866  W2        5046            0.0000000000
     14598      4866  TIP3      H2            -23.6680796295      -16.0637671127        1.9728469866  W2        5046            0.0000000000
     14599      4867  TIP3      OH2           -24.3585696295      -13.8681571127        8.0753269866  W2        5047            0.0000000000
     14600      4867  TIP3      H1            -24.5086896295      -14.8132971127        8.0551069866  W2        5047            0.0000000000
     14601      4867  TIP3      H2            -24.7121196295      -13.5870171127        8.9192369866  W2        5047            0.0000000000
     14602      4868  TIP3      OH2           -39.3233296295      -11.7899371127       12.0857069866  W2        5048            0.0000000000
     14603      4868  TIP3      H1            -39.1390396295      -11.8717671127       11.1499969866  W2        5048            0.0000000000
     14604      4868  TIP3      H2            -38.4740396295      -11.9142371127       12.5093469866  W2        5048            0.0000000000
     14605      4869  TIP3      OH2           -24.2806596295      -17.8404171127        1.5718469866  W2        5051            0.0000000000
     14606      4869  TIP3      H1            -23.6700796295      -18.2117371127        2.2086669866  W2        5051            0.0000000000
     14607      4869  TIP3      H2            -25.1175096295      -18.2617271127        1.7678469866  W2        5051            0.0000000000
     14608      4870  TIP3      OH2           -24.6480896295      -16.2855771127        6.5378369866  W2        5052            0.0000000000
     14609      4870  TIP3      H1            -24.3683796295      -17.1925371127        6.6620069866  W2        5052            0.0000000000
     14610      4870  TIP3      H2            -23.8889196295      -15.8514271127        6.1487569866  W2        5052            0.0000000000
     14611      4871  TIP3      OH2           -24.0362596295      -15.7038371127       11.9737269866  W2        5053            0.0000000000
     14612      4871  TIP3      H1            -23.1034596295      -15.4918471127       11.9393269866  W2        5053            0.0000000000
     14613      4871  TIP3      H2            -24.2715096295      -15.6026271127       12.8960269866  W2        5053            0.0000000000
     14614      4872  TIP3      OH2           -24.0070696295      -14.9673071127       14.7496669866  W2        5054            0.0000000000
     14615      4872  TIP3      H1            -24.8499396295      -14.6992671127       15.1156469866  W2        5054            0.0000000000
     14616      4872  TIP3      H2            -23.5646396295      -14.1451171127       14.5387769866  W2        5054            0.0000000000
     14617      4873  TIP3      OH2           -24.0346096295      -19.0226471127        6.5860369866  W2        5057            0.0000000000
     14618      4873  TIP3      H1            -23.8521096295      -19.4714971127        7.4115369866  W2        5057            0.0000000000
     14619      4873  TIP3      H2            -24.6343196295      -19.6072071127        6.1224969866  W2        5057            0.0000000000
     14620      4874  TIP3      OH2           -38.5045996295      -18.2072771127       11.1178769866  W2        5058            0.0000000000
     14621      4874  TIP3      H1            -38.0594396295      -18.9990271127       11.4198469866  W2        5058            0.0000000000
     14622      4874  TIP3      H2            -38.0382996295      -17.4907571127       11.5484369866  W2        5058            0.0000000000
     14623      4875  TIP3      OH2           -40.2005696295      -15.2079771127       12.1868969866  W2        5059            0.0000000000
     14624      4875  TIP3      H1            -39.7085896295      -15.4289271127       11.3960969866  W2        5059            0.0000000000
     14625      4875  TIP3      H2            -39.8384796295      -14.3676371127       12.4678469866  W2        5059            0.0000000000
     14626      4876  TIP3      OH2           -22.1679896295      -18.9548371127        3.1140669866  W2        5061            0.0000000000
     14627      4876  TIP3      H1            -21.7557296295      -19.6762671127        2.6388669866  W2        5061            0.0000000000
     14628      4876  TIP3      H2            -21.4863396295      -18.2853771127        3.1724969866  W2        5061            0.0000000000
     14629      4877  TIP3      OH2           -39.8869196295      -18.9500671127        6.2411369866  W2        5062            0.0000000000
     14630      4877  TIP3      H1            -40.8120796295      -18.7414071127        6.1116869866  W2        5062            0.0000000000
     14631      4877  TIP3      H2            -39.4329296295      -18.4659871127        5.5513669866  W2        5062            0.0000000000
     14632      4878  TIP3      OH2           -25.1161996295       -3.9658971127        8.1868769866  W2        5063            0.0000000000
     14633      4878  TIP3      H1            -24.4639096295       -4.3136871127        7.5787869866  W2        5063            0.0000000000
     14634      4878  TIP3      H2            -24.6058196295       -3.4775771127        8.8328469866  W2        5063            0.0000000000
     14635      4879  TIP3      OH2           -39.9233796295      -20.2121671127       14.5853869866  W2        5064            0.0000000000
     14636      4879  TIP3      H1            -40.5883296295      -20.4581371127       15.2284769866  W2        5064            0.0000000000
     14637      4879  TIP3      H2            -40.3662496295      -19.5901271127       14.0081869866  W2        5064            0.0000000000
     14638      4880  TIP3      OH2           -34.7771596295       -6.0626371127       14.9883669866  W2        5066            0.0000000000
     14639      4880  TIP3      H1            -35.2020496295       -5.2527871127       14.7058269866  W2        5066            0.0000000000
     14640      4880  TIP3      H2            -33.8728796295       -5.9772271127       14.6863469866  W2        5066            0.0000000000
     14641      4881  TIP3      OH2           -28.1209796295       -3.3777471127       17.1918769866  W2        5068            0.0000000000
     14642      4881  TIP3      H1            -27.4440896295       -4.0105171127       16.9517969866  W2        5068            0.0000000000
     14643      4881  TIP3      H2            -27.7990996295       -2.9766971127       17.9992069866  W2        5068            0.0000000000
     14644      4882  TIP3      OH2           -23.2035996295      -20.7881971127       16.2713769866  W2        5069            0.0000000000
     14645      4882  TIP3      H1            -24.0162496295      -20.4631671127       15.8838469866  W2        5069            0.0000000000
     14646      4882  TIP3      H2            -22.9707496295      -21.5483471127       15.7382869866  W2        5069            0.0000000000
     14647      4883  TIP3      OH2           -37.3754896295       -2.8062471127       15.0358969866  W2        5070            0.0000000000
     14648      4883  TIP3      H1            -38.0958496295       -2.3661471127       14.5846669866  W2        5070            0.0000000000
     14649      4883  TIP3      H2            -37.7410896295       -3.0567771127       15.8842969866  W2        5070            0.0000000000
     14650      4884  TIP3      OH2           -34.9082296295       -3.2058571127       14.0656169866  W2        5071            0.0000000000
     14651      4884  TIP3      H1            -35.7730096295       -3.1340071127       14.4696269866  W2        5071            0.0000000000
     14652      4884  TIP3      H2            -34.9633296295       -2.6591271127       13.2818669866  W2        5071            0.0000000000
     14653      4885  TIP3      OH2           -30.1976696295       -3.3179671127       13.2412169866  W2        5072            0.0000000000
     14654      4885  TIP3      H1            -30.6542696295       -2.7889971127       12.5870569866  W2        5072            0.0000000000
     14655      4885  TIP3      H2            -30.0348696295       -2.7148271127       13.9664469866  W2        5072            0.0000000000
     14656      4886  TIP3      OH2           -27.8700396295       -4.4400071127       14.1862469866  W2        5073            0.0000000000
     14657      4886  TIP3      H1            -28.7746696295       -4.2749871127       13.9204569866  W2        5073            0.0000000000
     14658      4886  TIP3      H2            -27.4411796295       -3.5867871127       14.1205869866  W2        5073            0.0000000000
     14659      4887  TIP3      OH2           -25.2658496295       -2.8700971127       14.4810269866  W2        5074            0.0000000000
     14660      4887  TIP3      H1            -25.4476496295       -1.9542071127       14.2705169866  W2        5074            0.0000000000
     14661      4887  TIP3      H2            -25.0890696295       -3.2803871127       13.6344869866  W2        5074            0.0000000000
     14662      4888  TIP3      OH2           -37.9606796295       -4.1829971127       11.9460769866  W2        5075            0.0000000000
     14663      4888  TIP3      H1            -37.9790796295       -4.6084871127       12.8033069866  W2        5075            0.0000000000
     14664      4888  TIP3      H2            -37.1558896295       -4.5014971127       11.5372969866  W2        5075            0.0000000000
     14665      4889  TIP3      OH2           -35.8193696295       -5.4731271127       10.6010669866  W2        5076            0.0000000000
     14666      4889  TIP3      H1            -36.0382996295       -6.3893871127       10.7706669866  W2        5076            0.0000000000
     14667      4889  TIP3      H2            -34.9951496295       -5.3330871127       11.0672069866  W2        5076            0.0000000000
     14668      4890  TIP3      OH2           -33.2821196295       -5.0031971127       11.4498669866  W2        5077            0.0000000000
     14669      4890  TIP3      H1            -33.0695496295       -5.8912971127       11.1629569866  W2        5077            0.0000000000
     14670      4890  TIP3      H2            -33.2176096295       -5.0374271127       12.4042669866  W2        5077            0.0000000000
     14671      4891  TIP3      OH2           -29.7737496295      -19.3391371127       10.5941969866  W2        5078            0.0000000000
     14672      4891  TIP3      H1            -30.4480696295      -19.9685771127       10.8497769866  W2        5078            0.0000000000
     14673      4891  TIP3      H2            -29.2098296295      -19.8232471127        9.9909869866  W2        5078            0.0000000000
     14674      4892  TIP3      OH2           -24.6310296295      -21.2317371127       10.7069069866  W2        5079            0.0000000000
     14675      4892  TIP3      H1            -24.0272696295      -20.6841971127       10.2050069866  W2        5079            0.0000000000
     14676      4892  TIP3      H2            -25.5008296295      -20.9126971127       10.4663169866  W2        5079            0.0000000000
     14677      4893  TIP3      OH2           -22.9039896295      -20.0928671127        9.0399969866  W2        5080            0.0000000000
     14678      4893  TIP3      H1            -22.2922396295      -20.6072971127        8.5133569866  W2        5080            0.0000000000
     14679      4893  TIP3      H2            -22.5216496295      -19.2156571127        9.0634369866  W2        5080            0.0000000000
     14680      4894  TIP3      OH2           -37.4469996295      -20.7051071127        8.4161869866  W2        5081            0.0000000000
     14681      4894  TIP3      H1            -38.2240196295      -20.9396171127        7.9087769866  W2        5081            0.0000000000
     14682      4894  TIP3      H2            -36.9166396295      -21.5018971127        8.4249869866  W2        5081            0.0000000000
     14683      4895  TIP3      OH2           -38.6106596295      -20.9072971127        4.2197969866  W2        5082            0.0000000000
     14684      4895  TIP3      H1            -38.1715896295      -20.2962471127        3.6281469866  W2        5082            0.0000000000
     14685      4895  TIP3      H2            -39.2444196295      -20.3688871127        4.6937969866  W2        5082            0.0000000000
     14686      4896  TIP3      OH2           -32.8677396295      -20.7783971127        8.2294969866  W2        5083            0.0000000000
     14687      4896  TIP3      H1            -31.9933996295      -20.3899671127        8.1999269866  W2        5083            0.0000000000
     14688      4896  TIP3      H2            -33.0036596295      -20.9936171127        9.1522169866  W2        5083            0.0000000000
     14689      4897  TIP3      OH2           -27.3108996295      -20.7484171127        9.8786669866  W2        5084            0.0000000000
     14690      4897  TIP3      H1            -27.2347396295      -20.6532571127        8.9292669866  W2        5084            0.0000000000
     14691      4897  TIP3      H2            -27.5859796295      -21.6561271127       10.0075769866  W2        5084            0.0000000000
     14692      4898  TIP3      OH2           -25.9576396295      -20.7226371127        5.5711669866  W2        5085            0.0000000000
     14693      4898  TIP3      H1            -26.6605296295      -20.1077171127        5.3613069866  W2        5085            0.0000000000
     14694      4898  TIP3      H2            -26.4024996295      -21.5599671127        5.7022569866  W2        5085            0.0000000000
     14695      4899  TIP3      OH2           -38.7097096295       -4.9590771127        5.1173069866  W2        5086            0.0000000000
     14696      4899  TIP3      H1            -39.3947196295       -4.9971871127        4.4498169866  W2        5086            0.0000000000
     14697      4899  TIP3      H2            -38.7059896295       -4.0463171127        5.4055169866  W2        5086            0.0000000000
     14698      4900  TIP3      OH2           -36.7497496295      -18.9911471127        2.6622069866  W2        5087            0.0000000000
     14699      4900  TIP3      H1            -36.2584096295      -19.6209071127        2.1347569866  W2        5087            0.0000000000
     14700      4900  TIP3      H2            -36.1261196295      -18.6952071127        3.3253269866  W2        5087            0.0000000000
     14701      4901  TIP3      OH2           -31.7237396295      -18.6979971127        5.1192569866  W2        5088            0.0000000000
     14702      4901  TIP3      H1            -31.5456096295      -19.3446771127        5.8021169866  W2        5088            0.0000000000
     14703      4901  TIP3      H2            -31.7771196295      -17.8642271127        5.5863669866  W2        5088            0.0000000000
     14704      4902  TIP3      OH2           -29.8453596295       -3.7495871127        3.5149269866  W2        5089            0.0000000000
     14705      4902  TIP3      H1            -28.9793396295       -3.3828471127        3.3367469866  W2        5089            0.0000000000
     14706      4902  TIP3      H2            -30.0920796295       -4.1887871127        2.7010069866  W2        5089            0.0000000000
     14707      4903  TIP3      OH2           -23.1363996295       -4.1865571127        6.1940369866  W2        5090            0.0000000000
     14708      4903  TIP3      H1            -23.3306896295       -4.9343471127        5.6289969866  W2        5090            0.0000000000
     14709      4903  TIP3      H2            -23.1753896295       -3.4285471127        5.6108269866  W2        5090            0.0000000000
     14710      4904  TIP3      OH2           -36.8915896295       -4.0389971127        2.1425169866  W2        5093            0.0000000000
     14711      4904  TIP3      H1            -37.1591296295       -3.7527071127        3.0158269866  W2        5093            0.0000000000
     14712      4904  TIP3      H2            -36.1203296295       -4.5850771127        2.2947669866  W2        5093            0.0000000000
     14713      4905  TIP3      OH2            -9.5127396295      -11.5488771127        8.3749369866  W2        5096            0.0000000000
     14714      4905  TIP3      H1             -9.4236296295      -10.6050571127        8.2426469866  W2        5096            0.0000000000
     14715      4905  TIP3      H2            -10.1509796295      -11.8242371127        7.7168769866  W2        5096            0.0000000000
     14716      4906  TIP3      OH2           -10.5796096295      -12.2938071127       11.7937569866  W2        5097            0.0000000000
     14717      4906  TIP3      H1            -10.6178596295      -12.9401771127       12.4987169866  W2        5097            0.0000000000
     14718      4906  TIP3      H2            -10.9019596295      -12.7603671127       11.0226269866  W2        5097            0.0000000000
     14719      4907  TIP3      OH2           -18.2111096295      -12.6795971127       13.3867469866  W2        5098            0.0000000000
     14720      4907  TIP3      H1            -18.1698996295      -13.3052671127       14.1099869866  W2        5098            0.0000000000
     14721      4907  TIP3      H2            -17.5083396295      -12.0557371127       13.5687869866  W2        5098            0.0000000000
     14722      4908  TIP3      OH2            -6.8735896295       -9.3547671127       10.0952669866  W2        5099            0.0000000000
     14723      4908  TIP3      H1             -7.3143196295      -10.0751671127       10.5458269866  W2        5099            0.0000000000
     14724      4908  TIP3      H2             -6.8866196295       -8.6340471127       10.7250369866  W2        5099            0.0000000000
     14725      4909  TIP3      OH2           -17.2877996295       -8.2297071127       11.9216569866  W2        5100            0.0000000000
     14726      4909  TIP3      H1            -17.6572796295       -9.0316571127       11.5520869866  W2        5100            0.0000000000
     14727      4909  TIP3      H2            -16.3466896295       -8.3982171127       11.9679969866  W2        5100            0.0000000000
     14728      4910  TIP3      OH2           -20.6777496295      -14.5694471127        7.3145369866  W2        5101            0.0000000000
     14729      4910  TIP3      H1            -21.1254096295      -13.7235771127        7.2961869866  W2        5101            0.0000000000
     14730      4910  TIP3      H2            -21.2386296295      -15.1490271127        6.7990469866  W2        5101            0.0000000000
     14731      4911  TIP3      OH2           -19.9671396295      -12.4074871127        9.4403369866  W2        5102            0.0000000000
     14732      4911  TIP3      H1            -19.7537896295      -13.1773271127        9.9676369866  W2        5102            0.0000000000
     14733      4911  TIP3      H2            -19.2293796295      -12.3178171127        8.8370969866  W2        5102            0.0000000000
     14734      4912  TIP3      OH2            -9.7620396295       -4.2505971127       10.3073069866  W2        5103            0.0000000000
     14735      4912  TIP3      H1             -9.1423996295       -4.9271271127       10.0342269866  W2        5103            0.0000000000
     14736      4912  TIP3      H2             -9.9702996295       -4.4685171127       11.2157969866  W2        5103            0.0000000000
     14737      4913  TIP3      OH2           -12.1901696295       -9.8616671127       12.1998569866  W2        5104            0.0000000000
     14738      4913  TIP3      H1            -11.8863796295      -10.5475271127       11.6052669866  W2        5104            0.0000000000
     14739      4913  TIP3      H2            -11.4687696295       -9.7427971127       12.8176569866  W2        5104            0.0000000000
     14740      4914  TIP3      OH2            -3.5271896295      -18.2601371127       13.0604769866  W2        5105            0.0000000000
     14741      4914  TIP3      H1             -3.4779696295      -17.6500171127       13.7963869866  W2        5105            0.0000000000
     14742      4914  TIP3      H2             -3.1016796295      -17.7990471127       12.3375869866  W2        5105            0.0000000000
     14743      4915  TIP3      OH2            -9.0494696295      -15.4674271127       12.5273369866  W2        5106            0.0000000000
     14744      4915  TIP3      H1             -8.9068796295      -16.4137271127       12.5474969866  W2        5106            0.0000000000
     14745      4915  TIP3      H2             -9.1555696295      -15.2604471127       11.5988269866  W2        5106            0.0000000000
     14746      4916  TIP3      OH2           -15.8946396295      -17.3657871127        9.7998169866  W2        5107            0.0000000000
     14747      4916  TIP3      H1            -15.8515296295      -16.5059371127        9.3814469866  W2        5107            0.0000000000
     14748      4916  TIP3      H2            -16.3522296295      -17.9183171127        9.1661369866  W2        5107            0.0000000000
     14749      4917  TIP3      OH2            -8.1723696295      -17.2352271127        8.2006469866  W2        5108            0.0000000000
     14750      4917  TIP3      H1             -7.5259396295      -17.5639071127        8.8254069866  W2        5108            0.0000000000
     14751      4917  TIP3      H2             -7.6624296295      -16.7173271127        7.5777869866  W2        5108            0.0000000000
     14752      4918  TIP3      OH2           -19.2744896295      -14.9692071127       10.5619569866  W2        5109            0.0000000000
     14753      4918  TIP3      H1            -18.6208296295      -15.5190371127       10.9939669866  W2        5109            0.0000000000
     14754      4918  TIP3      H2            -19.2505596295      -15.2433071127        9.6451569866  W2        5109            0.0000000000
     14755      4919  TIP3      OH2           -14.1180396295      -13.4190771127        9.7771069866  W2        5110            0.0000000000
     14756      4919  TIP3      H1            -13.5019396295      -13.9455371127       10.2865069866  W2        5110            0.0000000000
     14757      4919  TIP3      H2            -14.7041596295      -14.0592071127        9.3734669866  W2        5110            0.0000000000
     14758      4920  TIP3      OH2            -3.1357296295      -16.7822171127       15.2964569866  W2        5111            0.0000000000
     14759      4920  TIP3      H1             -3.8242696295      -16.1241471127       15.2011169866  W2        5111            0.0000000000
     14760      4920  TIP3      H2             -3.1202696295      -16.9794271127       16.2329969866  W2        5111            0.0000000000
     14761      4921  TIP3      OH2           -17.0844496295      -18.4479471127       13.8738969866  W2        5112            0.0000000000
     14762      4921  TIP3      H1            -17.3032796295      -17.9178871127       13.1074969866  W2        5112            0.0000000000
     14763      4921  TIP3      H2            -17.7523596295      -18.2213971127       14.5210369866  W2        5112            0.0000000000
     14764      4922  TIP3      OH2            -9.7154696295       -8.9478371127        7.4178069866  W2        5113            0.0000000000
     14765      4922  TIP3      H1            -10.0109596295       -9.2706071127        6.5664969866  W2        5113            0.0000000000
     14766      4922  TIP3      H2            -10.0396896295       -8.0481671127        7.4590669866  W2        5113            0.0000000000
     14767      4923  TIP3      OH2           -14.5153096295      -10.7723771127       14.1612669866  W2        5114            0.0000000000
     14768      4923  TIP3      H1            -15.2553996295      -10.1742271127       14.2647869866  W2        5114            0.0000000000
     14769      4923  TIP3      H2            -13.8013596295      -10.2184171127       13.8456269866  W2        5114            0.0000000000
     14770      4924  TIP3      OH2            -6.4085296295      -17.9442971127       10.1812369866  W2        5115            0.0000000000
     14771      4924  TIP3      H1             -6.6237296295      -18.7099571127       10.7138369866  W2        5115            0.0000000000
     14772      4924  TIP3      H2             -5.7527896295      -17.4718371127       10.6940869866  W2        5115            0.0000000000
     14773      4925  TIP3      OH2           -17.4907196295      -16.5557671127       11.8261169866  W2        5116            0.0000000000
     14774      4925  TIP3      H1            -16.8770896295      -15.9230071127       12.1993569866  W2        5116            0.0000000000
     14775      4925  TIP3      H2            -16.9786496295      -17.0282671127       11.1698069866  W2        5116            0.0000000000
     14776      4926  TIP3      OH2           -16.1078796295       -8.8080771127       14.9484169866  W2        5117            0.0000000000
     14777      4926  TIP3      H1            -16.1131196295       -7.9287271127       14.5703469866  W2        5117            0.0000000000
     14778      4926  TIP3      H2            -16.9614696295       -8.8916671127       15.3734069866  W2        5117            0.0000000000
     14779      4927  TIP3      OH2           -19.9867896295       -9.1372871127        5.7303469866  W2        5118            0.0000000000
     14780      4927  TIP3      H1            -20.2586996295       -8.9081871127        4.8416369866  W2        5118            0.0000000000
     14781      4927  TIP3      H2            -19.9412196295       -8.2994071127        6.1908769866  W2        5118            0.0000000000
     14782      4928  TIP3      OH2            -6.3618196295       -7.5156971127       12.4431969866  W2        5119            0.0000000000
     14783      4928  TIP3      H1             -7.3034496295       -7.4573071127       12.6048869866  W2        5119            0.0000000000
     14784      4928  TIP3      H2             -6.0852096295       -6.6096471127       12.3061669866  W2        5119            0.0000000000
     14785      4929  TIP3      OH2            -6.0611196295      -19.2291671127       13.8605869866  W2        5120            0.0000000000
     14786      4929  TIP3      H1             -6.7971996295      -18.6184571127       13.8227169866  W2        5120            0.0000000000
     14787      4929  TIP3      H2             -5.3777196295      -18.8142671127       13.3342269866  W2        5120            0.0000000000
     14788      4930  TIP3      OH2           -13.0579796295      -21.1424371127       11.3263869866  W2        5121            0.0000000000
     14789      4930  TIP3      H1            -13.1755596295      -22.0908371127       11.2722169866  W2        5121            0.0000000000
     14790      4930  TIP3      H2            -13.9129696295      -20.8098271127       11.5994969866  W2        5121            0.0000000000
     14791      4931  TIP3      OH2            -8.1096996295       -5.7343471127        9.0683569866  W2        5122            0.0000000000
     14792      4931  TIP3      H1             -7.6844696295       -6.4415571127        8.5833169866  W2        5122            0.0000000000
     14793      4931  TIP3      H2             -7.7926996295       -4.9330771127        8.6515769866  W2        5122            0.0000000000
     14794      4932  TIP3      OH2            -6.9500496295       -7.8334971127        7.5770169866  W2        5123            0.0000000000
     14795      4932  TIP3      H1             -7.2075696295       -8.5234871127        6.9656069866  W2        5123            0.0000000000
     14796      4932  TIP3      H2             -6.8789696295       -8.2763771127        8.4226069866  W2        5123            0.0000000000
     14797      4933  TIP3      OH2            -5.2640296295       -9.2668271127       16.0543669866  W2        5124            0.0000000000
     14798      4933  TIP3      H1             -5.1243996295       -9.8585771127       15.3150669866  W2        5124            0.0000000000
     14799      4933  TIP3      H2             -5.0967496295       -8.3942371127       15.6982469866  W2        5124            0.0000000000
     14800      4934  TIP3      OH2           -10.7914896295      -12.3048771127        5.8269669866  W2        5125            0.0000000000
     14801      4934  TIP3      H1            -11.5029396295      -11.7699071127        5.4750169866  W2        5125            0.0000000000
     14802      4934  TIP3      H2            -10.1005296295      -12.2496671127        5.1668569866  W2        5125            0.0000000000
     14803      4935  TIP3      OH2           -10.7375696295      -13.8474471127        2.8654669866  W2        5126            0.0000000000
     14804      4935  TIP3      H1            -10.0365796295      -13.8247571127        3.5168669866  W2        5126            0.0000000000
     14805      4935  TIP3      H2            -10.4352796295      -14.4754771127        2.2093969866  W2        5126            0.0000000000
     14806      4936  TIP3      OH2            -3.4220996295      -12.9270271127       14.1204069866  W2        5127            0.0000000000
     14807      4936  TIP3      H1             -4.0746896295      -12.2324671127       14.2094969866  W2        5127            0.0000000000
     14808      4936  TIP3      H2             -2.9570696295      -12.7169371127       13.3105669866  W2        5127            0.0000000000
     14809      4937  TIP3      OH2            -7.3857196295      -12.0955471127        6.7785569866  W2        5128            0.0000000000
     14810      4937  TIP3      H1             -8.1176196295      -11.8671771127        7.3516169866  W2        5128            0.0000000000
     14811      4937  TIP3      H2             -6.9384996295      -12.8092771127        7.2333069866  W2        5128            0.0000000000
     14812      4938  TIP3      OH2            -7.4883696295      -13.9212871127       15.8462569866  W2        5129            0.0000000000
     14813      4938  TIP3      H1             -7.4084596295      -13.1578471127       16.4181069866  W2        5129            0.0000000000
     14814      4938  TIP3      H2             -8.0895996295      -13.6420471127       15.1557669866  W2        5129            0.0000000000
     14815      4939  TIP3      OH2           -15.7403496295      -11.4649271127        8.6610569866  W2        5130            0.0000000000
     14816      4939  TIP3      H1            -16.0708296295      -11.8355871127        7.8427569866  W2        5130            0.0000000000
     14817      4939  TIP3      H2            -15.1519396295      -12.1355271127        9.0078869866  W2        5130            0.0000000000
     14818      4940  TIP3      OH2           -14.3735996295       -8.0368671127       11.3422769866  W2        5131            0.0000000000
     14819      4940  TIP3      H1            -14.4684696295       -8.6155571127       10.5857369866  W2        5131            0.0000000000
     14820      4940  TIP3      H2            -13.6442396295       -8.4082971127       11.8385569866  W2        5131            0.0000000000
     14821      4941  TIP3      OH2           -15.3737996295      -12.6963671127       12.2945569866  W2        5132            0.0000000000
     14822      4941  TIP3      H1            -14.8085496295      -12.5749471127       11.5316769866  W2        5132            0.0000000000
     14823      4941  TIP3      H2            -15.0549096295      -12.0588671127       12.9334069866  W2        5132            0.0000000000
     14824      4942  TIP3      OH2            -9.0645796295       -7.1931771127       13.0286069866  W2        5133            0.0000000000
     14825      4942  TIP3      H1             -9.3049196295       -6.5308671127       13.6765269866  W2        5133            0.0000000000
     14826      4942  TIP3      H2             -9.2627596295       -8.0276571127       13.4535669866  W2        5133            0.0000000000
     14827      4943  TIP3      OH2           -14.4937296295       -8.2970971127       17.0117469866  W2        5134            0.0000000000
     14828      4943  TIP3      H1            -14.8049796295       -7.5147771127       17.4670669866  W2        5134            0.0000000000
     14829      4943  TIP3      H2            -15.1437096295       -8.4501871127       16.3259469866  W2        5134            0.0000000000
     14830      4944  TIP3      OH2            -8.5147696295      -12.9332571127        4.4636769866  W2        5135            0.0000000000
     14831      4944  TIP3      H1             -7.9352196295      -12.7832271127        5.2105669866  W2        5135            0.0000000000
     14832      4944  TIP3      H2             -8.1007696295      -12.4625171127        3.7403169866  W2        5135            0.0000000000
     14833      4945  TIP3      OH2           -17.5737396295      -12.0989871127       16.2403169866  W2        5136            0.0000000000
     14834      4945  TIP3      H1            -17.5034196295      -11.4483071127       16.9388169866  W2        5136            0.0000000000
     14835      4945  TIP3      H2            -18.4645196295      -11.9962371127       15.9054069866  W2        5136            0.0000000000
     14836      4946  TIP3      OH2           -10.7882796295       -6.1964071127        7.8989869866  W2        5137            0.0000000000
     14837      4946  TIP3      H1            -10.3145196295       -5.9007771127        8.6764069866  W2        5137            0.0000000000
     14838      4946  TIP3      H2            -11.3513496295       -5.4582471127        7.6659469866  W2        5137            0.0000000000
     14839      4947  TIP3      OH2            -4.8159296295      -21.1832171127        4.2766469866  W2        5139            0.0000000000
     14840      4947  TIP3      H1             -5.7158596295      -21.0443171127        4.5717069866  W2        5139            0.0000000000
     14841      4947  TIP3      H2             -4.5640896295      -20.3517571127        3.8748169866  W2        5139            0.0000000000
     14842      4948  TIP3      OH2           -16.7500796295      -12.3954971127        6.2503369866  W2        5140            0.0000000000
     14843      4948  TIP3      H1            -17.0419496295      -11.6273271127        5.7594669866  W2        5140            0.0000000000
     14844      4948  TIP3      H2            -17.4245596295      -13.0548771127        6.0874769866  W2        5140            0.0000000000
     14845      4949  TIP3      OH2            -3.6267896295       -6.8169771127        2.6530369866  W2        5141            0.0000000000
     14846      4949  TIP3      H1             -3.5534396295       -5.8779571127        2.8235669866  W2        5141            0.0000000000
     14847      4949  TIP3      H2             -2.7212796295       -7.1221171127        2.5967669866  W2        5141            0.0000000000
     14848      4950  TIP3      OH2           -20.6570696295      -10.0325771127       15.0653169866  W2        5142            0.0000000000
     14849      4950  TIP3      H1            -21.1582296295      -10.0606371127       14.2502869866  W2        5142            0.0000000000
     14850      4950  TIP3      H2            -20.6516996295      -10.9382571127       15.3750469866  W2        5142            0.0000000000
     14851      4951  TIP3      OH2           -20.9067996295       -7.2521971127       11.9493369866  W2        5143            0.0000000000
     14852      4951  TIP3      H1            -19.9607396295       -7.3964971127       11.9302869866  W2        5143            0.0000000000
     14853      4951  TIP3      H2            -21.0191696295       -6.4679171127       12.4864569866  W2        5143            0.0000000000
     14854      4952  TIP3      OH2           -11.7305496295       -7.0123071127       16.5078469866  W2        5145            0.0000000000
     14855      4952  TIP3      H1            -11.6430896295       -6.1858471127       16.9827569866  W2        5145            0.0000000000
     14856      4952  TIP3      H2            -12.5940396295       -7.3419271127       16.7567769866  W2        5145            0.0000000000
     14857      4953  TIP3      OH2           -11.3159696295       -3.2399371127        6.3139069866  W2        5146            0.0000000000
     14858      4953  TIP3      H1            -11.3913696295       -3.3612171127        5.3674269866  W2        5146            0.0000000000
     14859      4953  TIP3      H2            -11.2830996295       -2.2906671127        6.4323669866  W2        5146            0.0000000000
     14860      4954  TIP3      OH2           -17.6625896295       -4.4512371127        8.0948069866  W2        5147            0.0000000000
     14861      4954  TIP3      H1            -17.5105496295       -4.7991971127        8.9734569866  W2        5147            0.0000000000
     14862      4954  TIP3      H2            -18.5135496295       -4.8075071127        7.8395269866  W2        5147            0.0000000000
     14863      4955  TIP3      OH2            -8.2143696295       -4.0859171127        3.3161469866  W2        5148            0.0000000000
     14864      4955  TIP3      H1             -7.8395296295       -4.8303071127        2.8454069866  W2        5148            0.0000000000
     14865      4955  TIP3      H2             -8.2099996295       -4.3558571127        4.2344769866  W2        5148            0.0000000000
     14866      4956  TIP3      OH2            -8.5455596295       -4.1602071127        6.0653669866  W2        5149            0.0000000000
     14867      4956  TIP3      H1             -9.4805796295       -4.0600171127        6.2440669866  W2        5149            0.0000000000
     14868      4956  TIP3      H2             -8.2653696295       -4.8696071127        6.6436869866  W2        5149            0.0000000000
     14869      4957  TIP3      OH2           -18.4080196295       -8.7090371127       16.1085969866  W2        5151            0.0000000000
     14870      4957  TIP3      H1            -18.1918896295       -9.0704771127       16.9681769866  W2        5151            0.0000000000
     14871      4957  TIP3      H2            -19.2635496295       -9.0836571127       15.8989469866  W2        5151            0.0000000000
     14872      4958  TIP3      OH2           -15.7892196295      -20.2389871127       12.1040169866  W2        5152            0.0000000000
     14873      4958  TIP3      H1            -16.6508496295      -20.3261671127       11.6963069866  W2        5152            0.0000000000
     14874      4958  TIP3      H2            -15.8116496295      -19.3829771127       12.5317769866  W2        5152            0.0000000000
     14875      4959  TIP3      OH2           -11.1264396295      -20.5169471127       15.4787169866  W2        5153            0.0000000000
     14876      4959  TIP3      H1            -10.7061296295      -20.9322371127       16.2317769866  W2        5153            0.0000000000
     14877      4959  TIP3      H2            -12.0594796295      -20.6956171127       15.5959169866  W2        5153            0.0000000000
     14878      4960  TIP3      OH2            -7.7999496295      -16.7614271127       16.3321669866  W2        5154            0.0000000000
     14879      4960  TIP3      H1             -8.3139996295      -16.8872071127       17.1297669866  W2        5154            0.0000000000
     14880      4960  TIP3      H2             -7.9554796295      -15.8491171127       16.0877869866  W2        5154            0.0000000000
     14881      4961  TIP3      OH2            -7.0374596295      -11.9004271127        2.0934669866  W2        5155            0.0000000000
     14882      4961  TIP3      H1             -6.9953796295      -12.1230371127        1.1634669866  W2        5155            0.0000000000
     14883      4961  TIP3      H2             -6.1882496295      -11.5017171127        2.2834569866  W2        5155            0.0000000000
     14884      4962  TIP3      OH2           -11.4647096295      -18.0246071127        2.7637969866  W2        5156            0.0000000000
     14885      4962  TIP3      H1            -11.7182296295      -18.0054471127        3.6866069866  W2        5156            0.0000000000
     14886      4962  TIP3      H2            -11.7214996295      -18.8960671127        2.4624169866  W2        5156            0.0000000000
     14887      4963  TIP3      OH2           -15.6982096295      -15.2735371127       13.1990369866  W2        5157            0.0000000000
     14888      4963  TIP3      H1            -16.3399996295      -15.3138071127       13.9080469866  W2        5157            0.0000000000
     14889      4963  TIP3      H2            -15.6610096295      -14.3470671127       12.9613369866  W2        5157            0.0000000000
     14890      4964  TIP3      OH2           -15.7012996295      -15.0525271127        8.1110369866  W2        5158            0.0000000000
     14891      4964  TIP3      H1            -16.5940096295      -15.3929171127        8.0524169866  W2        5158            0.0000000000
     14892      4964  TIP3      H2            -15.2506396295      -15.4294371127        7.3553569866  W2        5158            0.0000000000
     14893      4965  TIP3      OH2           -10.1657496295      -14.6364971127        6.9281169866  W2        5159            0.0000000000
     14894      4965  TIP3      H1            -10.5747196295      -13.8216371127        6.6365969866  W2        5159            0.0000000000
     14895      4965  TIP3      H2             -9.4451296295      -14.7764871127        6.3138269866  W2        5159            0.0000000000
     14896      4966  TIP3      OH2            -9.1609796295      -15.1904571127        9.7420869866  W2        5161            0.0000000000
     14897      4966  TIP3      H1             -9.3565296295      -14.5847771127        9.0271469866  W2        5161            0.0000000000
     14898      4966  TIP3      H2             -8.9797196295      -16.0239371127        9.3077169866  W2        5161            0.0000000000
     14899      4967  TIP3      OH2           -17.9481596295      -14.9531871127       15.0662369866  W2        5162            0.0000000000
     14900      4967  TIP3      H1            -17.9862196295      -14.5530271127       15.9349469866  W2        5162            0.0000000000
     14901      4967  TIP3      H2            -18.4390496295      -15.7699471127       15.1565269866  W2        5162            0.0000000000
     14902      4968  TIP3      OH2           -14.5824196295      -17.5789571127        1.8648369866  W2        5163            0.0000000000
     14903      4968  TIP3      H1            -15.0133496295      -18.0239471127        2.5945769866  W2        5163            0.0000000000
     14904      4968  TIP3      H2            -15.3005496295      -17.2073271127        1.3525869866  W2        5163            0.0000000000
     14905      4969  TIP3      OH2           -21.3400796295      -17.8370071127        8.9167069866  W2        5164            0.0000000000
     14906      4969  TIP3      H1            -20.7093096295      -17.8657971127        9.6360969866  W2        5164            0.0000000000
     14907      4969  TIP3      H2            -20.8906496295      -18.2621371127        8.1862969866  W2        5164            0.0000000000
     14908      4970  TIP3      OH2           -20.0658696295      -17.0908071127        4.3407469866  W2        5165            0.0000000000
     14909      4970  TIP3      H1            -19.5916996295      -16.4998171127        3.7558369866  W2        5165            0.0000000000
     14910      4970  TIP3      H2            -20.7832296295      -16.5605171127        4.6877569866  W2        5165            0.0000000000
     14911      4971  TIP3      OH2            -9.8970596295      -13.5523271127       14.4133269866  W2        5166            0.0000000000
     14912      4971  TIP3      H1             -9.5735796295      -14.1833571127       13.7703769866  W2        5166            0.0000000000
     14913      4971  TIP3      H2            -10.3371296295      -14.0871071127       15.0740669866  W2        5166            0.0000000000
     14914      4972  TIP3      OH2           -13.1197696295      -17.6247771127        9.1974469866  W2        5167            0.0000000000
     14915      4972  TIP3      H1            -14.0306596295      -17.5680971127        9.4860469866  W2        5167            0.0000000000
     14916      4972  TIP3      H2            -12.6144796295      -17.6852271127       10.0081669866  W2        5167            0.0000000000
     14917      4973  TIP3      OH2           -18.2914296295      -15.9961471127        8.0242069866  W2        5168            0.0000000000
     14918      4973  TIP3      H1            -19.1806296295      -15.8965971127        7.6841669866  W2        5168            0.0000000000
     14919      4973  TIP3      H2            -17.9949396295      -16.8378471127        7.6779969866  W2        5168            0.0000000000
     14920      4974  TIP3      OH2           -14.6382496295      -15.9958871127        5.6806669866  W2        5169            0.0000000000
     14921      4974  TIP3      H1            -13.7066996295      -15.8668871127        5.8589769866  W2        5169            0.0000000000
     14922      4974  TIP3      H2            -14.8532196295      -15.3264571127        5.0311369866  W2        5169            0.0000000000
     14923      4975  TIP3      OH2            -8.7145796295      -18.3901471127       12.4616269866  W2        5170            0.0000000000
     14924      4975  TIP3      H1             -9.3914196295      -18.2588371127       13.1255969866  W2        5170            0.0000000000
     14925      4975  TIP3      H2             -9.2000896295      -18.5451971127       11.6513969866  W2        5170            0.0000000000
     14926      4976  TIP3      OH2           -15.9642296295      -14.8016671127        3.2472769866  W2        5171            0.0000000000
     14927      4976  TIP3      H1            -16.5067196295      -15.1812871127        2.5560369866  W2        5171            0.0000000000
     14928      4976  TIP3      H2            -15.1307396295      -14.6071971127        2.8186869866  W2        5171            0.0000000000
     14929      4977  TIP3      OH2           -11.7997996295      -14.8374771127       11.0844069866  W2        5174            0.0000000000
     14930      4977  TIP3      H1            -11.2354596295      -15.3838171127       10.5373669866  W2        5174            0.0000000000
     14931      4977  TIP3      H2            -11.9474596295      -15.3592871127       11.8731669866  W2        5174            0.0000000000
     14932      4978  TIP3      OH2           -16.7978296295      -18.7008671127        7.5028869866  W2        5175            0.0000000000
     14933      4978  TIP3      H1            -17.1148796295      -19.6033371127        7.4674269866  W2        5175            0.0000000000
     14934      4978  TIP3      H2            -16.0164196295      -18.6991271127        6.9500469866  W2        5175            0.0000000000
     14935      4979  TIP3      OH2           -13.1732096295      -16.4488671127       13.4984469866  W2        5176            0.0000000000
     14936      4979  TIP3      H1            -14.0086796295      -15.9949171127       13.6086869866  W2        5176            0.0000000000
     14937      4979  TIP3      H2            -12.6491496295      -16.1730171127       14.2504369866  W2        5176            0.0000000000
     14938      4980  TIP3      OH2           -12.6289496295      -10.2360971127        5.1830869866  W2        5177            0.0000000000
     14939      4980  TIP3      H1            -13.3738496295      -10.7435671127        4.8608769866  W2        5177            0.0000000000
     14940      4980  TIP3      H2            -12.7632296295      -10.1872971127        6.1295669866  W2        5177            0.0000000000
     14941      4981  TIP3      OH2            -5.4790596295      -11.1032771127       13.9698469866  W2        5178            0.0000000000
     14942      4981  TIP3      H1             -4.8371796295      -10.6466471127       13.4260669866  W2        5178            0.0000000000
     14943      4981  TIP3      H2             -6.3093696295      -10.9900371127       13.5072569866  W2        5178            0.0000000000
     14944      4982  TIP3      OH2            -8.7312696295      -17.4221071127        3.3823469866  W2        5179            0.0000000000
     14945      4982  TIP3      H1             -9.6698496295      -17.3105471127        3.2312269866  W2        5179            0.0000000000
     14946      4982  TIP3      H2             -8.4340596295      -16.5654171127        3.6889169866  W2        5179            0.0000000000
     14947      4983  TIP3      OH2           -11.1097396295      -10.0517671127       16.4199969866  W2        5180            0.0000000000
     14948      4983  TIP3      H1            -11.4551296295      -10.4335271127       17.2269569866  W2        5180            0.0000000000
     14949      4983  TIP3      H2            -11.3097296295       -9.1184071127       16.4912869866  W2        5180            0.0000000000
     14950      4984  TIP3      OH2            -8.0129196295      -15.5548371127        5.0430869866  W2        5181            0.0000000000
     14951      4984  TIP3      H1             -7.1210196295      -15.6923371127        5.3622069866  W2        5181            0.0000000000
     14952      4984  TIP3      H2             -7.9565596295      -14.7642271127        4.5064369866  W2        5181            0.0000000000
     14953      4985  TIP3      OH2           -17.5041196295      -10.9410971127       10.9528769866  W2        5182            0.0000000000
     14954      4985  TIP3      H1            -16.7593996295      -10.9435271127       10.3515269866  W2        5182            0.0000000000
     14955      4985  TIP3      H2            -17.4264596295      -11.7647171127       11.4343869866  W2        5182            0.0000000000
     14956      4986  TIP3      OH2           -10.5035396295       -8.7776671127        4.2085469866  W2        5183            0.0000000000
     14957      4986  TIP3      H1            -10.7986996295       -7.9508771127        4.5900269866  W2        5183            0.0000000000
     14958      4986  TIP3      H2            -11.2065396295       -9.3969771127        4.4046869866  W2        5183            0.0000000000
     14959      4987  TIP3      OH2           -20.4961496295      -12.4804071127       16.2677269866  W2        5184            0.0000000000
     14960      4987  TIP3      H1            -20.2732896295      -12.8984471127       17.0994769866  W2        5184            0.0000000000
     14961      4987  TIP3      H2            -21.0981396295      -13.0929071127       15.8450069866  W2        5184            0.0000000000
     14962      4988  TIP3      OH2            -8.8593796295       -7.5902171127       16.3704969866  W2        5186            0.0000000000
     14963      4988  TIP3      H1             -9.7599496295       -7.4069571127       16.1028869866  W2        5186            0.0000000000
     14964      4988  TIP3      H2             -8.8252696295       -7.3312871127       17.2913769866  W2        5186            0.0000000000
     14965      4989  TIP3      OH2            -3.1280496295      -15.3454271127        4.7377569866  W2        5187            0.0000000000
     14966      4989  TIP3      H1             -3.6824196295      -15.7416271127        4.0655069866  W2        5187            0.0000000000
     14967      4989  TIP3      H2             -3.0276896295      -14.4349071127        4.4600869866  W2        5187            0.0000000000
     14968      4990  TIP3      OH2            -4.8328796295       -6.5593871127        5.2029669866  W2        5189            0.0000000000
     14969      4990  TIP3      H1             -5.2057696295       -7.3850071127        5.5120269866  W2        5189            0.0000000000
     14970      4990  TIP3      H2             -4.5555296295       -6.7424471127        4.3053069866  W2        5189            0.0000000000
     14971      4991  TIP3      OH2            -7.6724896295      -11.7514371127       12.2241569866  W2        5190            0.0000000000
     14972      4991  TIP3      H1             -8.6007996295      -11.9832471127       12.1970869866  W2        5190            0.0000000000
     14973      4991  TIP3      H2             -7.2213796295      -12.5284571127       11.8940369866  W2        5190            0.0000000000
     14974      4992  TIP3      OH2           -15.1291796295       -7.4232771127        8.3570269866  W2        5191            0.0000000000
     14975      4992  TIP3      H1            -14.6019596295       -6.6498371127        8.1569069866  W2        5191            0.0000000000
     14976      4992  TIP3      H2            -16.0093296295       -7.1983571127        8.0554269866  W2        5191            0.0000000000
     14977      4993  TIP3      OH2           -19.3744096295      -12.5608671127        2.9442669866  W2        5192            0.0000000000
     14978      4993  TIP3      H1            -18.7584196295      -11.9341471127        3.3237469866  W2        5192            0.0000000000
     14979      4993  TIP3      H2            -20.2361496295      -12.2448871127        3.2159169866  W2        5192            0.0000000000
     14980      4994  TIP3      OH2           -13.7019496295       -9.7602871127        7.9334569866  W2        5193            0.0000000000
     14981      4994  TIP3      H1            -13.9429496295       -8.8348471127        7.9749869866  W2        5193            0.0000000000
     14982      4994  TIP3      H2            -14.4425896295      -10.2191571127        8.3298469866  W2        5193            0.0000000000
     14983      4995  TIP3      OH2           -13.1872896295       -5.6109271127       14.2485669866  W2        5194            0.0000000000
     14984      4995  TIP3      H1            -12.8248196295       -4.7563671127       14.0150069866  W2        5194            0.0000000000
     14985      4995  TIP3      H2            -12.6557696295       -5.9027671127       14.9891969866  W2        5194            0.0000000000
     14986      4996  TIP3      OH2           -15.0188696295       -4.7385271127        7.4786769866  W2        5195            0.0000000000
     14987      4996  TIP3      H1            -15.9688196295       -4.6327871127        7.5300069866  W2        5195            0.0000000000
     14988      4996  TIP3      H2            -14.6670596295       -3.9177871127        7.8234269866  W2        5195            0.0000000000
     14989      4997  TIP3      OH2            -9.6432096295       -9.5118571127       13.9491269866  W2        5196            0.0000000000
     14990      4997  TIP3      H1            -10.0690796295       -9.7396871127       14.7755269866  W2        5196            0.0000000000
     14991      4997  TIP3      H2             -9.0626296295      -10.2506771127       13.7666569866  W2        5196            0.0000000000
     14992      4998  TIP3      OH2            -7.4403196295       -8.5828071127        3.0230269866  W2        5197            0.0000000000
     14993      4998  TIP3      H1             -7.0870096295       -8.9628271127        3.8273769866  W2        5197            0.0000000000
     14994      4998  TIP3      H2             -8.3889696295       -8.6763271127        3.1099569866  W2        5197            0.0000000000
     14995      4999  TIP3      OH2            -6.9847896295       -4.9599071127       16.4186069866  W2        5198            0.0000000000
     14996      4999  TIP3      H1             -7.5864696295       -5.5156171127       15.9232369866  W2        5198            0.0000000000
     14997      4999  TIP3      H2             -6.7034196295       -4.2929271127       15.7923469866  W2        5198            0.0000000000
     14998      5000  TIP3      OH2            -2.9368796295       -4.1035571127        3.2240469866  W2        5199            0.0000000000
     14999      5000  TIP3      H1             -2.1930896295       -3.5175071127        3.0842069866  W2        5199            0.0000000000
     15000      5000  TIP3      H2             -3.6310696295       -3.5349771127        3.5572869866  W2        5199            0.0000000000
     15001      5001  TIP3      OH2           -18.8621996295      -17.7271371127       15.8258669866  W2        5200            0.0000000000
     15002      5001  TIP3      H1            -19.7549696295      -17.3885971127       15.7582669866  W2        5200            0.0000000000
     15003      5001  TIP3      H2            -18.9609196295      -18.5825271127       16.2439469866  W2        5200            0.0000000000
     15004      5002  TIP3      OH2            -6.5743896295       -9.9106071127        5.2498169866  W2        5201            0.0000000000
     15005      5002  TIP3      H1             -6.8516296295      -10.6386771127        5.8059269866  W2        5201            0.0000000000
     15006      5002  TIP3      H2             -5.6470896295       -9.7914071127        5.4550769866  W2        5201            0.0000000000
     15007      5003  TIP3      OH2           -19.2109996295       -5.9226971127       14.2608069866  W2        5202            0.0000000000
     15008      5003  TIP3      H1            -18.9939696295       -6.8544571127       14.2297769866  W2        5202            0.0000000000
     15009      5003  TIP3      H2            -18.9646496295       -5.6481971127       15.1440869866  W2        5202            0.0000000000
     15010      5004  TIP3      OH2           -13.3495396295       -7.4711971127        1.4700269866  W2        5203            0.0000000000
     15011      5004  TIP3      H1            -13.1105596295       -8.2193871127        0.9229169866  W2        5203            0.0000000000
     15012      5004  TIP3      H2            -13.6184096295       -7.8590271127        2.3028069866  W2        5203            0.0000000000
     15013      5005  TIP3      OH2           -14.4124796295       -7.9008171127        3.9262869866  W2        5204            0.0000000000
     15014      5005  TIP3      H1            -14.2656796295       -8.4208371127        4.7163769866  W2        5204            0.0000000000
     15015      5005  TIP3      H2            -14.4153096295       -6.9940571127        4.2328769866  W2        5204            0.0000000000
     15016      5006  TIP3      OH2           -17.9593696295      -10.6484871127        4.4368269866  W2        5205            0.0000000000
     15017      5006  TIP3      H1            -18.6454396295      -10.2962371127        5.0037969866  W2        5205            0.0000000000
     15018      5006  TIP3      H2            -17.4365796295       -9.8855271127        4.1902569866  W2        5205            0.0000000000
     15019      5007  TIP3      OH2           -10.1278596295      -17.9861071127       14.7157269866  W2        5206            0.0000000000
     15020      5007  TIP3      H1             -9.4290696295      -17.9122371127       15.3656969866  W2        5206            0.0000000000
     15021      5007  TIP3      H2            -10.5087196295      -18.8506071127       14.8700169866  W2        5206            0.0000000000
     15022      5008  TIP3      OH2            -9.3433696295      -18.3339371127        5.8129569866  W2        5207            0.0000000000
     15023      5008  TIP3      H1             -9.1235396295      -17.8623971127        5.0094969866  W2        5207            0.0000000000
     15024      5008  TIP3      H2             -8.7849696295      -17.9396771127        6.4830169866  W2        5207            0.0000000000
     15025      5009  TIP3      OH2           -11.6747596295       -6.2034571127        4.6757069866  W2        5208            0.0000000000
     15026      5009  TIP3      H1            -12.4911496295       -5.7064871127        4.7281369866  W2        5208            0.0000000000
     15027      5009  TIP3      H2            -11.1451296295       -5.7281071127        4.0355869866  W2        5208            0.0000000000
     15028      5010  TIP3      OH2           -12.1433796295      -16.6060571127        6.6477969866  W2        5209            0.0000000000
     15029      5010  TIP3      H1            -11.3311196295      -16.1017371127        6.6939669866  W2        5209            0.0000000000
     15030      5010  TIP3      H2            -12.3880796295      -16.7510871127        7.5617569866  W2        5209            0.0000000000
     15031      5011  TIP3      OH2           -11.6077396295      -15.6197871127       15.8324569866  W2        5210            0.0000000000
     15032      5011  TIP3      H1            -11.4887096295      -15.0462471127       16.5894969866  W2        5210            0.0000000000
     15033      5011  TIP3      H2            -10.9522796295      -16.3078471127       15.9472369866  W2        5210            0.0000000000
     15034      5012  TIP3      OH2           -11.2597096295      -19.5247571127        7.5859069866  W2        5211            0.0000000000
     15035      5012  TIP3      H1            -11.6063596295      -18.9076971127        8.2303369866  W2        5211            0.0000000000
     15036      5012  TIP3      H2            -10.6010196295      -19.0241871127        7.1044569866  W2        5211            0.0000000000
     15037      5013  TIP3      OH2           -14.3364496295       -5.1597371127        4.6573969866  W2        5212            0.0000000000
     15038      5013  TIP3      H1            -14.1755796295       -4.3599871127        4.1566569866  W2        5212            0.0000000000
     15039      5013  TIP3      H2            -14.5336696295       -4.8531371127        5.5424569866  W2        5212            0.0000000000
     15040      5014  TIP3      OH2           -15.6020096295      -18.4618171127        4.2731569866  W2        5213            0.0000000000
     15041      5014  TIP3      H1            -15.6855296295      -17.5735071127        4.6197969866  W2        5213            0.0000000000
     15042      5014  TIP3      H2            -14.7119796295      -18.7271471127        4.5048369866  W2        5213            0.0000000000
     15043      5015  TIP3      OH2            -5.4031596295      -17.7127571127       16.6674269866  W2        5214            0.0000000000
     15044      5015  TIP3      H1             -6.3195796295      -17.4505871127       16.5797969866  W2        5214            0.0000000000
     15045      5015  TIP3      H2             -5.0676596295      -17.7158571127       15.7709569866  W2        5214            0.0000000000
     15046      5016  TIP3      OH2            -6.8010596295      -13.9626571127       10.7631569866  W2        5215            0.0000000000
     15047      5016  TIP3      H1             -7.5986196295      -14.3776371127       10.4346569866  W2        5215            0.0000000000
     15048      5016  TIP3      H2             -6.3559496295      -14.6532871127       11.2542069866  W2        5215            0.0000000000
     15049      5017  TIP3      OH2           -17.3434796295       -8.0345971127        3.3336069866  W2        5216            0.0000000000
     15050      5017  TIP3      H1            -16.7513296295       -7.3351171127        3.6098469866  W2        5216            0.0000000000
     15051      5017  TIP3      H2            -16.8841796295       -8.4676471127        2.6140669866  W2        5216            0.0000000000
     15052      5018  TIP3      OH2           -19.0275596295      -15.3702971127        2.4495469866  W2        5217            0.0000000000
     15053      5018  TIP3      H1            -19.0722996295      -14.4309871127        2.6282469866  W2        5217            0.0000000000
     15054      5018  TIP3      H2            -19.9152396295      -15.6058071127        2.1797569866  W2        5217            0.0000000000
     15055      5019  TIP3      OH2            -5.7145996295       -4.7064071127       12.3855069866  W2        5218            0.0000000000
     15056      5019  TIP3      H1             -5.8701696295       -4.0279671127       11.7284369866  W2        5218            0.0000000000
     15057      5019  TIP3      H2             -4.7819596295       -4.6344771127       12.5885669866  W2        5218            0.0000000000
     15058      5020  TIP3      OH2           -18.2193596295      -20.5886371127       11.1226469866  W2        5219            0.0000000000
     15059      5020  TIP3      H1            -18.4483796295      -20.5293871127       10.1951469866  W2        5219            0.0000000000
     15060      5020  TIP3      H2            -18.6620196295      -21.3800871127       11.4290569866  W2        5219            0.0000000000
     15061      5021  TIP3      OH2           -19.2890296295       -6.6479271127        7.2832269866  W2        5220            0.0000000000
     15062      5021  TIP3      H1            -20.1211696295       -6.1756571127        7.3103669866  W2        5220            0.0000000000
     15063      5021  TIP3      H2            -18.7431996295       -6.1381671127        6.6845369866  W2        5220            0.0000000000
     15064      5022  TIP3      OH2           -11.3113596295       -5.6080571127        1.6086269866  W2        5223            0.0000000000
     15065      5022  TIP3      H1            -11.9552596295       -6.2391971127        1.9299969866  W2        5223            0.0000000000
     15066      5022  TIP3      H2            -10.5495296295       -6.1392571127        1.3769769866  W2        5223            0.0000000000
     15067      5023  TIP3      OH2            -6.7070696295       -5.7910671127        1.8424269866  W2        5225            0.0000000000
     15068      5023  TIP3      H1             -6.4240296295       -6.5855471127        2.2951169866  W2        5225            0.0000000000
     15069      5023  TIP3      H2             -5.9672796295       -5.5579671127        1.2815369866  W2        5225            0.0000000000
     15070      5024  TIP3      OH2           -15.7523396295       -9.8815771127        1.6999169866  W2        5227            0.0000000000
     15071      5024  TIP3      H1            -15.6879296295      -10.6756171127        2.2305569866  W2        5227            0.0000000000
     15072      5024  TIP3      H2            -15.0994196295      -10.0002971127        1.0101169866  W2        5227            0.0000000000
     15073      5025  TIP3      OH2           -10.3999996295       -8.8344071127        1.4357169866  W2        5229            0.0000000000
     15074      5025  TIP3      H1            -10.6685896295       -8.6541971127        2.3366069866  W2        5229            0.0000000000
     15075      5025  TIP3      H2            -10.6064396295       -9.7597871127        1.3042969866  W2        5229            0.0000000000
     15076      5026  TIP3      OH2            -7.7035796295      -10.3396071127       16.3833269866  W2        5230            0.0000000000
     15077      5026  TIP3      H1             -6.9580996295       -9.7512371127       16.2637269866  W2        5230            0.0000000000
     15078      5026  TIP3      H2             -8.4608996295       -9.7576371127       16.4466369866  W2        5230            0.0000000000
     15079      5027  TIP3      OH2           -14.6029596295      -11.9089571127        4.0057169866  W2        5232            0.0000000000
     15080      5027  TIP3      H1            -15.0627596295      -12.3931271127        4.6915669866  W2        5232            0.0000000000
     15081      5027  TIP3      H2            -14.3480896295      -12.5774171127        3.3697669866  W2        5232            0.0000000000
     15082      5028  TIP3      OH2           -15.3140296295      -14.0162471127       16.3616769866  W2        5233            0.0000000000
     15083      5028  TIP3      H1            -15.9324196295      -13.3415871127       16.6421469866  W2        5233            0.0000000000
     15084      5028  TIP3      H2            -14.9699096295      -13.6948571127       15.5282969866  W2        5233            0.0000000000
     15085      5029  TIP3      OH2           -13.5319196295      -13.6657771127        2.2680369866  W2        5234            0.0000000000
     15086      5029  TIP3      H1            -13.7124196295      -13.8206571127        1.3408669866  W2        5234            0.0000000000
     15087      5029  TIP3      H2            -12.5818696295      -13.5579071127        2.3128269866  W2        5234            0.0000000000
     15088      5030  TIP3      OH2            -4.1420896295      -11.3113571127        1.7138469866  W2        5236            0.0000000000
     15089      5030  TIP3      H1             -4.4156096295      -11.7358071127        0.9006769866  W2        5236            0.0000000000
     15090      5030  TIP3      H2             -4.1026796295      -10.3799071127        1.4968869866  W2        5236            0.0000000000
     15091      5031  TIP3      OH2           -14.9746596295      -16.6611671127       17.4439869866  W2        5237            0.0000000000
     15092      5031  TIP3      H1            -14.8245696295      -17.3900371127       16.8419569866  W2        5237            0.0000000000
     15093      5031  TIP3      H2            -14.9724196295      -15.8839971127       16.8852069866  W2        5237            0.0000000000
     15094      5032  TIP3      OH2           -14.5620896295      -18.2915871127       14.9367269866  W2        5238            0.0000000000
     15095      5032  TIP3      H1            -14.0263396295      -17.8399171127       14.2846569866  W2        5238            0.0000000000
     15096      5032  TIP3      H2            -15.4141296295      -18.3996071127       14.5141369866  W2        5238            0.0000000000
     15097      5033  TIP3      OH2           -12.9802496295      -12.8519671127       15.1762469866  W2        5239            0.0000000000
     15098      5033  TIP3      H1            -12.2297696295      -13.0082171127       14.6030269866  W2        5239            0.0000000000
     15099      5033  TIP3      H2            -13.3194196295      -12.0003071127       14.9007969866  W2        5239            0.0000000000
     15100      5034  TIP3      OH2           -13.7565396295      -20.8350171127       15.3680869866  W2        5243            0.0000000000
     15101      5034  TIP3      H1            -13.8545796295      -19.8886971127       15.2627069866  W2        5243            0.0000000000
     15102      5034  TIP3      H2            -14.4989196295      -21.2076371127       14.8924369866  W2        5243            0.0000000000
     15103      5035  TIP3      OH2           -13.6347496295       -2.9754071127        3.2693969866  W2        5250            0.0000000000
     15104      5035  TIP3      H1            -12.7016796295       -2.8175371127        3.4132369866  W2        5250            0.0000000000
     15105      5035  TIP3      H2            -13.8988696295       -2.3001071127        2.6445469866  W2        5250            0.0000000000
     15106      5036  TIP3      OH2           -20.0662596295       -8.3390271127        2.7522069866  W2        5251            0.0000000000
     15107      5036  TIP3      H1            -19.1523396295       -8.2601371127        3.0255969866  W2        5251            0.0000000000
     15108      5036  TIP3      H2            -20.0589496295       -9.0260671127        2.0857669866  W2        5251            0.0000000000
     15109      5037  TIP3      OH2           -21.4171996295       -2.9461771127        7.8295969866  W2        5252            0.0000000000
     15110      5037  TIP3      H1            -22.0644896295       -3.4080071127        7.2967169866  W2        5252            0.0000000000
     15111      5037  TIP3      H2            -21.0627396295       -3.6178471127        8.4122169866  W2        5252            0.0000000000
     15112      5038  TIP3      OH2           -20.5472796295       -4.8654771127        9.6342169866  W2        5253            0.0000000000
     15113      5038  TIP3      H1            -20.8815996295       -5.7457471127        9.8062369866  W2        5253            0.0000000000
     15114      5038  TIP3      H2            -20.3250396295       -4.5199771127       10.4987769866  W2        5253            0.0000000000
     15115      5039  TIP3      OH2            -2.9987996295       -4.0558371127       12.6146969866  W2        5254            0.0000000000
     15116      5039  TIP3      H1             -3.0201296295       -3.8709971127       13.5536369866  W2        5254            0.0000000000
     15117      5039  TIP3      H2             -2.3081796295       -3.4874371127       12.2738369866  W2        5254            0.0000000000
     15118      5040  TIP3      OH2            -3.4355096295       -4.4887271127       15.5366069866  W2        5255            0.0000000000
     15119      5040  TIP3      H1             -3.9226396295       -5.2243171127       15.1653469866  W2        5255            0.0000000000
     15120      5040  TIP3      H2             -2.8862396295       -4.8823371127       16.2145469866  W2        5255            0.0000000000
     15121      5041  TIP3      OH2            -3.6838096295      -10.4425471127        5.6888869866  W2        5257            0.0000000000
     15122      5041  TIP3      H1             -2.8336696295      -10.0214571127        5.8160469866  W2        5257            0.0000000000
     15123      5041  TIP3      H2             -3.6782996295      -11.1825371127        6.2960269866  W2        5257            0.0000000000
     15124      5042  TIP3      OH2            -3.2892496295      -12.3888071127        7.5124569866  W2        5258            0.0000000000
     15125      5042  TIP3      H1             -4.0157896295      -12.8685471127        7.9102169866  W2        5258            0.0000000000
     15126      5042  TIP3      H2             -2.7079196295      -12.1833371127        8.2446169866  W2        5258            0.0000000000
     15127      5043  TIP3      OH2            -3.5301296295       -9.6040571127       12.4602169866  W2        5259            0.0000000000
     15128      5043  TIP3      H1             -2.6967096295       -9.9820571127       12.1795769866  W2        5259            0.0000000000
     15129      5043  TIP3      H2             -3.4180996295       -8.6609371127       12.3411269866  W2        5259            0.0000000000
     15130      5044  TIP3      OH2            -5.0438996295       -6.7263071127       14.7670569866  W2        5260            0.0000000000
     15131      5044  TIP3      H1             -5.6913696295       -6.4011571127       15.3925769866  W2        5260            0.0000000000
     15132      5044  TIP3      H2             -5.5614996295       -7.1665371127       14.0928869866  W2        5260            0.0000000000
     15133      5045  TIP3      OH2            -3.0209396295      -12.4879571127        3.9035869866  W2        5261            0.0000000000
     15134      5045  TIP3      H1             -3.5428296295      -12.1315471127        3.1846769866  W2        5261            0.0000000000
     15135      5045  TIP3      H2             -3.0540196295      -11.8131771127        4.5816769866  W2        5261            0.0000000000
     15136      5046  TIP3      OH2            -4.6720396295      -15.2483971127        2.4542969866  W2        5262            0.0000000000
     15137      5046  TIP3      H1             -4.5755996295      -14.5816971127        1.7742669866  W2        5262            0.0000000000
     15138      5046  TIP3      H2             -4.8120796295      -16.0637671127        1.9728469866  W2        5262            0.0000000000
     15139      5047  TIP3      OH2            -5.5025696295      -13.8681571127        8.0753269866  W2        5263            0.0000000000
     15140      5047  TIP3      H1             -5.6526896295      -14.8132971127        8.0551069866  W2        5263            0.0000000000
     15141      5047  TIP3      H2             -5.8561196295      -13.5870171127        8.9192369866  W2        5263            0.0000000000
     15142      5048  TIP3      OH2           -20.4673296295      -11.7899371127       12.0857069866  W2        5264            0.0000000000
     15143      5048  TIP3      H1            -20.2830396295      -11.8717671127       11.1499969866  W2        5264            0.0000000000
     15144      5048  TIP3      H2            -19.6180396295      -11.9142371127       12.5093469866  W2        5264            0.0000000000
     15145      5049  TIP3      OH2            -5.4246596295      -17.8404171127        1.5718469866  W2        5267            0.0000000000
     15146      5049  TIP3      H1             -4.8140796295      -18.2117371127        2.2086669866  W2        5267            0.0000000000
     15147      5049  TIP3      H2             -6.2615096295      -18.2617271127        1.7678469866  W2        5267            0.0000000000
     15148      5050  TIP3      OH2            -5.7920896295      -16.2855771127        6.5378369866  W2        5268            0.0000000000
     15149      5050  TIP3      H1             -5.5123796295      -17.1925371127        6.6620069866  W2        5268            0.0000000000
     15150      5050  TIP3      H2             -5.0329196295      -15.8514271127        6.1487569866  W2        5268            0.0000000000
     15151      5051  TIP3      OH2            -5.1802596295      -15.7038371127       11.9737269866  W2        5269            0.0000000000
     15152      5051  TIP3      H1             -4.2474596295      -15.4918471127       11.9393269866  W2        5269            0.0000000000
     15153      5051  TIP3      H2             -5.4155096295      -15.6026271127       12.8960269866  W2        5269            0.0000000000
     15154      5052  TIP3      OH2            -5.1510696295      -14.9673071127       14.7496669866  W2        5270            0.0000000000
     15155      5052  TIP3      H1             -5.9939396295      -14.6992671127       15.1156469866  W2        5270            0.0000000000
     15156      5052  TIP3      H2             -4.7086396295      -14.1451171127       14.5387769866  W2        5270            0.0000000000
     15157      5053  TIP3      OH2            -5.1786096295      -19.0226471127        6.5860369866  W2        5273            0.0000000000
     15158      5053  TIP3      H1             -4.9961096295      -19.4714971127        7.4115369866  W2        5273            0.0000000000
     15159      5053  TIP3      H2             -5.7783196295      -19.6072071127        6.1224969866  W2        5273            0.0000000000
     15160      5054  TIP3      OH2           -19.6485996295      -18.2072771127       11.1178769866  W2        5274            0.0000000000
     15161      5054  TIP3      H1            -19.2034396295      -18.9990271127       11.4198469866  W2        5274            0.0000000000
     15162      5054  TIP3      H2            -19.1822996295      -17.4907571127       11.5484369866  W2        5274            0.0000000000
     15163      5055  TIP3      OH2           -21.3445696295      -15.2079771127       12.1868969866  W2        5275            0.0000000000
     15164      5055  TIP3      H1            -20.8525896295      -15.4289271127       11.3960969866  W2        5275            0.0000000000
     15165      5055  TIP3      H2            -20.9824796295      -14.3676371127       12.4678469866  W2        5275            0.0000000000
     15166      5056  TIP3      OH2            -3.3119896295      -18.9548371127        3.1140669866  W2        5277            0.0000000000
     15167      5056  TIP3      H1             -2.8997296295      -19.6762671127        2.6388669866  W2        5277            0.0000000000
     15168      5056  TIP3      H2             -2.6303396295      -18.2853771127        3.1724969866  W2        5277            0.0000000000
     15169      5057  TIP3      OH2           -21.0309196295      -18.9500671127        6.2411369866  W2        5278            0.0000000000
     15170      5057  TIP3      H1            -21.9560796295      -18.7414071127        6.1116869866  W2        5278            0.0000000000
     15171      5057  TIP3      H2            -20.5769296295      -18.4659871127        5.5513669866  W2        5278            0.0000000000
     15172      5058  TIP3      OH2            -6.2601996295       -3.9658971127        8.1868769866  W2        5279            0.0000000000
     15173      5058  TIP3      H1             -5.6079096295       -4.3136871127        7.5787869866  W2        5279            0.0000000000
     15174      5058  TIP3      H2             -5.7498196295       -3.4775771127        8.8328469866  W2        5279            0.0000000000
     15175      5059  TIP3      OH2           -21.0673796295      -20.2121671127       14.5853869866  W2        5280            0.0000000000
     15176      5059  TIP3      H1            -21.7323296295      -20.4581371127       15.2284769866  W2        5280            0.0000000000
     15177      5059  TIP3      H2            -21.5102496295      -19.5901271127       14.0081869866  W2        5280            0.0000000000
     15178      5060  TIP3      OH2           -15.9211596295       -6.0626371127       14.9883669866  W2        5282            0.0000000000
     15179      5060  TIP3      H1            -16.3460496295       -5.2527871127       14.7058269866  W2        5282            0.0000000000
     15180      5060  TIP3      H2            -15.0168796295       -5.9772271127       14.6863469866  W2        5282            0.0000000000
     15181      5061  TIP3      OH2            -9.2649796295       -3.3777471127       17.1918769866  W2        5284            0.0000000000
     15182      5061  TIP3      H1             -8.5880896295       -4.0105171127       16.9517969866  W2        5284            0.0000000000
     15183      5061  TIP3      H2             -8.9430996295       -2.9766971127       17.9992069866  W2        5284            0.0000000000
     15184      5062  TIP3      OH2            -4.3475996295      -20.7881971127       16.2713769866  W2        5285            0.0000000000
     15185      5062  TIP3      H1             -5.1602496295      -20.4631671127       15.8838469866  W2        5285            0.0000000000
     15186      5062  TIP3      H2             -4.1147496295      -21.5483471127       15.7382869866  W2        5285            0.0000000000
     15187      5063  TIP3      OH2           -18.5194896295       -2.8062471127       15.0358969866  W2        5286            0.0000000000
     15188      5063  TIP3      H1            -19.2398496295       -2.3661471127       14.5846669866  W2        5286            0.0000000000
     15189      5063  TIP3      H2            -18.8850896295       -3.0567771127       15.8842969866  W2        5286            0.0000000000
     15190      5064  TIP3      OH2           -16.0522296295       -3.2058571127       14.0656169866  W2        5287            0.0000000000
     15191      5064  TIP3      H1            -16.9170096295       -3.1340071127       14.4696269866  W2        5287            0.0000000000
     15192      5064  TIP3      H2            -16.1073296295       -2.6591271127       13.2818669866  W2        5287            0.0000000000
     15193      5065  TIP3      OH2           -11.3416696295       -3.3179671127       13.2412169866  W2        5288            0.0000000000
     15194      5065  TIP3      H1            -11.7982696295       -2.7889971127       12.5870569866  W2        5288            0.0000000000
     15195      5065  TIP3      H2            -11.1788696295       -2.7148271127       13.9664469866  W2        5288            0.0000000000
     15196      5066  TIP3      OH2            -9.0140396295       -4.4400071127       14.1862469866  W2        5289            0.0000000000
     15197      5066  TIP3      H1             -9.9186696295       -4.2749871127       13.9204569866  W2        5289            0.0000000000
     15198      5066  TIP3      H2             -8.5851796295       -3.5867871127       14.1205869866  W2        5289            0.0000000000
     15199      5067  TIP3      OH2            -6.4098496295       -2.8700971127       14.4810269866  W2        5290            0.0000000000
     15200      5067  TIP3      H1             -6.5916496295       -1.9542071127       14.2705169866  W2        5290            0.0000000000
     15201      5067  TIP3      H2             -6.2330696295       -3.2803871127       13.6344869866  W2        5290            0.0000000000
     15202      5068  TIP3      OH2           -19.1046796295       -4.1829971127       11.9460769866  W2        5291            0.0000000000
     15203      5068  TIP3      H1            -19.1230796295       -4.6084871127       12.8033069866  W2        5291            0.0000000000
     15204      5068  TIP3      H2            -18.2998896295       -4.5014971127       11.5372969866  W2        5291            0.0000000000
     15205      5069  TIP3      OH2           -16.9633696295       -5.4731271127       10.6010669866  W2        5292            0.0000000000
     15206      5069  TIP3      H1            -17.1822996295       -6.3893871127       10.7706669866  W2        5292            0.0000000000
     15207      5069  TIP3      H2            -16.1391496295       -5.3330871127       11.0672069866  W2        5292            0.0000000000
     15208      5070  TIP3      OH2           -14.4261196295       -5.0031971127       11.4498669866  W2        5293            0.0000000000
     15209      5070  TIP3      H1            -14.2135496295       -5.8912971127       11.1629569866  W2        5293            0.0000000000
     15210      5070  TIP3      H2            -14.3616096295       -5.0374271127       12.4042669866  W2        5293            0.0000000000
     15211      5071  TIP3      OH2           -10.9177496295      -19.3391371127       10.5941969866  W2        5294            0.0000000000
     15212      5071  TIP3      H1            -11.5920696295      -19.9685771127       10.8497769866  W2        5294            0.0000000000
     15213      5071  TIP3      H2            -10.3538296295      -19.8232471127        9.9909869866  W2        5294            0.0000000000
     15214      5072  TIP3      OH2            -5.7750296295      -21.2317371127       10.7069069866  W2        5295            0.0000000000
     15215      5072  TIP3      H1             -5.1712696295      -20.6841971127       10.2050069866  W2        5295            0.0000000000
     15216      5072  TIP3      H2             -6.6448296295      -20.9126971127       10.4663169866  W2        5295            0.0000000000
     15217      5073  TIP3      OH2            -4.0479896295      -20.0928671127        9.0399969866  W2        5296            0.0000000000
     15218      5073  TIP3      H1             -3.4362396295      -20.6072971127        8.5133569866  W2        5296            0.0000000000
     15219      5073  TIP3      H2             -3.6656496295      -19.2156571127        9.0634369866  W2        5296            0.0000000000
     15220      5074  TIP3      OH2           -18.5909996295      -20.7051071127        8.4161869866  W2        5297            0.0000000000
     15221      5074  TIP3      H1            -19.3680196295      -20.9396171127        7.9087769866  W2        5297            0.0000000000
     15222      5074  TIP3      H2            -18.0606396295      -21.5018971127        8.4249869866  W2        5297            0.0000000000
     15223      5075  TIP3      OH2           -19.7546596295      -20.9072971127        4.2197969866  W2        5298            0.0000000000
     15224      5075  TIP3      H1            -19.3155896295      -20.2962471127        3.6281469866  W2        5298            0.0000000000
     15225      5075  TIP3      H2            -20.3884196295      -20.3688871127        4.6937969866  W2        5298            0.0000000000
     15226      5076  TIP3      OH2           -14.0117396295      -20.7783971127        8.2294969866  W2        5299            0.0000000000
     15227      5076  TIP3      H1            -13.1373996295      -20.3899671127        8.1999269866  W2        5299            0.0000000000
     15228      5076  TIP3      H2            -14.1476596295      -20.9936171127        9.1522169866  W2        5299            0.0000000000
     15229      5077  TIP3      OH2            -8.4548996295      -20.7484171127        9.8786669866  W2        5300            0.0000000000
     15230      5077  TIP3      H1             -8.3787396295      -20.6532571127        8.9292669866  W2        5300            0.0000000000
     15231      5077  TIP3      H2             -8.7299796295      -21.6561271127       10.0075769866  W2        5300            0.0000000000
     15232      5078  TIP3      OH2            -7.1016396295      -20.7226371127        5.5711669866  W2        5301            0.0000000000
     15233      5078  TIP3      H1             -7.8045296295      -20.1077171127        5.3613069866  W2        5301            0.0000000000
     15234      5078  TIP3      H2             -7.5464996295      -21.5599671127        5.7022569866  W2        5301            0.0000000000
     15235      5079  TIP3      OH2           -19.8537096295       -4.9590771127        5.1173069866  W2        5302            0.0000000000
     15236      5079  TIP3      H1            -20.5387196295       -4.9971871127        4.4498169866  W2        5302            0.0000000000
     15237      5079  TIP3      H2            -19.8499896295       -4.0463171127        5.4055169866  W2        5302            0.0000000000
     15238      5080  TIP3      OH2           -17.8937496295      -18.9911471127        2.6622069866  W2        5303            0.0000000000
     15239      5080  TIP3      H1            -17.4024096295      -19.6209071127        2.1347569866  W2        5303            0.0000000000
     15240      5080  TIP3      H2            -17.2701196295      -18.6952071127        3.3253269866  W2        5303            0.0000000000
     15241      5081  TIP3      OH2           -12.8677396295      -18.6979971127        5.1192569866  W2        5304            0.0000000000
     15242      5081  TIP3      H1            -12.6896096295      -19.3446771127        5.8021169866  W2        5304            0.0000000000
     15243      5081  TIP3      H2            -12.9211196295      -17.8642271127        5.5863669866  W2        5304            0.0000000000
     15244      5082  TIP3      OH2           -10.9893596295       -3.7495871127        3.5149269866  W2        5305            0.0000000000
     15245      5082  TIP3      H1            -10.1233396295       -3.3828471127        3.3367469866  W2        5305            0.0000000000
     15246      5082  TIP3      H2            -11.2360796295       -4.1887871127        2.7010069866  W2        5305            0.0000000000
     15247      5083  TIP3      OH2            -4.2803996295       -4.1865571127        6.1940369866  W2        5306            0.0000000000
     15248      5083  TIP3      H1             -4.4746896295       -4.9343471127        5.6289969866  W2        5306            0.0000000000
     15249      5083  TIP3      H2             -4.3193896295       -3.4285471127        5.6108269866  W2        5306            0.0000000000
     15250      5084  TIP3      OH2           -18.0355896295       -4.0389971127        2.1425169866  W2        5309            0.0000000000
     15251      5084  TIP3      H1            -18.3031296295       -3.7527071127        3.0158269866  W2        5309            0.0000000000
     15252      5084  TIP3      H2            -17.2643296295       -4.5850771127        2.2947669866  W2        5309            0.0000000000
     15253      5085  TIP3      OH2             9.3432603705      -11.5488771127        8.3749369866  W2        5312            0.0000000000
     15254      5085  TIP3      H1              9.4323703705      -10.6050571127        8.2426469866  W2        5312            0.0000000000
     15255      5085  TIP3      H2              8.7050203705      -11.8242371127        7.7168769866  W2        5312            0.0000000000
     15256      5086  TIP3      OH2             8.2763903705      -12.2938071127       11.7937569866  W2        5313            0.0000000000
     15257      5086  TIP3      H1              8.2381403705      -12.9401771127       12.4987169866  W2        5313            0.0000000000
     15258      5086  TIP3      H2              7.9540403705      -12.7603671127       11.0226269866  W2        5313            0.0000000000
     15259      5087  TIP3      OH2             0.6448903705      -12.6795971127       13.3867469866  W2        5314            0.0000000000
     15260      5087  TIP3      H1              0.6861003705      -13.3052671127       14.1099869866  W2        5314            0.0000000000
     15261      5087  TIP3      H2              1.3476603705      -12.0557371127       13.5687869866  W2        5314            0.0000000000
     15262      5088  TIP3      OH2            11.9824103705       -9.3547671127       10.0952669866  W2        5315            0.0000000000
     15263      5088  TIP3      H1             11.5416803705      -10.0751671127       10.5458269866  W2        5315            0.0000000000
     15264      5088  TIP3      H2             11.9693803705       -8.6340471127       10.7250369866  W2        5315            0.0000000000
     15265      5089  TIP3      OH2             1.5682003705       -8.2297071127       11.9216569866  W2        5316            0.0000000000
     15266      5089  TIP3      H1              1.1987203705       -9.0316571127       11.5520869866  W2        5316            0.0000000000
     15267      5089  TIP3      H2              2.5093103705       -8.3982171127       11.9679969866  W2        5316            0.0000000000
     15268      5090  TIP3      OH2            -1.8217496295      -14.5694471127        7.3145369866  W2        5317            0.0000000000
     15269      5090  TIP3      H1             -2.2694096295      -13.7235771127        7.2961869866  W2        5317            0.0000000000
     15270      5090  TIP3      H2             -2.3826296295      -15.1490271127        6.7990469866  W2        5317            0.0000000000
     15271      5091  TIP3      OH2            -1.1111396295      -12.4074871127        9.4403369866  W2        5318            0.0000000000
     15272      5091  TIP3      H1             -0.8977896295      -13.1773271127        9.9676369866  W2        5318            0.0000000000
     15273      5091  TIP3      H2             -0.3733796295      -12.3178171127        8.8370969866  W2        5318            0.0000000000
     15274      5092  TIP3      OH2             9.0939603705       -4.2505971127       10.3073069866  W2        5319            0.0000000000
     15275      5092  TIP3      H1              9.7136003705       -4.9271271127       10.0342269866  W2        5319            0.0000000000
     15276      5092  TIP3      H2              8.8857003705       -4.4685171127       11.2157969866  W2        5319            0.0000000000
     15277      5093  TIP3      OH2             6.6658303705       -9.8616671127       12.1998569866  W2        5320            0.0000000000
     15278      5093  TIP3      H1              6.9696203705      -10.5475271127       11.6052669866  W2        5320            0.0000000000
     15279      5093  TIP3      H2              7.3872303705       -9.7427971127       12.8176569866  W2        5320            0.0000000000
     15280      5094  TIP3      OH2            15.3288103705      -18.2601371127       13.0604769866  W2        5321            0.0000000000
     15281      5094  TIP3      H1             15.3780303705      -17.6500171127       13.7963869866  W2        5321            0.0000000000
     15282      5094  TIP3      H2             15.7543203705      -17.7990471127       12.3375869866  W2        5321            0.0000000000
     15283      5095  TIP3      OH2             9.8065303705      -15.4674271127       12.5273369866  W2        5322            0.0000000000
     15284      5095  TIP3      H1              9.9491203705      -16.4137271127       12.5474969866  W2        5322            0.0000000000
     15285      5095  TIP3      H2              9.7004303705      -15.2604471127       11.5988269866  W2        5322            0.0000000000
     15286      5096  TIP3      OH2             2.9613603705      -17.3657871127        9.7998169866  W2        5323            0.0000000000
     15287      5096  TIP3      H1              3.0044703705      -16.5059371127        9.3814469866  W2        5323            0.0000000000
     15288      5096  TIP3      H2              2.5037703705      -17.9183171127        9.1661369866  W2        5323            0.0000000000
     15289      5097  TIP3      OH2            10.6836303705      -17.2352271127        8.2006469866  W2        5324            0.0000000000
     15290      5097  TIP3      H1             11.3300603705      -17.5639071127        8.8254069866  W2        5324            0.0000000000
     15291      5097  TIP3      H2             11.1935703705      -16.7173271127        7.5777869866  W2        5324            0.0000000000
     15292      5098  TIP3      OH2            -0.4184896295      -14.9692071127       10.5619569866  W2        5325            0.0000000000
     15293      5098  TIP3      H1              0.2351703705      -15.5190371127       10.9939669866  W2        5325            0.0000000000
     15294      5098  TIP3      H2             -0.3945596295      -15.2433071127        9.6451569866  W2        5325            0.0000000000
     15295      5099  TIP3      OH2             4.7379603705      -13.4190771127        9.7771069866  W2        5326            0.0000000000
     15296      5099  TIP3      H1              5.3540603705      -13.9455371127       10.2865069866  W2        5326            0.0000000000
     15297      5099  TIP3      H2              4.1518403705      -14.0592071127        9.3734669866  W2        5326            0.0000000000
     15298      5100  TIP3      OH2            15.7202703705      -16.7822171127       15.2964569866  W2        5327            0.0000000000
     15299      5100  TIP3      H1             15.0317303705      -16.1241471127       15.2011169866  W2        5327            0.0000000000
     15300      5100  TIP3      H2             15.7357303705      -16.9794271127       16.2329969866  W2        5327            0.0000000000
     15301      5101  TIP3      OH2             1.7715503705      -18.4479471127       13.8738969866  W2        5328            0.0000000000
     15302      5101  TIP3      H1              1.5527203705      -17.9178871127       13.1074969866  W2        5328            0.0000000000
     15303      5101  TIP3      H2              1.1036403705      -18.2213971127       14.5210369866  W2        5328            0.0000000000
     15304      5102  TIP3      OH2             9.1405303705       -8.9478371127        7.4178069866  W2        5329            0.0000000000
     15305      5102  TIP3      H1              8.8450403705       -9.2706071127        6.5664969866  W2        5329            0.0000000000
     15306      5102  TIP3      H2              8.8163103705       -8.0481671127        7.4590669866  W2        5329            0.0000000000
     15307      5103  TIP3      OH2             4.3406903705      -10.7723771127       14.1612669866  W2        5330            0.0000000000
     15308      5103  TIP3      H1              3.6006003705      -10.1742271127       14.2647869866  W2        5330            0.0000000000
     15309      5103  TIP3      H2              5.0546403705      -10.2184171127       13.8456269866  W2        5330            0.0000000000
     15310      5104  TIP3      OH2            12.4474703705      -17.9442971127       10.1812369866  W2        5331            0.0000000000
     15311      5104  TIP3      H1             12.2322703705      -18.7099571127       10.7138369866  W2        5331            0.0000000000
     15312      5104  TIP3      H2             13.1032103705      -17.4718371127       10.6940869866  W2        5331            0.0000000000
     15313      5105  TIP3      OH2             1.3652803705      -16.5557671127       11.8261169866  W2        5332            0.0000000000
     15314      5105  TIP3      H1              1.9789103705      -15.9230071127       12.1993569866  W2        5332            0.0000000000
     15315      5105  TIP3      H2              1.8773503705      -17.0282671127       11.1698069866  W2        5332            0.0000000000
     15316      5106  TIP3      OH2             2.7481203705       -8.8080771127       14.9484169866  W2        5333            0.0000000000
     15317      5106  TIP3      H1              2.7428803705       -7.9287271127       14.5703469866  W2        5333            0.0000000000
     15318      5106  TIP3      H2              1.8945303705       -8.8916671127       15.3734069866  W2        5333            0.0000000000
     15319      5107  TIP3      OH2            -1.1307896295       -9.1372871127        5.7303469866  W2        5334            0.0000000000
     15320      5107  TIP3      H1             -1.4026996295       -8.9081871127        4.8416369866  W2        5334            0.0000000000
     15321      5107  TIP3      H2             -1.0852196295       -8.2994071127        6.1908769866  W2        5334            0.0000000000
     15322      5108  TIP3      OH2            12.4941803705       -7.5156971127       12.4431969866  W2        5335            0.0000000000
     15323      5108  TIP3      H1             11.5525503705       -7.4573071127       12.6048869866  W2        5335            0.0000000000
     15324      5108  TIP3      H2             12.7707903705       -6.6096471127       12.3061669866  W2        5335            0.0000000000
     15325      5109  TIP3      OH2            12.7948803705      -19.2291671127       13.8605869866  W2        5336            0.0000000000
     15326      5109  TIP3      H1             12.0588003705      -18.6184571127       13.8227169866  W2        5336            0.0000000000
     15327      5109  TIP3      H2             13.4782803705      -18.8142671127       13.3342269866  W2        5336            0.0000000000
     15328      5110  TIP3      OH2             5.7980203705      -21.1424371127       11.3263869866  W2        5337            0.0000000000
     15329      5110  TIP3      H1              5.6804403705      -22.0908371127       11.2722169866  W2        5337            0.0000000000
     15330      5110  TIP3      H2              4.9430303705      -20.8098271127       11.5994969866  W2        5337            0.0000000000
     15331      5111  TIP3      OH2            10.7463003705       -5.7343471127        9.0683569866  W2        5338            0.0000000000
     15332      5111  TIP3      H1             11.1715303705       -6.4415571127        8.5833169866  W2        5338            0.0000000000
     15333      5111  TIP3      H2             11.0633003705       -4.9330771127        8.6515769866  W2        5338            0.0000000000
     15334      5112  TIP3      OH2            11.9059503705       -7.8334971127        7.5770169866  W2        5339            0.0000000000
     15335      5112  TIP3      H1             11.6484303705       -8.5234871127        6.9656069866  W2        5339            0.0000000000
     15336      5112  TIP3      H2             11.9770303705       -8.2763771127        8.4226069866  W2        5339            0.0000000000
     15337      5113  TIP3      OH2            13.5919703705       -9.2668271127       16.0543669866  W2        5340            0.0000000000
     15338      5113  TIP3      H1             13.7316003705       -9.8585771127       15.3150669866  W2        5340            0.0000000000
     15339      5113  TIP3      H2             13.7592503705       -8.3942371127       15.6982469866  W2        5340            0.0000000000
     15340      5114  TIP3      OH2             8.0645103705      -12.3048771127        5.8269669866  W2        5341            0.0000000000
     15341      5114  TIP3      H1              7.3530603705      -11.7699071127        5.4750169866  W2        5341            0.0000000000
     15342      5114  TIP3      H2              8.7554703705      -12.2496671127        5.1668569866  W2        5341            0.0000000000
     15343      5115  TIP3      OH2             8.1184303705      -13.8474471127        2.8654669866  W2        5342            0.0000000000
     15344      5115  TIP3      H1              8.8194203705      -13.8247571127        3.5168669866  W2        5342            0.0000000000
     15345      5115  TIP3      H2              8.4207203705      -14.4754771127        2.2093969866  W2        5342            0.0000000000
     15346      5116  TIP3      OH2            15.4339003705      -12.9270271127       14.1204069866  W2        5343            0.0000000000
     15347      5116  TIP3      H1             14.7813103705      -12.2324671127       14.2094969866  W2        5343            0.0000000000
     15348      5116  TIP3      H2             15.8989303705      -12.7169371127       13.3105669866  W2        5343            0.0000000000
     15349      5117  TIP3      OH2            11.4702803705      -12.0955471127        6.7785569866  W2        5344            0.0000000000
     15350      5117  TIP3      H1             10.7383803705      -11.8671771127        7.3516169866  W2        5344            0.0000000000
     15351      5117  TIP3      H2             11.9175003705      -12.8092771127        7.2333069866  W2        5344            0.0000000000
     15352      5118  TIP3      OH2            11.3676303705      -13.9212871127       15.8462569866  W2        5345            0.0000000000
     15353      5118  TIP3      H1             11.4475403705      -13.1578471127       16.4181069866  W2        5345            0.0000000000
     15354      5118  TIP3      H2             10.7664003705      -13.6420471127       15.1557669866  W2        5345            0.0000000000
     15355      5119  TIP3      OH2             3.1156503705      -11.4649271127        8.6610569866  W2        5346            0.0000000000
     15356      5119  TIP3      H1              2.7851703705      -11.8355871127        7.8427569866  W2        5346            0.0000000000
     15357      5119  TIP3      H2              3.7040603705      -12.1355271127        9.0078869866  W2        5346            0.0000000000
     15358      5120  TIP3      OH2             4.4824003705       -8.0368671127       11.3422769866  W2        5347            0.0000000000
     15359      5120  TIP3      H1              4.3875303705       -8.6155571127       10.5857369866  W2        5347            0.0000000000
     15360      5120  TIP3      H2              5.2117603705       -8.4082971127       11.8385569866  W2        5347            0.0000000000
     15361      5121  TIP3      OH2             3.4822003705      -12.6963671127       12.2945569866  W2        5348            0.0000000000
     15362      5121  TIP3      H1              4.0474503705      -12.5749471127       11.5316769866  W2        5348            0.0000000000
     15363      5121  TIP3      H2              3.8010903705      -12.0588671127       12.9334069866  W2        5348            0.0000000000
     15364      5122  TIP3      OH2             9.7914203705       -7.1931771127       13.0286069866  W2        5349            0.0000000000
     15365      5122  TIP3      H1              9.5510803705       -6.5308671127       13.6765269866  W2        5349            0.0000000000
     15366      5122  TIP3      H2              9.5932403705       -8.0276571127       13.4535669866  W2        5349            0.0000000000
     15367      5123  TIP3      OH2             4.3622703705       -8.2970971127       17.0117469866  W2        5350            0.0000000000
     15368      5123  TIP3      H1              4.0510203705       -7.5147771127       17.4670669866  W2        5350            0.0000000000
     15369      5123  TIP3      H2              3.7122903705       -8.4501871127       16.3259469866  W2        5350            0.0000000000
     15370      5124  TIP3      OH2            10.3412303705      -12.9332571127        4.4636769866  W2        5351            0.0000000000
     15371      5124  TIP3      H1             10.9207803705      -12.7832271127        5.2105669866  W2        5351            0.0000000000
     15372      5124  TIP3      H2             10.7552303705      -12.4625171127        3.7403169866  W2        5351            0.0000000000
     15373      5125  TIP3      OH2             1.2822603705      -12.0989871127       16.2403169866  W2        5352            0.0000000000
     15374      5125  TIP3      H1              1.3525803705      -11.4483071127       16.9388169866  W2        5352            0.0000000000
     15375      5125  TIP3      H2              0.3914803705      -11.9962371127       15.9054069866  W2        5352            0.0000000000
     15376      5126  TIP3      OH2             8.0677203705       -6.1964071127        7.8989869866  W2        5353            0.0000000000
     15377      5126  TIP3      H1              8.5414803705       -5.9007771127        8.6764069866  W2        5353            0.0000000000
     15378      5126  TIP3      H2              7.5046503705       -5.4582471127        7.6659469866  W2        5353            0.0000000000
     15379      5127  TIP3      OH2            14.0400703705      -21.1832171127        4.2766469866  W2        5355            0.0000000000
     15380      5127  TIP3      H1             13.1401403705      -21.0443171127        4.5717069866  W2        5355            0.0000000000
     15381      5127  TIP3      H2             14.2919103705      -20.3517571127        3.8748169866  W2        5355            0.0000000000
     15382      5128  TIP3      OH2             2.1059203705      -12.3954971127        6.2503369866  W2        5356            0.0000000000
     15383      5128  TIP3      H1              1.8140503705      -11.6273271127        5.7594669866  W2        5356            0.0000000000
     15384      5128  TIP3      H2              1.4314403705      -13.0548771127        6.0874769866  W2        5356            0.0000000000
     15385      5129  TIP3      OH2            15.2292103705       -6.8169771127        2.6530369866  W2        5357            0.0000000000
     15386      5129  TIP3      H1             15.3025603705       -5.8779571127        2.8235669866  W2        5357            0.0000000000
     15387      5129  TIP3      H2             16.1347203705       -7.1221171127        2.5967669866  W2        5357            0.0000000000
     15388      5130  TIP3      OH2            -1.8010696295      -10.0325771127       15.0653169866  W2        5358            0.0000000000
     15389      5130  TIP3      H1             -2.3022296295      -10.0606371127       14.2502869866  W2        5358            0.0000000000
     15390      5130  TIP3      H2             -1.7956996295      -10.9382571127       15.3750469866  W2        5358            0.0000000000
     15391      5131  TIP3      OH2            -2.0507996295       -7.2521971127       11.9493369866  W2        5359            0.0000000000
     15392      5131  TIP3      H1             -1.1047396295       -7.3964971127       11.9302869866  W2        5359            0.0000000000
     15393      5131  TIP3      H2             -2.1631696295       -6.4679171127       12.4864569866  W2        5359            0.0000000000
     15394      5132  TIP3      OH2             7.1254503705       -7.0123071127       16.5078469866  W2        5361            0.0000000000
     15395      5132  TIP3      H1              7.2129103705       -6.1858471127       16.9827569866  W2        5361            0.0000000000
     15396      5132  TIP3      H2              6.2619603705       -7.3419271127       16.7567769866  W2        5361            0.0000000000
     15397      5133  TIP3      OH2             7.5400303705       -3.2399371127        6.3139069866  W2        5362            0.0000000000
     15398      5133  TIP3      H1              7.4646303705       -3.3612171127        5.3674269866  W2        5362            0.0000000000
     15399      5133  TIP3      H2              7.5729003705       -2.2906671127        6.4323669866  W2        5362            0.0000000000
     15400      5134  TIP3      OH2             1.1934103705       -4.4512371127        8.0948069866  W2        5363            0.0000000000
     15401      5134  TIP3      H1              1.3454503705       -4.7991971127        8.9734569866  W2        5363            0.0000000000
     15402      5134  TIP3      H2              0.3424503705       -4.8075071127        7.8395269866  W2        5363            0.0000000000
     15403      5135  TIP3      OH2            10.6416303705       -4.0859171127        3.3161469866  W2        5364            0.0000000000
     15404      5135  TIP3      H1             11.0164703705       -4.8303071127        2.8454069866  W2        5364            0.0000000000
     15405      5135  TIP3      H2             10.6460003705       -4.3558571127        4.2344769866  W2        5364            0.0000000000
     15406      5136  TIP3      OH2            10.3104403705       -4.1602071127        6.0653669866  W2        5365            0.0000000000
     15407      5136  TIP3      H1              9.3754203705       -4.0600171127        6.2440669866  W2        5365            0.0000000000
     15408      5136  TIP3      H2             10.5906303705       -4.8696071127        6.6436869866  W2        5365            0.0000000000
     15409      5137  TIP3      OH2             0.4479803705       -8.7090371127       16.1085969866  W2        5367            0.0000000000
     15410      5137  TIP3      H1              0.6641103705       -9.0704771127       16.9681769866  W2        5367            0.0000000000
     15411      5137  TIP3      H2             -0.4075496295       -9.0836571127       15.8989469866  W2        5367            0.0000000000
     15412      5138  TIP3      OH2             3.0667803705      -20.2389871127       12.1040169866  W2        5368            0.0000000000
     15413      5138  TIP3      H1              2.2051503705      -20.3261671127       11.6963069866  W2        5368            0.0000000000
     15414      5138  TIP3      H2              3.0443503705      -19.3829771127       12.5317769866  W2        5368            0.0000000000
     15415      5139  TIP3      OH2             7.7295603705      -20.5169471127       15.4787169866  W2        5369            0.0000000000
     15416      5139  TIP3      H1              8.1498703705      -20.9322371127       16.2317769866  W2        5369            0.0000000000
     15417      5139  TIP3      H2              6.7965203705      -20.6956171127       15.5959169866  W2        5369            0.0000000000
     15418      5140  TIP3      OH2            11.0560503705      -16.7614271127       16.3321669866  W2        5370            0.0000000000
     15419      5140  TIP3      H1             10.5420003705      -16.8872071127       17.1297669866  W2        5370            0.0000000000
     15420      5140  TIP3      H2             10.9005203705      -15.8491171127       16.0877869866  W2        5370            0.0000000000
     15421      5141  TIP3      OH2            11.8185403705      -11.9004271127        2.0934669866  W2        5371            0.0000000000
     15422      5141  TIP3      H1             11.8606203705      -12.1230371127        1.1634669866  W2        5371            0.0000000000
     15423      5141  TIP3      H2             12.6677503705      -11.5017171127        2.2834569866  W2        5371            0.0000000000
     15424      5142  TIP3      OH2             7.3912903705      -18.0246071127        2.7637969866  W2        5372            0.0000000000
     15425      5142  TIP3      H1              7.1377703705      -18.0054471127        3.6866069866  W2        5372            0.0000000000
     15426      5142  TIP3      H2              7.1345003705      -18.8960671127        2.4624169866  W2        5372            0.0000000000
     15427      5143  TIP3      OH2             3.1577903705      -15.2735371127       13.1990369866  W2        5373            0.0000000000
     15428      5143  TIP3      H1              2.5160003705      -15.3138071127       13.9080469866  W2        5373            0.0000000000
     15429      5143  TIP3      H2              3.1949903705      -14.3470671127       12.9613369866  W2        5373            0.0000000000
     15430      5144  TIP3      OH2             3.1547003705      -15.0525271127        8.1110369866  W2        5374            0.0000000000
     15431      5144  TIP3      H1              2.2619903705      -15.3929171127        8.0524169866  W2        5374            0.0000000000
     15432      5144  TIP3      H2              3.6053603705      -15.4294371127        7.3553569866  W2        5374            0.0000000000
     15433      5145  TIP3      OH2             8.6902503705      -14.6364971127        6.9281169866  W2        5375            0.0000000000
     15434      5145  TIP3      H1              8.2812803705      -13.8216371127        6.6365969866  W2        5375            0.0000000000
     15435      5145  TIP3      H2              9.4108703705      -14.7764871127        6.3138269866  W2        5375            0.0000000000
     15436      5146  TIP3      OH2             9.6950203705      -15.1904571127        9.7420869866  W2        5377            0.0000000000
     15437      5146  TIP3      H1              9.4994703705      -14.5847771127        9.0271469866  W2        5377            0.0000000000
     15438      5146  TIP3      H2              9.8762803705      -16.0239371127        9.3077169866  W2        5377            0.0000000000
     15439      5147  TIP3      OH2             0.9078403705      -14.9531871127       15.0662369866  W2        5378            0.0000000000
     15440      5147  TIP3      H1              0.8697803705      -14.5530271127       15.9349469866  W2        5378            0.0000000000
     15441      5147  TIP3      H2              0.4169503705      -15.7699471127       15.1565269866  W2        5378            0.0000000000
     15442      5148  TIP3      OH2             4.2735803705      -17.5789571127        1.8648369866  W2        5379            0.0000000000
     15443      5148  TIP3      H1              3.8426503705      -18.0239471127        2.5945769866  W2        5379            0.0000000000
     15444      5148  TIP3      H2              3.5554503705      -17.2073271127        1.3525869866  W2        5379            0.0000000000
     15445      5149  TIP3      OH2            -2.4840796295      -17.8370071127        8.9167069866  W2        5380            0.0000000000
     15446      5149  TIP3      H1             -1.8533096295      -17.8657971127        9.6360969866  W2        5380            0.0000000000
     15447      5149  TIP3      H2             -2.0346496295      -18.2621371127        8.1862969866  W2        5380            0.0000000000
     15448      5150  TIP3      OH2            -1.2098696295      -17.0908071127        4.3407469866  W2        5381            0.0000000000
     15449      5150  TIP3      H1             -0.7356996295      -16.4998171127        3.7558369866  W2        5381            0.0000000000
     15450      5150  TIP3      H2             -1.9272296295      -16.5605171127        4.6877569866  W2        5381            0.0000000000
     15451      5151  TIP3      OH2             8.9589403705      -13.5523271127       14.4133269866  W2        5382            0.0000000000
     15452      5151  TIP3      H1              9.2824203705      -14.1833571127       13.7703769866  W2        5382            0.0000000000
     15453      5151  TIP3      H2              8.5188703705      -14.0871071127       15.0740669866  W2        5382            0.0000000000
     15454      5152  TIP3      OH2             5.7362303705      -17.6247771127        9.1974469866  W2        5383            0.0000000000
     15455      5152  TIP3      H1              4.8253403705      -17.5680971127        9.4860469866  W2        5383            0.0000000000
     15456      5152  TIP3      H2              6.2415203705      -17.6852271127       10.0081669866  W2        5383            0.0000000000
     15457      5153  TIP3      OH2             0.5645703705      -15.9961471127        8.0242069866  W2        5384            0.0000000000
     15458      5153  TIP3      H1             -0.3246296295      -15.8965971127        7.6841669866  W2        5384            0.0000000000
     15459      5153  TIP3      H2              0.8610603705      -16.8378471127        7.6779969866  W2        5384            0.0000000000
     15460      5154  TIP3      OH2             4.2177503705      -15.9958871127        5.6806669866  W2        5385            0.0000000000
     15461      5154  TIP3      H1              5.1493003705      -15.8668871127        5.8589769866  W2        5385            0.0000000000
     15462      5154  TIP3      H2              4.0027803705      -15.3264571127        5.0311369866  W2        5385            0.0000000000
     15463      5155  TIP3      OH2            10.1414203705      -18.3901471127       12.4616269866  W2        5386            0.0000000000
     15464      5155  TIP3      H1              9.4645803705      -18.2588371127       13.1255969866  W2        5386            0.0000000000
     15465      5155  TIP3      H2              9.6559103705      -18.5451971127       11.6513969866  W2        5386            0.0000000000
     15466      5156  TIP3      OH2             2.8917703705      -14.8016671127        3.2472769866  W2        5387            0.0000000000
     15467      5156  TIP3      H1              2.3492803705      -15.1812871127        2.5560369866  W2        5387            0.0000000000
     15468      5156  TIP3      H2              3.7252603705      -14.6071971127        2.8186869866  W2        5387            0.0000000000
     15469      5157  TIP3      OH2             7.0562003705      -14.8374771127       11.0844069866  W2        5390            0.0000000000
     15470      5157  TIP3      H1              7.6205403705      -15.3838171127       10.5373669866  W2        5390            0.0000000000
     15471      5157  TIP3      H2              6.9085403705      -15.3592871127       11.8731669866  W2        5390            0.0000000000
     15472      5158  TIP3      OH2             2.0581703705      -18.7008671127        7.5028869866  W2        5391            0.0000000000
     15473      5158  TIP3      H1              1.7411203705      -19.6033371127        7.4674269866  W2        5391            0.0000000000
     15474      5158  TIP3      H2              2.8395803705      -18.6991271127        6.9500469866  W2        5391            0.0000000000
     15475      5159  TIP3      OH2             5.6827903705      -16.4488671127       13.4984469866  W2        5392            0.0000000000
     15476      5159  TIP3      H1              4.8473203705      -15.9949171127       13.6086869866  W2        5392            0.0000000000
     15477      5159  TIP3      H2              6.2068503705      -16.1730171127       14.2504369866  W2        5392            0.0000000000
     15478      5160  TIP3      OH2             6.2270503705      -10.2360971127        5.1830869866  W2        5393            0.0000000000
     15479      5160  TIP3      H1              5.4821503705      -10.7435671127        4.8608769866  W2        5393            0.0000000000
     15480      5160  TIP3      H2              6.0927703705      -10.1872971127        6.1295669866  W2        5393            0.0000000000
     15481      5161  TIP3      OH2            13.3769403705      -11.1032771127       13.9698469866  W2        5394            0.0000000000
     15482      5161  TIP3      H1             14.0188203705      -10.6466471127       13.4260669866  W2        5394            0.0000000000
     15483      5161  TIP3      H2             12.5466303705      -10.9900371127       13.5072569866  W2        5394            0.0000000000
     15484      5162  TIP3      OH2            10.1247303705      -17.4221071127        3.3823469866  W2        5395            0.0000000000
     15485      5162  TIP3      H1              9.1861503705      -17.3105471127        3.2312269866  W2        5395            0.0000000000
     15486      5162  TIP3      H2             10.4219403705      -16.5654171127        3.6889169866  W2        5395            0.0000000000
     15487      5163  TIP3      OH2             7.7462603705      -10.0517671127       16.4199969866  W2        5396            0.0000000000
     15488      5163  TIP3      H1              7.4008703705      -10.4335271127       17.2269569866  W2        5396            0.0000000000
     15489      5163  TIP3      H2              7.5462703705       -9.1184071127       16.4912869866  W2        5396            0.0000000000
     15490      5164  TIP3      OH2            10.8430803705      -15.5548371127        5.0430869866  W2        5397            0.0000000000
     15491      5164  TIP3      H1             11.7349803705      -15.6923371127        5.3622069866  W2        5397            0.0000000000
     15492      5164  TIP3      H2             10.8994403705      -14.7642271127        4.5064369866  W2        5397            0.0000000000
     15493      5165  TIP3      OH2             1.3518803705      -10.9410971127       10.9528769866  W2        5398            0.0000000000
     15494      5165  TIP3      H1              2.0966003705      -10.9435271127       10.3515269866  W2        5398            0.0000000000
     15495      5165  TIP3      H2              1.4295403705      -11.7647171127       11.4343869866  W2        5398            0.0000000000
     15496      5166  TIP3      OH2             8.3524603705       -8.7776671127        4.2085469866  W2        5399            0.0000000000
     15497      5166  TIP3      H1              8.0573003705       -7.9508771127        4.5900269866  W2        5399            0.0000000000
     15498      5166  TIP3      H2              7.6494603705       -9.3969771127        4.4046869866  W2        5399            0.0000000000
     15499      5167  TIP3      OH2            -1.6401496295      -12.4804071127       16.2677269866  W2        5400            0.0000000000
     15500      5167  TIP3      H1             -1.4172896295      -12.8984471127       17.0994769866  W2        5400            0.0000000000
     15501      5167  TIP3      H2             -2.2421396295      -13.0929071127       15.8450069866  W2        5400            0.0000000000
     15502      5168  TIP3      OH2             9.9966203705       -7.5902171127       16.3704969866  W2        5402            0.0000000000
     15503      5168  TIP3      H1              9.0960503705       -7.4069571127       16.1028869866  W2        5402            0.0000000000
     15504      5168  TIP3      H2             10.0307303705       -7.3312871127       17.2913769866  W2        5402            0.0000000000
     15505      5169  TIP3      OH2            15.7279503705      -15.3454271127        4.7377569866  W2        5403            0.0000000000
     15506      5169  TIP3      H1             15.1735803705      -15.7416271127        4.0655069866  W2        5403            0.0000000000
     15507      5169  TIP3      H2             15.8283103705      -14.4349071127        4.4600869866  W2        5403            0.0000000000
     15508      5170  TIP3      OH2            14.0231203705       -6.5593871127        5.2029669866  W2        5405            0.0000000000
     15509      5170  TIP3      H1             13.6502303705       -7.3850071127        5.5120269866  W2        5405            0.0000000000
     15510      5170  TIP3      H2             14.3004703705       -6.7424471127        4.3053069866  W2        5405            0.0000000000
     15511      5171  TIP3      OH2            11.1835103705      -11.7514371127       12.2241569866  W2        5406            0.0000000000
     15512      5171  TIP3      H1             10.2552003705      -11.9832471127       12.1970869866  W2        5406            0.0000000000
     15513      5171  TIP3      H2             11.6346203705      -12.5284571127       11.8940369866  W2        5406            0.0000000000
     15514      5172  TIP3      OH2             3.7268203705       -7.4232771127        8.3570269866  W2        5407            0.0000000000
     15515      5172  TIP3      H1              4.2540403705       -6.6498371127        8.1569069866  W2        5407            0.0000000000
     15516      5172  TIP3      H2              2.8466703705       -7.1983571127        8.0554269866  W2        5407            0.0000000000
     15517      5173  TIP3      OH2            -0.5184096295      -12.5608671127        2.9442669866  W2        5408            0.0000000000
     15518      5173  TIP3      H1              0.0975803705      -11.9341471127        3.3237469866  W2        5408            0.0000000000
     15519      5173  TIP3      H2             -1.3801496295      -12.2448871127        3.2159169866  W2        5408            0.0000000000
     15520      5174  TIP3      OH2             5.1540503705       -9.7602871127        7.9334569866  W2        5409            0.0000000000
     15521      5174  TIP3      H1              4.9130503705       -8.8348471127        7.9749869866  W2        5409            0.0000000000
     15522      5174  TIP3      H2              4.4134103705      -10.2191571127        8.3298469866  W2        5409            0.0000000000
     15523      5175  TIP3      OH2             5.6687103705       -5.6109271127       14.2485669866  W2        5410            0.0000000000
     15524      5175  TIP3      H1              6.0311803705       -4.7563671127       14.0150069866  W2        5410            0.0000000000
     15525      5175  TIP3      H2              6.2002303705       -5.9027671127       14.9891969866  W2        5410            0.0000000000
     15526      5176  TIP3      OH2             3.8371303705       -4.7385271127        7.4786769866  W2        5411            0.0000000000
     15527      5176  TIP3      H1              2.8871803705       -4.6327871127        7.5300069866  W2        5411            0.0000000000
     15528      5176  TIP3      H2              4.1889403705       -3.9177871127        7.8234269866  W2        5411            0.0000000000
     15529      5177  TIP3      OH2             9.2127903705       -9.5118571127       13.9491269866  W2        5412            0.0000000000
     15530      5177  TIP3      H1              8.7869203705       -9.7396871127       14.7755269866  W2        5412            0.0000000000
     15531      5177  TIP3      H2              9.7933703705      -10.2506771127       13.7666569866  W2        5412            0.0000000000
     15532      5178  TIP3      OH2            11.4156803705       -8.5828071127        3.0230269866  W2        5413            0.0000000000
     15533      5178  TIP3      H1             11.7689903705       -8.9628271127        3.8273769866  W2        5413            0.0000000000
     15534      5178  TIP3      H2             10.4670303705       -8.6763271127        3.1099569866  W2        5413            0.0000000000
     15535      5179  TIP3      OH2            11.8712103705       -4.9599071127       16.4186069866  W2        5414            0.0000000000
     15536      5179  TIP3      H1             11.2695303705       -5.5156171127       15.9232369866  W2        5414            0.0000000000
     15537      5179  TIP3      H2             12.1525803705       -4.2929271127       15.7923469866  W2        5414            0.0000000000
     15538      5180  TIP3      OH2            15.9191203705       -4.1035571127        3.2240469866  W2        5415            0.0000000000
     15539      5180  TIP3      H1             16.6629103705       -3.5175071127        3.0842069866  W2        5415            0.0000000000
     15540      5180  TIP3      H2             15.2249303705       -3.5349771127        3.5572869866  W2        5415            0.0000000000
     15541      5181  TIP3      OH2            -0.0061996295      -17.7271371127       15.8258669866  W2        5416            0.0000000000
     15542      5181  TIP3      H1             -0.8989696295      -17.3885971127       15.7582669866  W2        5416            0.0000000000
     15543      5181  TIP3      H2             -0.1049196295      -18.5825271127       16.2439469866  W2        5416            0.0000000000
     15544      5182  TIP3      OH2            12.2816103705       -9.9106071127        5.2498169866  W2        5417            0.0000000000
     15545      5182  TIP3      H1             12.0043703705      -10.6386771127        5.8059269866  W2        5417            0.0000000000
     15546      5182  TIP3      H2             13.2089103705       -9.7914071127        5.4550769866  W2        5417            0.0000000000
     15547      5183  TIP3      OH2            -0.3549996295       -5.9226971127       14.2608069866  W2        5418            0.0000000000
     15548      5183  TIP3      H1             -0.1379696295       -6.8544571127       14.2297769866  W2        5418            0.0000000000
     15549      5183  TIP3      H2             -0.1086496295       -5.6481971127       15.1440869866  W2        5418            0.0000000000
     15550      5184  TIP3      OH2             5.5064603705       -7.4711971127        1.4700269866  W2        5419            0.0000000000
     15551      5184  TIP3      H1              5.7454403705       -8.2193871127        0.9229169866  W2        5419            0.0000000000
     15552      5184  TIP3      H2              5.2375903705       -7.8590271127        2.3028069866  W2        5419            0.0000000000
     15553      5185  TIP3      OH2             4.4435203705       -7.9008171127        3.9262869866  W2        5420            0.0000000000
     15554      5185  TIP3      H1              4.5903203705       -8.4208371127        4.7163769866  W2        5420            0.0000000000
     15555      5185  TIP3      H2              4.4406903705       -6.9940571127        4.2328769866  W2        5420            0.0000000000
     15556      5186  TIP3      OH2             0.8966303705      -10.6484871127        4.4368269866  W2        5421            0.0000000000
     15557      5186  TIP3      H1              0.2105603705      -10.2962371127        5.0037969866  W2        5421            0.0000000000
     15558      5186  TIP3      H2              1.4194203705       -9.8855271127        4.1902569866  W2        5421            0.0000000000
     15559      5187  TIP3      OH2             8.7281403705      -17.9861071127       14.7157269866  W2        5422            0.0000000000
     15560      5187  TIP3      H1              9.4269303705      -17.9122371127       15.3656969866  W2        5422            0.0000000000
     15561      5187  TIP3      H2              8.3472803705      -18.8506071127       14.8700169866  W2        5422            0.0000000000
     15562      5188  TIP3      OH2             9.5126303705      -18.3339371127        5.8129569866  W2        5423            0.0000000000
     15563      5188  TIP3      H1              9.7324603705      -17.8623971127        5.0094969866  W2        5423            0.0000000000
     15564      5188  TIP3      H2             10.0710303705      -17.9396771127        6.4830169866  W2        5423            0.0000000000
     15565      5189  TIP3      OH2             7.1812403705       -6.2034571127        4.6757069866  W2        5424            0.0000000000
     15566      5189  TIP3      H1              6.3648503705       -5.7064871127        4.7281369866  W2        5424            0.0000000000
     15567      5189  TIP3      H2              7.7108703705       -5.7281071127        4.0355869866  W2        5424            0.0000000000
     15568      5190  TIP3      OH2             6.7126203705      -16.6060571127        6.6477969866  W2        5425            0.0000000000
     15569      5190  TIP3      H1              7.5248803705      -16.1017371127        6.6939669866  W2        5425            0.0000000000
     15570      5190  TIP3      H2              6.4679203705      -16.7510871127        7.5617569866  W2        5425            0.0000000000
     15571      5191  TIP3      OH2             7.2482603705      -15.6197871127       15.8324569866  W2        5426            0.0000000000
     15572      5191  TIP3      H1              7.3672903705      -15.0462471127       16.5894969866  W2        5426            0.0000000000
     15573      5191  TIP3      H2              7.9037203705      -16.3078471127       15.9472369866  W2        5426            0.0000000000
     15574      5192  TIP3      OH2             7.5962903705      -19.5247571127        7.5859069866  W2        5427            0.0000000000
     15575      5192  TIP3      H1              7.2496403705      -18.9076971127        8.2303369866  W2        5427            0.0000000000
     15576      5192  TIP3      H2              8.2549803705      -19.0241871127        7.1044569866  W2        5427            0.0000000000
     15577      5193  TIP3      OH2             4.5195503705       -5.1597371127        4.6573969866  W2        5428            0.0000000000
     15578      5193  TIP3      H1              4.6804203705       -4.3599871127        4.1566569866  W2        5428            0.0000000000
     15579      5193  TIP3      H2              4.3223303705       -4.8531371127        5.5424569866  W2        5428            0.0000000000
     15580      5194  TIP3      OH2             3.2539903705      -18.4618171127        4.2731569866  W2        5429            0.0000000000
     15581      5194  TIP3      H1              3.1704703705      -17.5735071127        4.6197969866  W2        5429            0.0000000000
     15582      5194  TIP3      H2              4.1440203705      -18.7271471127        4.5048369866  W2        5429            0.0000000000
     15583      5195  TIP3      OH2            13.4528403705      -17.7127571127       16.6674269866  W2        5430            0.0000000000
     15584      5195  TIP3      H1             12.5364203705      -17.4505871127       16.5797969866  W2        5430            0.0000000000
     15585      5195  TIP3      H2             13.7883403705      -17.7158571127       15.7709569866  W2        5430            0.0000000000
     15586      5196  TIP3      OH2            12.0549403705      -13.9626571127       10.7631569866  W2        5431            0.0000000000
     15587      5196  TIP3      H1             11.2573803705      -14.3776371127       10.4346569866  W2        5431            0.0000000000
     15588      5196  TIP3      H2             12.5000503705      -14.6532871127       11.2542069866  W2        5431            0.0000000000
     15589      5197  TIP3      OH2             1.5125203705       -8.0345971127        3.3336069866  W2        5432            0.0000000000
     15590      5197  TIP3      H1              2.1046703705       -7.3351171127        3.6098469866  W2        5432            0.0000000000
     15591      5197  TIP3      H2              1.9718203705       -8.4676471127        2.6140669866  W2        5432            0.0000000000
     15592      5198  TIP3      OH2            -0.1715596295      -15.3702971127        2.4495469866  W2        5433            0.0000000000
     15593      5198  TIP3      H1             -0.2162996295      -14.4309871127        2.6282469866  W2        5433            0.0000000000
     15594      5198  TIP3      H2             -1.0592396295      -15.6058071127        2.1797569866  W2        5433            0.0000000000
     15595      5199  TIP3      OH2            13.1414003705       -4.7064071127       12.3855069866  W2        5434            0.0000000000
     15596      5199  TIP3      H1             12.9858303705       -4.0279671127       11.7284369866  W2        5434            0.0000000000
     15597      5199  TIP3      H2             14.0740403705       -4.6344771127       12.5885669866  W2        5434            0.0000000000
     15598      5200  TIP3      OH2             0.6366403705      -20.5886371127       11.1226469866  W2        5435            0.0000000000
     15599      5200  TIP3      H1              0.4076203705      -20.5293871127       10.1951469866  W2        5435            0.0000000000
     15600      5200  TIP3      H2              0.1939803705      -21.3800871127       11.4290569866  W2        5435            0.0000000000
     15601      5201  TIP3      OH2            -0.4330296295       -6.6479271127        7.2832269866  W2        5436            0.0000000000
     15602      5201  TIP3      H1             -1.2651696295       -6.1756571127        7.3103669866  W2        5436            0.0000000000
     15603      5201  TIP3      H2              0.1128003705       -6.1381671127        6.6845369866  W2        5436            0.0000000000
     15604      5202  TIP3      OH2             7.5446403705       -5.6080571127        1.6086269866  W2        5439            0.0000000000
     15605      5202  TIP3      H1              6.9007403705       -6.2391971127        1.9299969866  W2        5439            0.0000000000
     15606      5202  TIP3      H2              8.3064703705       -6.1392571127        1.3769769866  W2        5439            0.0000000000
     15607      5203  TIP3      OH2            12.1489303705       -5.7910671127        1.8424269866  W2        5441            0.0000000000
     15608      5203  TIP3      H1             12.4319703705       -6.5855471127        2.2951169866  W2        5441            0.0000000000
     15609      5203  TIP3      H2             12.8887203705       -5.5579671127        1.2815369866  W2        5441            0.0000000000
     15610      5204  TIP3      OH2             3.1036603705       -9.8815771127        1.6999169866  W2        5443            0.0000000000
     15611      5204  TIP3      H1              3.1680703705      -10.6756171127        2.2305569866  W2        5443            0.0000000000
     15612      5204  TIP3      H2              3.7565803705      -10.0002971127        1.0101169866  W2        5443            0.0000000000
     15613      5205  TIP3      OH2             8.4560003705       -8.8344071127        1.4357169866  W2        5445            0.0000000000
     15614      5205  TIP3      H1              8.1874103705       -8.6541971127        2.3366069866  W2        5445            0.0000000000
     15615      5205  TIP3      H2              8.2495603705       -9.7597871127        1.3042969866  W2        5445            0.0000000000
     15616      5206  TIP3      OH2            11.1524203705      -10.3396071127       16.3833269866  W2        5446            0.0000000000
     15617      5206  TIP3      H1             11.8979003705       -9.7512371127       16.2637269866  W2        5446            0.0000000000
     15618      5206  TIP3      H2             10.3951003705       -9.7576371127       16.4466369866  W2        5446            0.0000000000
     15619      5207  TIP3      OH2             4.2530403705      -11.9089571127        4.0057169866  W2        5448            0.0000000000
     15620      5207  TIP3      H1              3.7932403705      -12.3931271127        4.6915669866  W2        5448            0.0000000000
     15621      5207  TIP3      H2              4.5079103705      -12.5774171127        3.3697669866  W2        5448            0.0000000000
     15622      5208  TIP3      OH2             3.5419703705      -14.0162471127       16.3616769866  W2        5449            0.0000000000
     15623      5208  TIP3      H1              2.9235803705      -13.3415871127       16.6421469866  W2        5449            0.0000000000
     15624      5208  TIP3      H2              3.8860903705      -13.6948571127       15.5282969866  W2        5449            0.0000000000
     15625      5209  TIP3      OH2             5.3240803705      -13.6657771127        2.2680369866  W2        5450            0.0000000000
     15626      5209  TIP3      H1              5.1435803705      -13.8206571127        1.3408669866  W2        5450            0.0000000000
     15627      5209  TIP3      H2              6.2741303705      -13.5579071127        2.3128269866  W2        5450            0.0000000000
     15628      5210  TIP3      OH2            14.7139103705      -11.3113571127        1.7138469866  W2        5452            0.0000000000
     15629      5210  TIP3      H1             14.4403903705      -11.7358071127        0.9006769866  W2        5452            0.0000000000
     15630      5210  TIP3      H2             14.7533203705      -10.3799071127        1.4968869866  W2        5452            0.0000000000
     15631      5211  TIP3      OH2             3.8813403705      -16.6611671127       17.4439869866  W2        5453            0.0000000000
     15632      5211  TIP3      H1              4.0314303705      -17.3900371127       16.8419569866  W2        5453            0.0000000000
     15633      5211  TIP3      H2              3.8835803705      -15.8839971127       16.8852069866  W2        5453            0.0000000000
     15634      5212  TIP3      OH2             4.2939103705      -18.2915871127       14.9367269866  W2        5454            0.0000000000
     15635      5212  TIP3      H1              4.8296603705      -17.8399171127       14.2846569866  W2        5454            0.0000000000
     15636      5212  TIP3      H2              3.4418703705      -18.3996071127       14.5141369866  W2        5454            0.0000000000
     15637      5213  TIP3      OH2             5.8757503705      -12.8519671127       15.1762469866  W2        5455            0.0000000000
     15638      5213  TIP3      H1              6.6262303705      -13.0082171127       14.6030269866  W2        5455            0.0000000000
     15639      5213  TIP3      H2              5.5365803705      -12.0003071127       14.9007969866  W2        5455            0.0000000000
     15640      5214  TIP3      OH2             5.0994603705      -20.8350171127       15.3680869866  W2        5459            0.0000000000
     15641      5214  TIP3      H1              5.0014203705      -19.8886971127       15.2627069866  W2        5459            0.0000000000
     15642      5214  TIP3      H2              4.3570803705      -21.2076371127       14.8924369866  W2        5459            0.0000000000
     15643      5215  TIP3      OH2             5.2212503705       -2.9754071127        3.2693969866  W2        5466            0.0000000000
     15644      5215  TIP3      H1              6.1543203705       -2.8175371127        3.4132369866  W2        5466            0.0000000000
     15645      5215  TIP3      H2              4.9571303705       -2.3001071127        2.6445469866  W2        5466            0.0000000000
     15646      5216  TIP3      OH2            -1.2102596295       -8.3390271127        2.7522069866  W2        5467            0.0000000000
     15647      5216  TIP3      H1             -0.2963396295       -8.2601371127        3.0255969866  W2        5467            0.0000000000
     15648      5216  TIP3      H2             -1.2029496295       -9.0260671127        2.0857669866  W2        5467            0.0000000000
     15649      5217  TIP3      OH2            -2.5611996295       -2.9461771127        7.8295969866  W2        5468            0.0000000000
     15650      5217  TIP3      H1             -3.2084896295       -3.4080071127        7.2967169866  W2        5468            0.0000000000
     15651      5217  TIP3      H2             -2.2067396295       -3.6178471127        8.4122169866  W2        5468            0.0000000000
     15652      5218  TIP3      OH2            -1.6912796295       -4.8654771127        9.6342169866  W2        5469            0.0000000000
     15653      5218  TIP3      H1             -2.0255996295       -5.7457471127        9.8062369866  W2        5469            0.0000000000
     15654      5218  TIP3      H2             -1.4690396295       -4.5199771127       10.4987769866  W2        5469            0.0000000000
     15655      5219  TIP3      OH2            15.8572003705       -4.0558371127       12.6146969866  W2        5470            0.0000000000
     15656      5219  TIP3      H1             15.8358703705       -3.8709971127       13.5536369866  W2        5470            0.0000000000
     15657      5219  TIP3      H2             16.5478203705       -3.4874371127       12.2738369866  W2        5470            0.0000000000
     15658      5220  TIP3      OH2            15.4204903705       -4.4887271127       15.5366069866  W2        5471            0.0000000000
     15659      5220  TIP3      H1             14.9333603705       -5.2243171127       15.1653469866  W2        5471            0.0000000000
     15660      5220  TIP3      H2             15.9697603705       -4.8823371127       16.2145469866  W2        5471            0.0000000000
     15661      5221  TIP3      OH2            15.1721903705      -10.4425471127        5.6888869866  W2        5473            0.0000000000
     15662      5221  TIP3      H1             16.0223303705      -10.0214571127        5.8160469866  W2        5473            0.0000000000
     15663      5221  TIP3      H2             15.1777003705      -11.1825371127        6.2960269866  W2        5473            0.0000000000
     15664      5222  TIP3      OH2            15.5667503705      -12.3888071127        7.5124569866  W2        5474            0.0000000000
     15665      5222  TIP3      H1             14.8402103705      -12.8685471127        7.9102169866  W2        5474            0.0000000000
     15666      5222  TIP3      H2             16.1480803705      -12.1833371127        8.2446169866  W2        5474            0.0000000000
     15667      5223  TIP3      OH2            15.3258703705       -9.6040571127       12.4602169866  W2        5475            0.0000000000
     15668      5223  TIP3      H1             16.1592903705       -9.9820571127       12.1795769866  W2        5475            0.0000000000
     15669      5223  TIP3      H2             15.4379003705       -8.6609371127       12.3411269866  W2        5475            0.0000000000
     15670      5224  TIP3      OH2            13.8121003705       -6.7263071127       14.7670569866  W2        5476            0.0000000000
     15671      5224  TIP3      H1             13.1646303705       -6.4011571127       15.3925769866  W2        5476            0.0000000000
     15672      5224  TIP3      H2             13.2945003705       -7.1665371127       14.0928869866  W2        5476            0.0000000000
     15673      5225  TIP3      OH2            15.8350603705      -12.4879571127        3.9035869866  W2        5477            0.0000000000
     15674      5225  TIP3      H1             15.3131703705      -12.1315471127        3.1846769866  W2        5477            0.0000000000
     15675      5225  TIP3      H2             15.8019803705      -11.8131771127        4.5816769866  W2        5477            0.0000000000
     15676      5226  TIP3      OH2            14.1839603705      -15.2483971127        2.4542969866  W2        5478            0.0000000000
     15677      5226  TIP3      H1             14.2804003705      -14.5816971127        1.7742669866  W2        5478            0.0000000000
     15678      5226  TIP3      H2             14.0439203705      -16.0637671127        1.9728469866  W2        5478            0.0000000000
     15679      5227  TIP3      OH2            13.3534303705      -13.8681571127        8.0753269866  W2        5479            0.0000000000
     15680      5227  TIP3      H1             13.2033103705      -14.8132971127        8.0551069866  W2        5479            0.0000000000
     15681      5227  TIP3      H2             12.9998803705      -13.5870171127        8.9192369866  W2        5479            0.0000000000
     15682      5228  TIP3      OH2            -1.6113296295      -11.7899371127       12.0857069866  W2        5480            0.0000000000
     15683      5228  TIP3      H1             -1.4270396295      -11.8717671127       11.1499969866  W2        5480            0.0000000000
     15684      5228  TIP3      H2             -0.7620396295      -11.9142371127       12.5093469866  W2        5480            0.0000000000
     15685      5229  TIP3      OH2            13.4313403705      -17.8404171127        1.5718469866  W2        5483            0.0000000000
     15686      5229  TIP3      H1             14.0419203705      -18.2117371127        2.2086669866  W2        5483            0.0000000000
     15687      5229  TIP3      H2             12.5944903705      -18.2617271127        1.7678469866  W2        5483            0.0000000000
     15688      5230  TIP3      OH2            13.0639103705      -16.2855771127        6.5378369866  W2        5484            0.0000000000
     15689      5230  TIP3      H1             13.3436203705      -17.1925371127        6.6620069866  W2        5484            0.0000000000
     15690      5230  TIP3      H2             13.8230803705      -15.8514271127        6.1487569866  W2        5484            0.0000000000
     15691      5231  TIP3      OH2            13.6757403705      -15.7038371127       11.9737269866  W2        5485            0.0000000000
     15692      5231  TIP3      H1             14.6085403705      -15.4918471127       11.9393269866  W2        5485            0.0000000000
     15693      5231  TIP3      H2             13.4404903705      -15.6026271127       12.8960269866  W2        5485            0.0000000000
     15694      5232  TIP3      OH2            13.7049303705      -14.9673071127       14.7496669866  W2        5486            0.0000000000
     15695      5232  TIP3      H1             12.8620603705      -14.6992671127       15.1156469866  W2        5486            0.0000000000
     15696      5232  TIP3      H2             14.1473603705      -14.1451171127       14.5387769866  W2        5486            0.0000000000
     15697      5233  TIP3      OH2            13.6773903705      -19.0226471127        6.5860369866  W2        5489            0.0000000000
     15698      5233  TIP3      H1             13.8598903705      -19.4714971127        7.4115369866  W2        5489            0.0000000000
     15699      5233  TIP3      H2             13.0776803705      -19.6072071127        6.1224969866  W2        5489            0.0000000000
     15700      5234  TIP3      OH2            -0.7925996295      -18.2072771127       11.1178769866  W2        5490            0.0000000000
     15701      5234  TIP3      H1             -0.3474396295      -18.9990271127       11.4198469866  W2        5490            0.0000000000
     15702      5234  TIP3      H2             -0.3262996295      -17.4907571127       11.5484369866  W2        5490            0.0000000000
     15703      5235  TIP3      OH2            -2.4885696295      -15.2079771127       12.1868969866  W2        5491            0.0000000000
     15704      5235  TIP3      H1             -1.9965896295      -15.4289271127       11.3960969866  W2        5491            0.0000000000
     15705      5235  TIP3      H2             -2.1264796295      -14.3676371127       12.4678469866  W2        5491            0.0000000000
     15706      5236  TIP3      OH2            15.5440103705      -18.9548371127        3.1140669866  W2        5493            0.0000000000
     15707      5236  TIP3      H1             15.9562703705      -19.6762671127        2.6388669866  W2        5493            0.0000000000
     15708      5236  TIP3      H2             16.2256603705      -18.2853771127        3.1724969866  W2        5493            0.0000000000
     15709      5237  TIP3      OH2            -2.1749196295      -18.9500671127        6.2411369866  W2        5494            0.0000000000
     15710      5237  TIP3      H1             -3.1000796295      -18.7414071127        6.1116869866  W2        5494            0.0000000000
     15711      5237  TIP3      H2             -1.7209296295      -18.4659871127        5.5513669866  W2        5494            0.0000000000
     15712      5238  TIP3      OH2            12.5958003705       -3.9658971127        8.1868769866  W2        5495            0.0000000000
     15713      5238  TIP3      H1             13.2480903705       -4.3136871127        7.5787869866  W2        5495            0.0000000000
     15714      5238  TIP3      H2             13.1061803705       -3.4775771127        8.8328469866  W2        5495            0.0000000000
     15715      5239  TIP3      OH2            -2.2113796295      -20.2121671127       14.5853869866  W2        5496            0.0000000000
     15716      5239  TIP3      H1             -2.8763296295      -20.4581371127       15.2284769866  W2        5496            0.0000000000
     15717      5239  TIP3      H2             -2.6542496295      -19.5901271127       14.0081869866  W2        5496            0.0000000000
     15718      5240  TIP3      OH2             2.9348403705       -6.0626371127       14.9883669866  W2        5498            0.0000000000
     15719      5240  TIP3      H1              2.5099503705       -5.2527871127       14.7058269866  W2        5498            0.0000000000
     15720      5240  TIP3      H2              3.8391203705       -5.9772271127       14.6863469866  W2        5498            0.0000000000
     15721      5241  TIP3      OH2             9.5910203705       -3.3777471127       17.1918769866  W2        5500            0.0000000000
     15722      5241  TIP3      H1             10.2679103705       -4.0105171127       16.9517969866  W2        5500            0.0000000000
     15723      5241  TIP3      H2              9.9129003705       -2.9766971127       17.9992069866  W2        5500            0.0000000000
     15724      5242  TIP3      OH2            14.5084003705      -20.7881971127       16.2713769866  W2        5501            0.0000000000
     15725      5242  TIP3      H1             13.6957503705      -20.4631671127       15.8838469866  W2        5501            0.0000000000
     15726      5242  TIP3      H2             14.7412503705      -21.5483471127       15.7382869866  W2        5501            0.0000000000
     15727      5243  TIP3      OH2             0.3365103705       -2.8062471127       15.0358969866  W2        5502            0.0000000000
     15728      5243  TIP3      H1             -0.3838496295       -2.3661471127       14.5846669866  W2        5502            0.0000000000
     15729      5243  TIP3      H2             -0.0290896295       -3.0567771127       15.8842969866  W2        5502            0.0000000000
     15730      5244  TIP3      OH2             2.8037703705       -3.2058571127       14.0656169866  W2        5503            0.0000000000
     15731      5244  TIP3      H1              1.9389903705       -3.1340071127       14.4696269866  W2        5503            0.0000000000
     15732      5244  TIP3      H2              2.7486703705       -2.6591271127       13.2818669866  W2        5503            0.0000000000
     15733      5245  TIP3      OH2             7.5143303705       -3.3179671127       13.2412169866  W2        5504            0.0000000000
     15734      5245  TIP3      H1              7.0577303705       -2.7889971127       12.5870569866  W2        5504            0.0000000000
     15735      5245  TIP3      H2              7.6771303705       -2.7148271127       13.9664469866  W2        5504            0.0000000000
     15736      5246  TIP3      OH2             9.8419603705       -4.4400071127       14.1862469866  W2        5505            0.0000000000
     15737      5246  TIP3      H1              8.9373303705       -4.2749871127       13.9204569866  W2        5505            0.0000000000
     15738      5246  TIP3      H2             10.2708203705       -3.5867871127       14.1205869866  W2        5505            0.0000000000
     15739      5247  TIP3      OH2            12.4461503705       -2.8700971127       14.4810269866  W2        5506            0.0000000000
     15740      5247  TIP3      H1             12.2643503705       -1.9542071127       14.2705169866  W2        5506            0.0000000000
     15741      5247  TIP3      H2             12.6229303705       -3.2803871127       13.6344869866  W2        5506            0.0000000000
     15742      5248  TIP3      OH2            -0.2486796295       -4.1829971127       11.9460769866  W2        5507            0.0000000000
     15743      5248  TIP3      H1             -0.2670796295       -4.6084871127       12.8033069866  W2        5507            0.0000000000
     15744      5248  TIP3      H2              0.5561103705       -4.5014971127       11.5372969866  W2        5507            0.0000000000
     15745      5249  TIP3      OH2             1.8926303705       -5.4731271127       10.6010669866  W2        5508            0.0000000000
     15746      5249  TIP3      H1              1.6737003705       -6.3893871127       10.7706669866  W2        5508            0.0000000000
     15747      5249  TIP3      H2              2.7168503705       -5.3330871127       11.0672069866  W2        5508            0.0000000000
     15748      5250  TIP3      OH2             4.4298803705       -5.0031971127       11.4498669866  W2        5509            0.0000000000
     15749      5250  TIP3      H1              4.6424503705       -5.8912971127       11.1629569866  W2        5509            0.0000000000
     15750      5250  TIP3      H2              4.4943903705       -5.0374271127       12.4042669866  W2        5509            0.0000000000
     15751      5251  TIP3      OH2             7.9382503705      -19.3391371127       10.5941969866  W2        5510            0.0000000000
     15752      5251  TIP3      H1              7.2639303705      -19.9685771127       10.8497769866  W2        5510            0.0000000000
     15753      5251  TIP3      H2              8.5021703705      -19.8232471127        9.9909869866  W2        5510            0.0000000000
     15754      5252  TIP3      OH2            13.0809703705      -21.2317371127       10.7069069866  W2        5511            0.0000000000
     15755      5252  TIP3      H1             13.6847303705      -20.6841971127       10.2050069866  W2        5511            0.0000000000
     15756      5252  TIP3      H2             12.2111703705      -20.9126971127       10.4663169866  W2        5511            0.0000000000
     15757      5253  TIP3      OH2            14.8080103705      -20.0928671127        9.0399969866  W2        5512            0.0000000000
     15758      5253  TIP3      H1             15.4197603705      -20.6072971127        8.5133569866  W2        5512            0.0000000000
     15759      5253  TIP3      H2             15.1903503705      -19.2156571127        9.0634369866  W2        5512            0.0000000000
     15760      5254  TIP3      OH2             0.2650003705      -20.7051071127        8.4161869866  W2        5513            0.0000000000
     15761      5254  TIP3      H1             -0.5120196295      -20.9396171127        7.9087769866  W2        5513            0.0000000000
     15762      5254  TIP3      H2              0.7953603705      -21.5018971127        8.4249869866  W2        5513            0.0000000000
     15763      5255  TIP3      OH2            -0.8986596295      -20.9072971127        4.2197969866  W2        5514            0.0000000000
     15764      5255  TIP3      H1             -0.4595896295      -20.2962471127        3.6281469866  W2        5514            0.0000000000
     15765      5255  TIP3      H2             -1.5324196295      -20.3688871127        4.6937969866  W2        5514            0.0000000000
     15766      5256  TIP3      OH2             4.8442603705      -20.7783971127        8.2294969866  W2        5515            0.0000000000
     15767      5256  TIP3      H1              5.7186003705      -20.3899671127        8.1999269866  W2        5515            0.0000000000
     15768      5256  TIP3      H2              4.7083403705      -20.9936171127        9.1522169866  W2        5515            0.0000000000
     15769      5257  TIP3      OH2            10.4011003705      -20.7484171127        9.8786669866  W2        5516            0.0000000000
     15770      5257  TIP3      H1             10.4772603705      -20.6532571127        8.9292669866  W2        5516            0.0000000000
     15771      5257  TIP3      H2             10.1260203705      -21.6561271127       10.0075769866  W2        5516            0.0000000000
     15772      5258  TIP3      OH2            11.7543603705      -20.7226371127        5.5711669866  W2        5517            0.0000000000
     15773      5258  TIP3      H1             11.0514703705      -20.1077171127        5.3613069866  W2        5517            0.0000000000
     15774      5258  TIP3      H2             11.3095003705      -21.5599671127        5.7022569866  W2        5517            0.0000000000
     15775      5259  TIP3      OH2            -0.9977096295       -4.9590771127        5.1173069866  W2        5518            0.0000000000
     15776      5259  TIP3      H1             -1.6827196295       -4.9971871127        4.4498169866  W2        5518            0.0000000000
     15777      5259  TIP3      H2             -0.9939896295       -4.0463171127        5.4055169866  W2        5518            0.0000000000
     15778      5260  TIP3      OH2             0.9622503705      -18.9911471127        2.6622069866  W2        5519            0.0000000000
     15779      5260  TIP3      H1              1.4535903705      -19.6209071127        2.1347569866  W2        5519            0.0000000000
     15780      5260  TIP3      H2              1.5858803705      -18.6952071127        3.3253269866  W2        5519            0.0000000000
     15781      5261  TIP3      OH2             5.9882603705      -18.6979971127        5.1192569866  W2        5520            0.0000000000
     15782      5261  TIP3      H1              6.1663903705      -19.3446771127        5.8021169866  W2        5520            0.0000000000
     15783      5261  TIP3      H2              5.9348803705      -17.8642271127        5.5863669866  W2        5520            0.0000000000
     15784      5262  TIP3      OH2             7.8666403705       -3.7495871127        3.5149269866  W2        5521            0.0000000000
     15785      5262  TIP3      H1              8.7326603705       -3.3828471127        3.3367469866  W2        5521            0.0000000000
     15786      5262  TIP3      H2              7.6199203705       -4.1887871127        2.7010069866  W2        5521            0.0000000000
     15787      5263  TIP3      OH2            14.5756003705       -4.1865571127        6.1940369866  W2        5522            0.0000000000
     15788      5263  TIP3      H1             14.3813103705       -4.9343471127        5.6289969866  W2        5522            0.0000000000
     15789      5263  TIP3      H2             14.5366103705       -3.4285471127        5.6108269866  W2        5522            0.0000000000
     15790      5264  TIP3      OH2             0.8204103705       -4.0389971127        2.1425169866  W2        5525            0.0000000000
     15791      5264  TIP3      H1              0.5528703705       -3.7527071127        3.0158269866  W2        5525            0.0000000000
     15792      5264  TIP3      H2              1.5916703705       -4.5850771127        2.2947669866  W2        5525            0.0000000000
     15793      5265  TIP3      OH2            28.1992603705      -11.5488771127        8.3749369866  W2        5528            0.0000000000
     15794      5265  TIP3      H1             28.2883703705      -10.6050571127        8.2426469866  W2        5528            0.0000000000
     15795      5265  TIP3      H2             27.5610203705      -11.8242371127        7.7168769866  W2        5528            0.0000000000
     15796      5266  TIP3      OH2            27.1323903705      -12.2938071127       11.7937569866  W2        5529            0.0000000000
     15797      5266  TIP3      H1             27.0941403705      -12.9401771127       12.4987169866  W2        5529            0.0000000000
     15798      5266  TIP3      H2             26.8100403705      -12.7603671127       11.0226269866  W2        5529            0.0000000000
     15799      5267  TIP3      OH2            19.5008903705      -12.6795971127       13.3867469866  W2        5530            0.0000000000
     15800      5267  TIP3      H1             19.5421003705      -13.3052671127       14.1099869866  W2        5530            0.0000000000
     15801      5267  TIP3      H2             20.2036603705      -12.0557371127       13.5687869866  W2        5530            0.0000000000
     15802      5268  TIP3      OH2            30.8384103705       -9.3547671127       10.0952669866  W2        5531            0.0000000000
     15803      5268  TIP3      H1             30.3976803705      -10.0751671127       10.5458269866  W2        5531            0.0000000000
     15804      5268  TIP3      H2             30.8253803705       -8.6340471127       10.7250369866  W2        5531            0.0000000000
     15805      5269  TIP3      OH2            20.4242003705       -8.2297071127       11.9216569866  W2        5532            0.0000000000
     15806      5269  TIP3      H1             20.0547203705       -9.0316571127       11.5520869866  W2        5532            0.0000000000
     15807      5269  TIP3      H2             21.3653103705       -8.3982171127       11.9679969866  W2        5532            0.0000000000
     15808      5270  TIP3      OH2            17.0342503705      -14.5694471127        7.3145369866  W2        5533            0.0000000000
     15809      5270  TIP3      H1             16.5865903705      -13.7235771127        7.2961869866  W2        5533            0.0000000000
     15810      5270  TIP3      H2             16.4733703705      -15.1490271127        6.7990469866  W2        5533            0.0000000000
     15811      5271  TIP3      OH2            17.7448603705      -12.4074871127        9.4403369866  W2        5534            0.0000000000
     15812      5271  TIP3      H1             17.9582103705      -13.1773271127        9.9676369866  W2        5534            0.0000000000
     15813      5271  TIP3      H2             18.4826203705      -12.3178171127        8.8370969866  W2        5534            0.0000000000
     15814      5272  TIP3      OH2            27.9499603705       -4.2505971127       10.3073069866  W2        5535            0.0000000000
     15815      5272  TIP3      H1             28.5696003705       -4.9271271127       10.0342269866  W2        5535            0.0000000000
     15816      5272  TIP3      H2             27.7417003705       -4.4685171127       11.2157969866  W2        5535            0.0000000000
     15817      5273  TIP3      OH2            25.5218303705       -9.8616671127       12.1998569866  W2        5536            0.0000000000
     15818      5273  TIP3      H1             25.8256203705      -10.5475271127       11.6052669866  W2        5536            0.0000000000
     15819      5273  TIP3      H2             26.2432303705       -9.7427971127       12.8176569866  W2        5536            0.0000000000
     15820      5274  TIP3      OH2            34.1848103705      -18.2601371127       13.0604769866  W2        5537            0.0000000000
     15821      5274  TIP3      H1             34.2340303705      -17.6500171127       13.7963869866  W2        5537            0.0000000000
     15822      5274  TIP3      H2             34.6103203705      -17.7990471127       12.3375869866  W2        5537            0.0000000000
     15823      5275  TIP3      OH2            28.6625303705      -15.4674271127       12.5273369866  W2        5538            0.0000000000
     15824      5275  TIP3      H1             28.8051203705      -16.4137271127       12.5474969866  W2        5538            0.0000000000
     15825      5275  TIP3      H2             28.5564303705      -15.2604471127       11.5988269866  W2        5538            0.0000000000
     15826      5276  TIP3      OH2            21.8173603705      -17.3657871127        9.7998169866  W2        5539            0.0000000000
     15827      5276  TIP3      H1             21.8604703705      -16.5059371127        9.3814469866  W2        5539            0.0000000000
     15828      5276  TIP3      H2             21.3597703705      -17.9183171127        9.1661369866  W2        5539            0.0000000000
     15829      5277  TIP3      OH2            29.5396303705      -17.2352271127        8.2006469866  W2        5540            0.0000000000
     15830      5277  TIP3      H1             30.1860603705      -17.5639071127        8.8254069866  W2        5540            0.0000000000
     15831      5277  TIP3      H2             30.0495703705      -16.7173271127        7.5777869866  W2        5540            0.0000000000
     15832      5278  TIP3      OH2            18.4375103705      -14.9692071127       10.5619569866  W2        5541            0.0000000000
     15833      5278  TIP3      H1             19.0911703705      -15.5190371127       10.9939669866  W2        5541            0.0000000000
     15834      5278  TIP3      H2             18.4614403705      -15.2433071127        9.6451569866  W2        5541            0.0000000000
     15835      5279  TIP3      OH2            23.5939603705      -13.4190771127        9.7771069866  W2        5542            0.0000000000
     15836      5279  TIP3      H1             24.2100603705      -13.9455371127       10.2865069866  W2        5542            0.0000000000
     15837      5279  TIP3      H2             23.0078403705      -14.0592071127        9.3734669866  W2        5542            0.0000000000
     15838      5280  TIP3      OH2            34.5762703705      -16.7822171127       15.2964569866  W2        5543            0.0000000000
     15839      5280  TIP3      H1             33.8877303705      -16.1241471127       15.2011169866  W2        5543            0.0000000000
     15840      5280  TIP3      H2             34.5917303705      -16.9794271127       16.2329969866  W2        5543            0.0000000000
     15841      5281  TIP3      OH2            20.6275503705      -18.4479471127       13.8738969866  W2        5544            0.0000000000
     15842      5281  TIP3      H1             20.4087203705      -17.9178871127       13.1074969866  W2        5544            0.0000000000
     15843      5281  TIP3      H2             19.9596403705      -18.2213971127       14.5210369866  W2        5544            0.0000000000
     15844      5282  TIP3      OH2            27.9965303705       -8.9478371127        7.4178069866  W2        5545            0.0000000000
     15845      5282  TIP3      H1             27.7010403705       -9.2706071127        6.5664969866  W2        5545            0.0000000000
     15846      5282  TIP3      H2             27.6723103705       -8.0481671127        7.4590669866  W2        5545            0.0000000000
     15847      5283  TIP3      OH2            23.1966903705      -10.7723771127       14.1612669866  W2        5546            0.0000000000
     15848      5283  TIP3      H1             22.4566003705      -10.1742271127       14.2647869866  W2        5546            0.0000000000
     15849      5283  TIP3      H2             23.9106403705      -10.2184171127       13.8456269866  W2        5546            0.0000000000
     15850      5284  TIP3      OH2            31.3034703705      -17.9442971127       10.1812369866  W2        5547            0.0000000000
     15851      5284  TIP3      H1             31.0882703705      -18.7099571127       10.7138369866  W2        5547            0.0000000000
     15852      5284  TIP3      H2             31.9592103705      -17.4718371127       10.6940869866  W2        5547            0.0000000000
     15853      5285  TIP3      OH2            20.2212803705      -16.5557671127       11.8261169866  W2        5548            0.0000000000
     15854      5285  TIP3      H1             20.8349103705      -15.9230071127       12.1993569866  W2        5548            0.0000000000
     15855      5285  TIP3      H2             20.7333503705      -17.0282671127       11.1698069866  W2        5548            0.0000000000
     15856      5286  TIP3      OH2            21.6041203705       -8.8080771127       14.9484169866  W2        5549            0.0000000000
     15857      5286  TIP3      H1             21.5988803705       -7.9287271127       14.5703469866  W2        5549            0.0000000000
     15858      5286  TIP3      H2             20.7505303705       -8.8916671127       15.3734069866  W2        5549            0.0000000000
     15859      5287  TIP3      OH2            17.7252103705       -9.1372871127        5.7303469866  W2        5550            0.0000000000
     15860      5287  TIP3      H1             17.4533003705       -8.9081871127        4.8416369866  W2        5550            0.0000000000
     15861      5287  TIP3      H2             17.7707803705       -8.2994071127        6.1908769866  W2        5550            0.0000000000
     15862      5288  TIP3      OH2            31.3501803705       -7.5156971127       12.4431969866  W2        5551            0.0000000000
     15863      5288  TIP3      H1             30.4085503705       -7.4573071127       12.6048869866  W2        5551            0.0000000000
     15864      5288  TIP3      H2             31.6267903705       -6.6096471127       12.3061669866  W2        5551            0.0000000000
     15865      5289  TIP3      OH2            31.6508803705      -19.2291671127       13.8605869866  W2        5552            0.0000000000
     15866      5289  TIP3      H1             30.9148003705      -18.6184571127       13.8227169866  W2        5552            0.0000000000
     15867      5289  TIP3      H2             32.3342803705      -18.8142671127       13.3342269866  W2        5552            0.0000000000
     15868      5290  TIP3      OH2            24.6540203705      -21.1424371127       11.3263869866  W2        5553            0.0000000000
     15869      5290  TIP3      H1             24.5364403705      -22.0908371127       11.2722169866  W2        5553            0.0000000000
     15870      5290  TIP3      H2             23.7990303705      -20.8098271127       11.5994969866  W2        5553            0.0000000000
     15871      5291  TIP3      OH2            29.6023003705       -5.7343471127        9.0683569866  W2        5554            0.0000000000
     15872      5291  TIP3      H1             30.0275303705       -6.4415571127        8.5833169866  W2        5554            0.0000000000
     15873      5291  TIP3      H2             29.9193003705       -4.9330771127        8.6515769866  W2        5554            0.0000000000
     15874      5292  TIP3      OH2            30.7619503705       -7.8334971127        7.5770169866  W2        5555            0.0000000000
     15875      5292  TIP3      H1             30.5044303705       -8.5234871127        6.9656069866  W2        5555            0.0000000000
     15876      5292  TIP3      H2             30.8330303705       -8.2763771127        8.4226069866  W2        5555            0.0000000000
     15877      5293  TIP3      OH2            32.4479703705       -9.2668271127       16.0543669866  W2        5556            0.0000000000
     15878      5293  TIP3      H1             32.5876003705       -9.8585771127       15.3150669866  W2        5556            0.0000000000
     15879      5293  TIP3      H2             32.6152503705       -8.3942371127       15.6982469866  W2        5556            0.0000000000
     15880      5294  TIP3      OH2            26.9205103705      -12.3048771127        5.8269669866  W2        5557            0.0000000000
     15881      5294  TIP3      H1             26.2090603705      -11.7699071127        5.4750169866  W2        5557            0.0000000000
     15882      5294  TIP3      H2             27.6114703705      -12.2496671127        5.1668569866  W2        5557            0.0000000000
     15883      5295  TIP3      OH2            26.9744303705      -13.8474471127        2.8654669866  W2        5558            0.0000000000
     15884      5295  TIP3      H1             27.6754203705      -13.8247571127        3.5168669866  W2        5558            0.0000000000
     15885      5295  TIP3      H2             27.2767203705      -14.4754771127        2.2093969866  W2        5558            0.0000000000
     15886      5296  TIP3      OH2            34.2899003705      -12.9270271127       14.1204069866  W2        5559            0.0000000000
     15887      5296  TIP3      H1             33.6373103705      -12.2324671127       14.2094969866  W2        5559            0.0000000000
     15888      5296  TIP3      H2             34.7549303705      -12.7169371127       13.3105669866  W2        5559            0.0000000000
     15889      5297  TIP3      OH2            30.3262803705      -12.0955471127        6.7785569866  W2        5560            0.0000000000
     15890      5297  TIP3      H1             29.5943803705      -11.8671771127        7.3516169866  W2        5560            0.0000000000
     15891      5297  TIP3      H2             30.7735003705      -12.8092771127        7.2333069866  W2        5560            0.0000000000
     15892      5298  TIP3      OH2            30.2236303705      -13.9212871127       15.8462569866  W2        5561            0.0000000000
     15893      5298  TIP3      H1             30.3035403705      -13.1578471127       16.4181069866  W2        5561            0.0000000000
     15894      5298  TIP3      H2             29.6224003705      -13.6420471127       15.1557669866  W2        5561            0.0000000000
     15895      5299  TIP3      OH2            21.9716503705      -11.4649271127        8.6610569866  W2        5562            0.0000000000
     15896      5299  TIP3      H1             21.6411703705      -11.8355871127        7.8427569866  W2        5562            0.0000000000
     15897      5299  TIP3      H2             22.5600603705      -12.1355271127        9.0078869866  W2        5562            0.0000000000
     15898      5300  TIP3      OH2            23.3384003705       -8.0368671127       11.3422769866  W2        5563            0.0000000000
     15899      5300  TIP3      H1             23.2435303705       -8.6155571127       10.5857369866  W2        5563            0.0000000000
     15900      5300  TIP3      H2             24.0677603705       -8.4082971127       11.8385569866  W2        5563            0.0000000000
     15901      5301  TIP3      OH2            22.3382003705      -12.6963671127       12.2945569866  W2        5564            0.0000000000
     15902      5301  TIP3      H1             22.9034503705      -12.5749471127       11.5316769866  W2        5564            0.0000000000
     15903      5301  TIP3      H2             22.6570903705      -12.0588671127       12.9334069866  W2        5564            0.0000000000
     15904      5302  TIP3      OH2            28.6474203705       -7.1931771127       13.0286069866  W2        5565            0.0000000000
     15905      5302  TIP3      H1             28.4070803705       -6.5308671127       13.6765269866  W2        5565            0.0000000000
     15906      5302  TIP3      H2             28.4492403705       -8.0276571127       13.4535669866  W2        5565            0.0000000000
     15907      5303  TIP3      OH2            23.2182703705       -8.2970971127       17.0117469866  W2        5566            0.0000000000
     15908      5303  TIP3      H1             22.9070203705       -7.5147771127       17.4670669866  W2        5566            0.0000000000
     15909      5303  TIP3      H2             22.5682903705       -8.4501871127       16.3259469866  W2        5566            0.0000000000
     15910      5304  TIP3      OH2            29.1972303705      -12.9332571127        4.4636769866  W2        5567            0.0000000000
     15911      5304  TIP3      H1             29.7767803705      -12.7832271127        5.2105669866  W2        5567            0.0000000000
     15912      5304  TIP3      H2             29.6112303705      -12.4625171127        3.7403169866  W2        5567            0.0000000000
     15913      5305  TIP3      OH2            20.1382603705      -12.0989871127       16.2403169866  W2        5568            0.0000000000
     15914      5305  TIP3      H1             20.2085803705      -11.4483071127       16.9388169866  W2        5568            0.0000000000
     15915      5305  TIP3      H2             19.2474803705      -11.9962371127       15.9054069866  W2        5568            0.0000000000
     15916      5306  TIP3      OH2            26.9237203705       -6.1964071127        7.8989869866  W2        5569            0.0000000000
     15917      5306  TIP3      H1             27.3974803705       -5.9007771127        8.6764069866  W2        5569            0.0000000000
     15918      5306  TIP3      H2             26.3606503705       -5.4582471127        7.6659469866  W2        5569            0.0000000000
     15919      5307  TIP3      OH2            32.8960703705      -21.1832171127        4.2766469866  W2        5571            0.0000000000
     15920      5307  TIP3      H1             31.9961403705      -21.0443171127        4.5717069866  W2        5571            0.0000000000
     15921      5307  TIP3      H2             33.1479103705      -20.3517571127        3.8748169866  W2        5571            0.0000000000
     15922      5308  TIP3      OH2            20.9619203705      -12.3954971127        6.2503369866  W2        5572            0.0000000000
     15923      5308  TIP3      H1             20.6700503705      -11.6273271127        5.7594669866  W2        5572            0.0000000000
     15924      5308  TIP3      H2             20.2874403705      -13.0548771127        6.0874769866  W2        5572            0.0000000000
     15925      5309  TIP3      OH2            34.0852103705       -6.8169771127        2.6530369866  W2        5573            0.0000000000
     15926      5309  TIP3      H1             34.1585603705       -5.8779571127        2.8235669866  W2        5573            0.0000000000
     15927      5309  TIP3      H2             34.9907203705       -7.1221171127        2.5967669866  W2        5573            0.0000000000
     15928      5310  TIP3      OH2            17.0549303705      -10.0325771127       15.0653169866  W2        5574            0.0000000000
     15929      5310  TIP3      H1             16.5537703705      -10.0606371127       14.2502869866  W2        5574            0.0000000000
     15930      5310  TIP3      H2             17.0603003705      -10.9382571127       15.3750469866  W2        5574            0.0000000000
     15931      5311  TIP3      OH2            16.8052003705       -7.2521971127       11.9493369866  W2        5575            0.0000000000
     15932      5311  TIP3      H1             17.7512603705       -7.3964971127       11.9302869866  W2        5575            0.0000000000
     15933      5311  TIP3      H2             16.6928303705       -6.4679171127       12.4864569866  W2        5575            0.0000000000
     15934      5312  TIP3      OH2            25.9814503705       -7.0123071127       16.5078469866  W2        5577            0.0000000000
     15935      5312  TIP3      H1             26.0689103705       -6.1858471127       16.9827569866  W2        5577            0.0000000000
     15936      5312  TIP3      H2             25.1179603705       -7.3419271127       16.7567769866  W2        5577            0.0000000000
     15937      5313  TIP3      OH2            26.3960303705       -3.2399371127        6.3139069866  W2        5578            0.0000000000
     15938      5313  TIP3      H1             26.3206303705       -3.3612171127        5.3674269866  W2        5578            0.0000000000
     15939      5313  TIP3      H2             26.4289003705       -2.2906671127        6.4323669866  W2        5578            0.0000000000
     15940      5314  TIP3      OH2            20.0494103705       -4.4512371127        8.0948069866  W2        5579            0.0000000000
     15941      5314  TIP3      H1             20.2014503705       -4.7991971127        8.9734569866  W2        5579            0.0000000000
     15942      5314  TIP3      H2             19.1984503705       -4.8075071127        7.8395269866  W2        5579            0.0000000000
     15943      5315  TIP3      OH2            29.4976303705       -4.0859171127        3.3161469866  W2        5580            0.0000000000
     15944      5315  TIP3      H1             29.8724703705       -4.8303071127        2.8454069866  W2        5580            0.0000000000
     15945      5315  TIP3      H2             29.5020003705       -4.3558571127        4.2344769866  W2        5580            0.0000000000
     15946      5316  TIP3      OH2            29.1664403705       -4.1602071127        6.0653669866  W2        5581            0.0000000000
     15947      5316  TIP3      H1             28.2314203705       -4.0600171127        6.2440669866  W2        5581            0.0000000000
     15948      5316  TIP3      H2             29.4466303705       -4.8696071127        6.6436869866  W2        5581            0.0000000000
     15949      5317  TIP3      OH2            19.3039803705       -8.7090371127       16.1085969866  W2        5583            0.0000000000
     15950      5317  TIP3      H1             19.5201103705       -9.0704771127       16.9681769866  W2        5583            0.0000000000
     15951      5317  TIP3      H2             18.4484503705       -9.0836571127       15.8989469866  W2        5583            0.0000000000
     15952      5318  TIP3      OH2            21.9227803705      -20.2389871127       12.1040169866  W2        5584            0.0000000000
     15953      5318  TIP3      H1             21.0611503705      -20.3261671127       11.6963069866  W2        5584            0.0000000000
     15954      5318  TIP3      H2             21.9003503705      -19.3829771127       12.5317769866  W2        5584            0.0000000000
     15955      5319  TIP3      OH2            26.5855603705      -20.5169471127       15.4787169866  W2        5585            0.0000000000
     15956      5319  TIP3      H1             27.0058703705      -20.9322371127       16.2317769866  W2        5585            0.0000000000
     15957      5319  TIP3      H2             25.6525203705      -20.6956171127       15.5959169866  W2        5585            0.0000000000
     15958      5320  TIP3      OH2            29.9120503705      -16.7614271127       16.3321669866  W2        5586            0.0000000000
     15959      5320  TIP3      H1             29.3980003705      -16.8872071127       17.1297669866  W2        5586            0.0000000000
     15960      5320  TIP3      H2             29.7565203705      -15.8491171127       16.0877869866  W2        5586            0.0000000000
     15961      5321  TIP3      OH2            30.6745403705      -11.9004271127        2.0934669866  W2        5587            0.0000000000
     15962      5321  TIP3      H1             30.7166203705      -12.1230371127        1.1634669866  W2        5587            0.0000000000
     15963      5321  TIP3      H2             31.5237503705      -11.5017171127        2.2834569866  W2        5587            0.0000000000
     15964      5322  TIP3      OH2            26.2472903705      -18.0246071127        2.7637969866  W2        5588            0.0000000000
     15965      5322  TIP3      H1             25.9937703705      -18.0054471127        3.6866069866  W2        5588            0.0000000000
     15966      5322  TIP3      H2             25.9905003705      -18.8960671127        2.4624169866  W2        5588            0.0000000000
     15967      5323  TIP3      OH2            22.0137903705      -15.2735371127       13.1990369866  W2        5589            0.0000000000
     15968      5323  TIP3      H1             21.3720003705      -15.3138071127       13.9080469866  W2        5589            0.0000000000
     15969      5323  TIP3      H2             22.0509903705      -14.3470671127       12.9613369866  W2        5589            0.0000000000
     15970      5324  TIP3      OH2            22.0107003705      -15.0525271127        8.1110369866  W2        5590            0.0000000000
     15971      5324  TIP3      H1             21.1179903705      -15.3929171127        8.0524169866  W2        5590            0.0000000000
     15972      5324  TIP3      H2             22.4613603705      -15.4294371127        7.3553569866  W2        5590            0.0000000000
     15973      5325  TIP3      OH2            27.5462503705      -14.6364971127        6.9281169866  W2        5591            0.0000000000
     15974      5325  TIP3      H1             27.1372803705      -13.8216371127        6.6365969866  W2        5591            0.0000000000
     15975      5325  TIP3      H2             28.2668703705      -14.7764871127        6.3138269866  W2        5591            0.0000000000
     15976      5326  TIP3      OH2            28.5510203705      -15.1904571127        9.7420869866  W2        5593            0.0000000000
     15977      5326  TIP3      H1             28.3554703705      -14.5847771127        9.0271469866  W2        5593            0.0000000000
     15978      5326  TIP3      H2             28.7322803705      -16.0239371127        9.3077169866  W2        5593            0.0000000000
     15979      5327  TIP3      OH2            19.7638403705      -14.9531871127       15.0662369866  W2        5594            0.0000000000
     15980      5327  TIP3      H1             19.7257803705      -14.5530271127       15.9349469866  W2        5594            0.0000000000
     15981      5327  TIP3      H2             19.2729503705      -15.7699471127       15.1565269866  W2        5594            0.0000000000
     15982      5328  TIP3      OH2            23.1295803705      -17.5789571127        1.8648369866  W2        5595            0.0000000000
     15983      5328  TIP3      H1             22.6986503705      -18.0239471127        2.5945769866  W2        5595            0.0000000000
     15984      5328  TIP3      H2             22.4114503705      -17.2073271127        1.3525869866  W2        5595            0.0000000000
     15985      5329  TIP3      OH2            16.3719203705      -17.8370071127        8.9167069866  W2        5596            0.0000000000
     15986      5329  TIP3      H1             17.0026903705      -17.8657971127        9.6360969866  W2        5596            0.0000000000
     15987      5329  TIP3      H2             16.8213503705      -18.2621371127        8.1862969866  W2        5596            0.0000000000
     15988      5330  TIP3      OH2            17.6461303705      -17.0908071127        4.3407469866  W2        5597            0.0000000000
     15989      5330  TIP3      H1             18.1203003705      -16.4998171127        3.7558369866  W2        5597            0.0000000000
     15990      5330  TIP3      H2             16.9287703705      -16.5605171127        4.6877569866  W2        5597            0.0000000000
     15991      5331  TIP3      OH2            27.8149403705      -13.5523271127       14.4133269866  W2        5598            0.0000000000
     15992      5331  TIP3      H1             28.1384203705      -14.1833571127       13.7703769866  W2        5598            0.0000000000
     15993      5331  TIP3      H2             27.3748703705      -14.0871071127       15.0740669866  W2        5598            0.0000000000
     15994      5332  TIP3      OH2            24.5922303705      -17.6247771127        9.1974469866  W2        5599            0.0000000000
     15995      5332  TIP3      H1             23.6813403705      -17.5680971127        9.4860469866  W2        5599            0.0000000000
     15996      5332  TIP3      H2             25.0975203705      -17.6852271127       10.0081669866  W2        5599            0.0000000000
     15997      5333  TIP3      OH2            19.4205703705      -15.9961471127        8.0242069866  W2        5600            0.0000000000
     15998      5333  TIP3      H1             18.5313703705      -15.8965971127        7.6841669866  W2        5600            0.0000000000
     15999      5333  TIP3      H2             19.7170603705      -16.8378471127        7.6779969866  W2        5600            0.0000000000
     16000      5334  TIP3      OH2            23.0737503705      -15.9958871127        5.6806669866  W2        5601            0.0000000000
     16001      5334  TIP3      H1             24.0053003705      -15.8668871127        5.8589769866  W2        5601            0.0000000000
     16002      5334  TIP3      H2             22.8587803705      -15.3264571127        5.0311369866  W2        5601            0.0000000000
     16003      5335  TIP3      OH2            28.9974203705      -18.3901471127       12.4616269866  W2        5602            0.0000000000
     16004      5335  TIP3      H1             28.3205803705      -18.2588371127       13.1255969866  W2        5602            0.0000000000
     16005      5335  TIP3      H2             28.5119103705      -18.5451971127       11.6513969866  W2        5602            0.0000000000
     16006      5336  TIP3      OH2            21.7477703705      -14.8016671127        3.2472769866  W2        5603            0.0000000000
     16007      5336  TIP3      H1             21.2052803705      -15.1812871127        2.5560369866  W2        5603            0.0000000000
     16008      5336  TIP3      H2             22.5812603705      -14.6071971127        2.8186869866  W2        5603            0.0000000000
     16009      5337  TIP3      OH2            25.9122003705      -14.8374771127       11.0844069866  W2        5606            0.0000000000
     16010      5337  TIP3      H1             26.4765403705      -15.3838171127       10.5373669866  W2        5606            0.0000000000
     16011      5337  TIP3      H2             25.7645403705      -15.3592871127       11.8731669866  W2        5606            0.0000000000
     16012      5338  TIP3      OH2            20.9141703705      -18.7008671127        7.5028869866  W2        5607            0.0000000000
     16013      5338  TIP3      H1             20.5971203705      -19.6033371127        7.4674269866  W2        5607            0.0000000000
     16014      5338  TIP3      H2             21.6955803705      -18.6991271127        6.9500469866  W2        5607            0.0000000000
     16015      5339  TIP3      OH2            24.5387903705      -16.4488671127       13.4984469866  W2        5608            0.0000000000
     16016      5339  TIP3      H1             23.7033203705      -15.9949171127       13.6086869866  W2        5608            0.0000000000
     16017      5339  TIP3      H2             25.0628503705      -16.1730171127       14.2504369866  W2        5608            0.0000000000
     16018      5340  TIP3      OH2            25.0830503705      -10.2360971127        5.1830869866  W2        5609            0.0000000000
     16019      5340  TIP3      H1             24.3381503705      -10.7435671127        4.8608769866  W2        5609            0.0000000000
     16020      5340  TIP3      H2             24.9487703705      -10.1872971127        6.1295669866  W2        5609            0.0000000000
     16021      5341  TIP3      OH2            32.2329403705      -11.1032771127       13.9698469866  W2        5610            0.0000000000
     16022      5341  TIP3      H1             32.8748203705      -10.6466471127       13.4260669866  W2        5610            0.0000000000
     16023      5341  TIP3      H2             31.4026303705      -10.9900371127       13.5072569866  W2        5610            0.0000000000
     16024      5342  TIP3      OH2            28.9807303705      -17.4221071127        3.3823469866  W2        5611            0.0000000000
     16025      5342  TIP3      H1             28.0421503705      -17.3105471127        3.2312269866  W2        5611            0.0000000000
     16026      5342  TIP3      H2             29.2779403705      -16.5654171127        3.6889169866  W2        5611            0.0000000000
     16027      5343  TIP3      OH2            26.6022603705      -10.0517671127       16.4199969866  W2        5612            0.0000000000
     16028      5343  TIP3      H1             26.2568703705      -10.4335271127       17.2269569866  W2        5612            0.0000000000
     16029      5343  TIP3      H2             26.4022703705       -9.1184071127       16.4912869866  W2        5612            0.0000000000
     16030      5344  TIP3      OH2            29.6990803705      -15.5548371127        5.0430869866  W2        5613            0.0000000000
     16031      5344  TIP3      H1             30.5909803705      -15.6923371127        5.3622069866  W2        5613            0.0000000000
     16032      5344  TIP3      H2             29.7554403705      -14.7642271127        4.5064369866  W2        5613            0.0000000000
     16033      5345  TIP3      OH2            20.2078803705      -10.9410971127       10.9528769866  W2        5614            0.0000000000
     16034      5345  TIP3      H1             20.9526003705      -10.9435271127       10.3515269866  W2        5614            0.0000000000
     16035      5345  TIP3      H2             20.2855403705      -11.7647171127       11.4343869866  W2        5614            0.0000000000
     16036      5346  TIP3      OH2            27.2084603705       -8.7776671127        4.2085469866  W2        5615            0.0000000000
     16037      5346  TIP3      H1             26.9133003705       -7.9508771127        4.5900269866  W2        5615            0.0000000000
     16038      5346  TIP3      H2             26.5054603705       -9.3969771127        4.4046869866  W2        5615            0.0000000000
     16039      5347  TIP3      OH2            17.2158503705      -12.4804071127       16.2677269866  W2        5616            0.0000000000
     16040      5347  TIP3      H1             17.4387103705      -12.8984471127       17.0994769866  W2        5616            0.0000000000
     16041      5347  TIP3      H2             16.6138603705      -13.0929071127       15.8450069866  W2        5616            0.0000000000
     16042      5348  TIP3      OH2            28.8526203705       -7.5902171127       16.3704969866  W2        5618            0.0000000000
     16043      5348  TIP3      H1             27.9520503705       -7.4069571127       16.1028869866  W2        5618            0.0000000000
     16044      5348  TIP3      H2             28.8867303705       -7.3312871127       17.2913769866  W2        5618            0.0000000000
     16045      5349  TIP3      OH2            34.5839503705      -15.3454271127        4.7377569866  W2        5619            0.0000000000
     16046      5349  TIP3      H1             34.0295803705      -15.7416271127        4.0655069866  W2        5619            0.0000000000
     16047      5349  TIP3      H2             34.6843103705      -14.4349071127        4.4600869866  W2        5619            0.0000000000
     16048      5350  TIP3      OH2            32.8791203705       -6.5593871127        5.2029669866  W2        5621            0.0000000000
     16049      5350  TIP3      H1             32.5062303705       -7.3850071127        5.5120269866  W2        5621            0.0000000000
     16050      5350  TIP3      H2             33.1564703705       -6.7424471127        4.3053069866  W2        5621            0.0000000000
     16051      5351  TIP3      OH2            30.0395103705      -11.7514371127       12.2241569866  W2        5622            0.0000000000
     16052      5351  TIP3      H1             29.1112003705      -11.9832471127       12.1970869866  W2        5622            0.0000000000
     16053      5351  TIP3      H2             30.4906203705      -12.5284571127       11.8940369866  W2        5622            0.0000000000
     16054      5352  TIP3      OH2            22.5828203705       -7.4232771127        8.3570269866  W2        5623            0.0000000000
     16055      5352  TIP3      H1             23.1100403705       -6.6498371127        8.1569069866  W2        5623            0.0000000000
     16056      5352  TIP3      H2             21.7026703705       -7.1983571127        8.0554269866  W2        5623            0.0000000000
     16057      5353  TIP3      OH2            18.3375903705      -12.5608671127        2.9442669866  W2        5624            0.0000000000
     16058      5353  TIP3      H1             18.9535803705      -11.9341471127        3.3237469866  W2        5624            0.0000000000
     16059      5353  TIP3      H2             17.4758503705      -12.2448871127        3.2159169866  W2        5624            0.0000000000
     16060      5354  TIP3      OH2            24.0100503705       -9.7602871127        7.9334569866  W2        5625            0.0000000000
     16061      5354  TIP3      H1             23.7690503705       -8.8348471127        7.9749869866  W2        5625            0.0000000000
     16062      5354  TIP3      H2             23.2694103705      -10.2191571127        8.3298469866  W2        5625            0.0000000000
     16063      5355  TIP3      OH2            24.5247103705       -5.6109271127       14.2485669866  W2        5626            0.0000000000
     16064      5355  TIP3      H1             24.8871803705       -4.7563671127       14.0150069866  W2        5626            0.0000000000
     16065      5355  TIP3      H2             25.0562303705       -5.9027671127       14.9891969866  W2        5626            0.0000000000
     16066      5356  TIP3      OH2            22.6931303705       -4.7385271127        7.4786769866  W2        5627            0.0000000000
     16067      5356  TIP3      H1             21.7431803705       -4.6327871127        7.5300069866  W2        5627            0.0000000000
     16068      5356  TIP3      H2             23.0449403705       -3.9177871127        7.8234269866  W2        5627            0.0000000000
     16069      5357  TIP3      OH2            28.0687903705       -9.5118571127       13.9491269866  W2        5628            0.0000000000
     16070      5357  TIP3      H1             27.6429203705       -9.7396871127       14.7755269866  W2        5628            0.0000000000
     16071      5357  TIP3      H2             28.6493703705      -10.2506771127       13.7666569866  W2        5628            0.0000000000
     16072      5358  TIP3      OH2            30.2716803705       -8.5828071127        3.0230269866  W2        5629            0.0000000000
     16073      5358  TIP3      H1             30.6249903705       -8.9628271127        3.8273769866  W2        5629            0.0000000000
     16074      5358  TIP3      H2             29.3230303705       -8.6763271127        3.1099569866  W2        5629            0.0000000000
     16075      5359  TIP3      OH2            30.7272103705       -4.9599071127       16.4186069866  W2        5630            0.0000000000
     16076      5359  TIP3      H1             30.1255303705       -5.5156171127       15.9232369866  W2        5630            0.0000000000
     16077      5359  TIP3      H2             31.0085803705       -4.2929271127       15.7923469866  W2        5630            0.0000000000
     16078      5360  TIP3      OH2            34.7751203705       -4.1035571127        3.2240469866  W2        5631            0.0000000000
     16079      5360  TIP3      H1             35.5189103705       -3.5175071127        3.0842069866  W2        5631            0.0000000000
     16080      5360  TIP3      H2             34.0809303705       -3.5349771127        3.5572869866  W2        5631            0.0000000000
     16081      5361  TIP3      OH2            18.8498003705      -17.7271371127       15.8258669866  W2        5632            0.0000000000
     16082      5361  TIP3      H1             17.9570303705      -17.3885971127       15.7582669866  W2        5632            0.0000000000
     16083      5361  TIP3      H2             18.7510803705      -18.5825271127       16.2439469866  W2        5632            0.0000000000
     16084      5362  TIP3      OH2            31.1376103705       -9.9106071127        5.2498169866  W2        5633            0.0000000000
     16085      5362  TIP3      H1             30.8603703705      -10.6386771127        5.8059269866  W2        5633            0.0000000000
     16086      5362  TIP3      H2             32.0649103705       -9.7914071127        5.4550769866  W2        5633            0.0000000000
     16087      5363  TIP3      OH2            18.5010003705       -5.9226971127       14.2608069866  W2        5634            0.0000000000
     16088      5363  TIP3      H1             18.7180303705       -6.8544571127       14.2297769866  W2        5634            0.0000000000
     16089      5363  TIP3      H2             18.7473503705       -5.6481971127       15.1440869866  W2        5634            0.0000000000
     16090      5364  TIP3      OH2            24.3624603705       -7.4711971127        1.4700269866  W2        5635            0.0000000000
     16091      5364  TIP3      H1             24.6014403705       -8.2193871127        0.9229169866  W2        5635            0.0000000000
     16092      5364  TIP3      H2             24.0935903705       -7.8590271127        2.3028069866  W2        5635            0.0000000000
     16093      5365  TIP3      OH2            23.2995203705       -7.9008171127        3.9262869866  W2        5636            0.0000000000
     16094      5365  TIP3      H1             23.4463203705       -8.4208371127        4.7163769866  W2        5636            0.0000000000
     16095      5365  TIP3      H2             23.2966903705       -6.9940571127        4.2328769866  W2        5636            0.0000000000
     16096      5366  TIP3      OH2            19.7526303705      -10.6484871127        4.4368269866  W2        5637            0.0000000000
     16097      5366  TIP3      H1             19.0665603705      -10.2962371127        5.0037969866  W2        5637            0.0000000000
     16098      5366  TIP3      H2             20.2754203705       -9.8855271127        4.1902569866  W2        5637            0.0000000000
     16099      5367  TIP3      OH2            27.5841403705      -17.9861071127       14.7157269866  W2        5638            0.0000000000
     16100      5367  TIP3      H1             28.2829303705      -17.9122371127       15.3656969866  W2        5638            0.0000000000
     16101      5367  TIP3      H2             27.2032803705      -18.8506071127       14.8700169866  W2        5638            0.0000000000
     16102      5368  TIP3      OH2            28.3686303705      -18.3339371127        5.8129569866  W2        5639            0.0000000000
     16103      5368  TIP3      H1             28.5884603705      -17.8623971127        5.0094969866  W2        5639            0.0000000000
     16104      5368  TIP3      H2             28.9270303705      -17.9396771127        6.4830169866  W2        5639            0.0000000000
     16105      5369  TIP3      OH2            26.0372403705       -6.2034571127        4.6757069866  W2        5640            0.0000000000
     16106      5369  TIP3      H1             25.2208503705       -5.7064871127        4.7281369866  W2        5640            0.0000000000
     16107      5369  TIP3      H2             26.5668703705       -5.7281071127        4.0355869866  W2        5640            0.0000000000
     16108      5370  TIP3      OH2            25.5686203705      -16.6060571127        6.6477969866  W2        5641            0.0000000000
     16109      5370  TIP3      H1             26.3808803705      -16.1017371127        6.6939669866  W2        5641            0.0000000000
     16110      5370  TIP3      H2             25.3239203705      -16.7510871127        7.5617569866  W2        5641            0.0000000000
     16111      5371  TIP3      OH2            26.1042603705      -15.6197871127       15.8324569866  W2        5642            0.0000000000
     16112      5371  TIP3      H1             26.2232903705      -15.0462471127       16.5894969866  W2        5642            0.0000000000
     16113      5371  TIP3      H2             26.7597203705      -16.3078471127       15.9472369866  W2        5642            0.0000000000
     16114      5372  TIP3      OH2            26.4522903705      -19.5247571127        7.5859069866  W2        5643            0.0000000000
     16115      5372  TIP3      H1             26.1056403705      -18.9076971127        8.2303369866  W2        5643            0.0000000000
     16116      5372  TIP3      H2             27.1109803705      -19.0241871127        7.1044569866  W2        5643            0.0000000000
     16117      5373  TIP3      OH2            23.3755503705       -5.1597371127        4.6573969866  W2        5644            0.0000000000
     16118      5373  TIP3      H1             23.5364203705       -4.3599871127        4.1566569866  W2        5644            0.0000000000
     16119      5373  TIP3      H2             23.1783303705       -4.8531371127        5.5424569866  W2        5644            0.0000000000
     16120      5374  TIP3      OH2            22.1099903705      -18.4618171127        4.2731569866  W2        5645            0.0000000000
     16121      5374  TIP3      H1             22.0264703705      -17.5735071127        4.6197969866  W2        5645            0.0000000000
     16122      5374  TIP3      H2             23.0000203705      -18.7271471127        4.5048369866  W2        5645            0.0000000000
     16123      5375  TIP3      OH2            32.3088403705      -17.7127571127       16.6674269866  W2        5646            0.0000000000
     16124      5375  TIP3      H1             31.3924203705      -17.4505871127       16.5797969866  W2        5646            0.0000000000
     16125      5375  TIP3      H2             32.6443403705      -17.7158571127       15.7709569866  W2        5646            0.0000000000
     16126      5376  TIP3      OH2            30.9109403705      -13.9626571127       10.7631569866  W2        5647            0.0000000000
     16127      5376  TIP3      H1             30.1133803705      -14.3776371127       10.4346569866  W2        5647            0.0000000000
     16128      5376  TIP3      H2             31.3560503705      -14.6532871127       11.2542069866  W2        5647            0.0000000000
     16129      5377  TIP3      OH2            20.3685203705       -8.0345971127        3.3336069866  W2        5648            0.0000000000
     16130      5377  TIP3      H1             20.9606703705       -7.3351171127        3.6098469866  W2        5648            0.0000000000
     16131      5377  TIP3      H2             20.8278203705       -8.4676471127        2.6140669866  W2        5648            0.0000000000
     16132      5378  TIP3      OH2            18.6844403705      -15.3702971127        2.4495469866  W2        5649            0.0000000000
     16133      5378  TIP3      H1             18.6397003705      -14.4309871127        2.6282469866  W2        5649            0.0000000000
     16134      5378  TIP3      H2             17.7967603705      -15.6058071127        2.1797569866  W2        5649            0.0000000000
     16135      5379  TIP3      OH2            31.9974003705       -4.7064071127       12.3855069866  W2        5650            0.0000000000
     16136      5379  TIP3      H1             31.8418303705       -4.0279671127       11.7284369866  W2        5650            0.0000000000
     16137      5379  TIP3      H2             32.9300403705       -4.6344771127       12.5885669866  W2        5650            0.0000000000
     16138      5380  TIP3      OH2            19.4926403705      -20.5886371127       11.1226469866  W2        5651            0.0000000000
     16139      5380  TIP3      H1             19.2636203705      -20.5293871127       10.1951469866  W2        5651            0.0000000000
     16140      5380  TIP3      H2             19.0499803705      -21.3800871127       11.4290569866  W2        5651            0.0000000000
     16141      5381  TIP3      OH2            18.4229703705       -6.6479271127        7.2832269866  W2        5652            0.0000000000
     16142      5381  TIP3      H1             17.5908303705       -6.1756571127        7.3103669866  W2        5652            0.0000000000
     16143      5381  TIP3      H2             18.9688003705       -6.1381671127        6.6845369866  W2        5652            0.0000000000
     16144      5382  TIP3      OH2            26.4006403705       -5.6080571127        1.6086269866  W2        5655            0.0000000000
     16145      5382  TIP3      H1             25.7567403705       -6.2391971127        1.9299969866  W2        5655            0.0000000000
     16146      5382  TIP3      H2             27.1624703705       -6.1392571127        1.3769769866  W2        5655            0.0000000000
     16147      5383  TIP3      OH2            31.0049303705       -5.7910671127        1.8424269866  W2        5657            0.0000000000
     16148      5383  TIP3      H1             31.2879703705       -6.5855471127        2.2951169866  W2        5657            0.0000000000
     16149      5383  TIP3      H2             31.7447203705       -5.5579671127        1.2815369866  W2        5657            0.0000000000
     16150      5384  TIP3      OH2            21.9596603705       -9.8815771127        1.6999169866  W2        5659            0.0000000000
     16151      5384  TIP3      H1             22.0240703705      -10.6756171127        2.2305569866  W2        5659            0.0000000000
     16152      5384  TIP3      H2             22.6125803705      -10.0002971127        1.0101169866  W2        5659            0.0000000000
     16153      5385  TIP3      OH2            27.3120003705       -8.8344071127        1.4357169866  W2        5661            0.0000000000
     16154      5385  TIP3      H1             27.0434103705       -8.6541971127        2.3366069866  W2        5661            0.0000000000
     16155      5385  TIP3      H2             27.1055603705       -9.7597871127        1.3042969866  W2        5661            0.0000000000
     16156      5386  TIP3      OH2            30.0084203705      -10.3396071127       16.3833269866  W2        5662            0.0000000000
     16157      5386  TIP3      H1             30.7539003705       -9.7512371127       16.2637269866  W2        5662            0.0000000000
     16158      5386  TIP3      H2             29.2511003705       -9.7576371127       16.4466369866  W2        5662            0.0000000000
     16159      5387  TIP3      OH2            23.1090403705      -11.9089571127        4.0057169866  W2        5664            0.0000000000
     16160      5387  TIP3      H1             22.6492403705      -12.3931271127        4.6915669866  W2        5664            0.0000000000
     16161      5387  TIP3      H2             23.3639103705      -12.5774171127        3.3697669866  W2        5664            0.0000000000
     16162      5388  TIP3      OH2            22.3979703705      -14.0162471127       16.3616769866  W2        5665            0.0000000000
     16163      5388  TIP3      H1             21.7795803705      -13.3415871127       16.6421469866  W2        5665            0.0000000000
     16164      5388  TIP3      H2             22.7420903705      -13.6948571127       15.5282969866  W2        5665            0.0000000000
     16165      5389  TIP3      OH2            24.1800803705      -13.6657771127        2.2680369866  W2        5666            0.0000000000
     16166      5389  TIP3      H1             23.9995803705      -13.8206571127        1.3408669866  W2        5666            0.0000000000
     16167      5389  TIP3      H2             25.1301303705      -13.5579071127        2.3128269866  W2        5666            0.0000000000
     16168      5390  TIP3      OH2            33.5699103705      -11.3113571127        1.7138469866  W2        5668            0.0000000000
     16169      5390  TIP3      H1             33.2963903705      -11.7358071127        0.9006769866  W2        5668            0.0000000000
     16170      5390  TIP3      H2             33.6093203705      -10.3799071127        1.4968869866  W2        5668            0.0000000000
     16171      5391  TIP3      OH2            22.7373403705      -16.6611671127       17.4439869866  W2        5669            0.0000000000
     16172      5391  TIP3      H1             22.8874303705      -17.3900371127       16.8419569866  W2        5669            0.0000000000
     16173      5391  TIP3      H2             22.7395803705      -15.8839971127       16.8852069866  W2        5669            0.0000000000
     16174      5392  TIP3      OH2            23.1499103705      -18.2915871127       14.9367269866  W2        5670            0.0000000000
     16175      5392  TIP3      H1             23.6856603705      -17.8399171127       14.2846569866  W2        5670            0.0000000000
     16176      5392  TIP3      H2             22.2978703705      -18.3996071127       14.5141369866  W2        5670            0.0000000000
     16177      5393  TIP3      OH2            24.7317503705      -12.8519671127       15.1762469866  W2        5671            0.0000000000
     16178      5393  TIP3      H1             25.4822303705      -13.0082171127       14.6030269866  W2        5671            0.0000000000
     16179      5393  TIP3      H2             24.3925803705      -12.0003071127       14.9007969866  W2        5671            0.0000000000
     16180      5394  TIP3      OH2            23.9554603705      -20.8350171127       15.3680869866  W2        5675            0.0000000000
     16181      5394  TIP3      H1             23.8574203705      -19.8886971127       15.2627069866  W2        5675            0.0000000000
     16182      5394  TIP3      H2             23.2130803705      -21.2076371127       14.8924369866  W2        5675            0.0000000000
     16183      5395  TIP3      OH2            24.0772503705       -2.9754071127        3.2693969866  W2        5682            0.0000000000
     16184      5395  TIP3      H1             25.0103203705       -2.8175371127        3.4132369866  W2        5682            0.0000000000
     16185      5395  TIP3      H2             23.8131303705       -2.3001071127        2.6445469866  W2        5682            0.0000000000
     16186      5396  TIP3      OH2            17.6457403705       -8.3390271127        2.7522069866  W2        5683            0.0000000000
     16187      5396  TIP3      H1             18.5596603705       -8.2601371127        3.0255969866  W2        5683            0.0000000000
     16188      5396  TIP3      H2             17.6530503705       -9.0260671127        2.0857669866  W2        5683            0.0000000000
     16189      5397  TIP3      OH2            16.2948003705       -2.9461771127        7.8295969866  W2        5684            0.0000000000
     16190      5397  TIP3      H1             15.6475103705       -3.4080071127        7.2967169866  W2        5684            0.0000000000
     16191      5397  TIP3      H2             16.6492603705       -3.6178471127        8.4122169866  W2        5684            0.0000000000
     16192      5398  TIP3      OH2            17.1647203705       -4.8654771127        9.6342169866  W2        5685            0.0000000000
     16193      5398  TIP3      H1             16.8304003705       -5.7457471127        9.8062369866  W2        5685            0.0000000000
     16194      5398  TIP3      H2             17.3869603705       -4.5199771127       10.4987769866  W2        5685            0.0000000000
     16195      5399  TIP3      OH2            34.7132003705       -4.0558371127       12.6146969866  W2        5686            0.0000000000
     16196      5399  TIP3      H1             34.6918703705       -3.8709971127       13.5536369866  W2        5686            0.0000000000
     16197      5399  TIP3      H2             35.4038203705       -3.4874371127       12.2738369866  W2        5686            0.0000000000
     16198      5400  TIP3      OH2            34.2764903705       -4.4887271127       15.5366069866  W2        5687            0.0000000000
     16199      5400  TIP3      H1             33.7893603705       -5.2243171127       15.1653469866  W2        5687            0.0000000000
     16200      5400  TIP3      H2             34.8257603705       -4.8823371127       16.2145469866  W2        5687            0.0000000000
     16201      5401  TIP3      OH2            34.0281903705      -10.4425471127        5.6888869866  W2        5689            0.0000000000
     16202      5401  TIP3      H1             34.8783303705      -10.0214571127        5.8160469866  W2        5689            0.0000000000
     16203      5401  TIP3      H2             34.0337003705      -11.1825371127        6.2960269866  W2        5689            0.0000000000
     16204      5402  TIP3      OH2            34.4227503705      -12.3888071127        7.5124569866  W2        5690            0.0000000000
     16205      5402  TIP3      H1             33.6962103705      -12.8685471127        7.9102169866  W2        5690            0.0000000000
     16206      5402  TIP3      H2             35.0040803705      -12.1833371127        8.2446169866  W2        5690            0.0000000000
     16207      5403  TIP3      OH2            34.1818703705       -9.6040571127       12.4602169866  W2        5691            0.0000000000
     16208      5403  TIP3      H1             35.0152903705       -9.9820571127       12.1795769866  W2        5691            0.0000000000
     16209      5403  TIP3      H2             34.2939003705       -8.6609371127       12.3411269866  W2        5691            0.0000000000
     16210      5404  TIP3      OH2            32.6681003705       -6.7263071127       14.7670569866  W2        5692            0.0000000000
     16211      5404  TIP3      H1             32.0206303705       -6.4011571127       15.3925769866  W2        5692            0.0000000000
     16212      5404  TIP3      H2             32.1505003705       -7.1665371127       14.0928869866  W2        5692            0.0000000000
     16213      5405  TIP3      OH2            34.6910603705      -12.4879571127        3.9035869866  W2        5693            0.0000000000
     16214      5405  TIP3      H1             34.1691703705      -12.1315471127        3.1846769866  W2        5693            0.0000000000
     16215      5405  TIP3      H2             34.6579803705      -11.8131771127        4.5816769866  W2        5693            0.0000000000
     16216      5406  TIP3      OH2            33.0399603705      -15.2483971127        2.4542969866  W2        5694            0.0000000000
     16217      5406  TIP3      H1             33.1364003705      -14.5816971127        1.7742669866  W2        5694            0.0000000000
     16218      5406  TIP3      H2             32.8999203705      -16.0637671127        1.9728469866  W2        5694            0.0000000000
     16219      5407  TIP3      OH2            32.2094303705      -13.8681571127        8.0753269866  W2        5695            0.0000000000
     16220      5407  TIP3      H1             32.0593103705      -14.8132971127        8.0551069866  W2        5695            0.0000000000
     16221      5407  TIP3      H2             31.8558803705      -13.5870171127        8.9192369866  W2        5695            0.0000000000
     16222      5408  TIP3      OH2            17.2446703705      -11.7899371127       12.0857069866  W2        5696            0.0000000000
     16223      5408  TIP3      H1             17.4289603705      -11.8717671127       11.1499969866  W2        5696            0.0000000000
     16224      5408  TIP3      H2             18.0939603705      -11.9142371127       12.5093469866  W2        5696            0.0000000000
     16225      5409  TIP3      OH2            32.2873403705      -17.8404171127        1.5718469866  W2        5699            0.0000000000
     16226      5409  TIP3      H1             32.8979203705      -18.2117371127        2.2086669866  W2        5699            0.0000000000
     16227      5409  TIP3      H2             31.4504903705      -18.2617271127        1.7678469866  W2        5699            0.0000000000
     16228      5410  TIP3      OH2            31.9199103705      -16.2855771127        6.5378369866  W2        5700            0.0000000000
     16229      5410  TIP3      H1             32.1996203705      -17.1925371127        6.6620069866  W2        5700            0.0000000000
     16230      5410  TIP3      H2             32.6790803705      -15.8514271127        6.1487569866  W2        5700            0.0000000000
     16231      5411  TIP3      OH2            32.5317403705      -15.7038371127       11.9737269866  W2        5701            0.0000000000
     16232      5411  TIP3      H1             33.4645403705      -15.4918471127       11.9393269866  W2        5701            0.0000000000
     16233      5411  TIP3      H2             32.2964903705      -15.6026271127       12.8960269866  W2        5701            0.0000000000
     16234      5412  TIP3      OH2            32.5609303705      -14.9673071127       14.7496669866  W2        5702            0.0000000000
     16235      5412  TIP3      H1             31.7180603705      -14.6992671127       15.1156469866  W2        5702            0.0000000000
     16236      5412  TIP3      H2             33.0033603705      -14.1451171127       14.5387769866  W2        5702            0.0000000000
     16237      5413  TIP3      OH2            32.5333903705      -19.0226471127        6.5860369866  W2        5705            0.0000000000
     16238      5413  TIP3      H1             32.7158903705      -19.4714971127        7.4115369866  W2        5705            0.0000000000
     16239      5413  TIP3      H2             31.9336803705      -19.6072071127        6.1224969866  W2        5705            0.0000000000
     16240      5414  TIP3      OH2            18.0634003705      -18.2072771127       11.1178769866  W2        5706            0.0000000000
     16241      5414  TIP3      H1             18.5085603705      -18.9990271127       11.4198469866  W2        5706            0.0000000000
     16242      5414  TIP3      H2             18.5297003705      -17.4907571127       11.5484369866  W2        5706            0.0000000000
     16243      5415  TIP3      OH2            16.3674303705      -15.2079771127       12.1868969866  W2        5707            0.0000000000
     16244      5415  TIP3      H1             16.8594103705      -15.4289271127       11.3960969866  W2        5707            0.0000000000
     16245      5415  TIP3      H2             16.7295203705      -14.3676371127       12.4678469866  W2        5707            0.0000000000
     16246      5416  TIP3      OH2            34.4000103705      -18.9548371127        3.1140669866  W2        5709            0.0000000000
     16247      5416  TIP3      H1             34.8122703705      -19.6762671127        2.6388669866  W2        5709            0.0000000000
     16248      5416  TIP3      H2             35.0816603705      -18.2853771127        3.1724969866  W2        5709            0.0000000000
     16249      5417  TIP3      OH2            16.6810803705      -18.9500671127        6.2411369866  W2        5710            0.0000000000
     16250      5417  TIP3      H1             15.7559203705      -18.7414071127        6.1116869866  W2        5710            0.0000000000
     16251      5417  TIP3      H2             17.1350703705      -18.4659871127        5.5513669866  W2        5710            0.0000000000
     16252      5418  TIP3      OH2            31.4518003705       -3.9658971127        8.1868769866  W2        5711            0.0000000000
     16253      5418  TIP3      H1             32.1040903705       -4.3136871127        7.5787869866  W2        5711            0.0000000000
     16254      5418  TIP3      H2             31.9621803705       -3.4775771127        8.8328469866  W2        5711            0.0000000000
     16255      5419  TIP3      OH2            16.6446203705      -20.2121671127       14.5853869866  W2        5712            0.0000000000
     16256      5419  TIP3      H1             15.9796703705      -20.4581371127       15.2284769866  W2        5712            0.0000000000
     16257      5419  TIP3      H2             16.2017503705      -19.5901271127       14.0081869866  W2        5712            0.0000000000
     16258      5420  TIP3      OH2            21.7908403705       -6.0626371127       14.9883669866  W2        5714            0.0000000000
     16259      5420  TIP3      H1             21.3659503705       -5.2527871127       14.7058269866  W2        5714            0.0000000000
     16260      5420  TIP3      H2             22.6951203705       -5.9772271127       14.6863469866  W2        5714            0.0000000000
     16261      5421  TIP3      OH2            28.4470203705       -3.3777471127       17.1918769866  W2        5716            0.0000000000
     16262      5421  TIP3      H1             29.1239103705       -4.0105171127       16.9517969866  W2        5716            0.0000000000
     16263      5421  TIP3      H2             28.7689003705       -2.9766971127       17.9992069866  W2        5716            0.0000000000
     16264      5422  TIP3      OH2            33.3644003705      -20.7881971127       16.2713769866  W2        5717            0.0000000000
     16265      5422  TIP3      H1             32.5517503705      -20.4631671127       15.8838469866  W2        5717            0.0000000000
     16266      5422  TIP3      H2             33.5972503705      -21.5483471127       15.7382869866  W2        5717            0.0000000000
     16267      5423  TIP3      OH2            19.1925103705       -2.8062471127       15.0358969866  W2        5718            0.0000000000
     16268      5423  TIP3      H1             18.4721503705       -2.3661471127       14.5846669866  W2        5718            0.0000000000
     16269      5423  TIP3      H2             18.8269103705       -3.0567771127       15.8842969866  W2        5718            0.0000000000
     16270      5424  TIP3      OH2            21.6597703705       -3.2058571127       14.0656169866  W2        5719            0.0000000000
     16271      5424  TIP3      H1             20.7949903705       -3.1340071127       14.4696269866  W2        5719            0.0000000000
     16272      5424  TIP3      H2             21.6046703705       -2.6591271127       13.2818669866  W2        5719            0.0000000000
     16273      5425  TIP3      OH2            26.3703303705       -3.3179671127       13.2412169866  W2        5720            0.0000000000
     16274      5425  TIP3      H1             25.9137303705       -2.7889971127       12.5870569866  W2        5720            0.0000000000
     16275      5425  TIP3      H2             26.5331303705       -2.7148271127       13.9664469866  W2        5720            0.0000000000
     16276      5426  TIP3      OH2            28.6979603705       -4.4400071127       14.1862469866  W2        5721            0.0000000000
     16277      5426  TIP3      H1             27.7933303705       -4.2749871127       13.9204569866  W2        5721            0.0000000000
     16278      5426  TIP3      H2             29.1268203705       -3.5867871127       14.1205869866  W2        5721            0.0000000000
     16279      5427  TIP3      OH2            31.3021503705       -2.8700971127       14.4810269866  W2        5722            0.0000000000
     16280      5427  TIP3      H1             31.1203503705       -1.9542071127       14.2705169866  W2        5722            0.0000000000
     16281      5427  TIP3      H2             31.4789303705       -3.2803871127       13.6344869866  W2        5722            0.0000000000
     16282      5428  TIP3      OH2            18.6073203705       -4.1829971127       11.9460769866  W2        5723            0.0000000000
     16283      5428  TIP3      H1             18.5889203705       -4.6084871127       12.8033069866  W2        5723            0.0000000000
     16284      5428  TIP3      H2             19.4121103705       -4.5014971127       11.5372969866  W2        5723            0.0000000000
     16285      5429  TIP3      OH2            20.7486303705       -5.4731271127       10.6010669866  W2        5724            0.0000000000
     16286      5429  TIP3      H1             20.5297003705       -6.3893871127       10.7706669866  W2        5724            0.0000000000
     16287      5429  TIP3      H2             21.5728503705       -5.3330871127       11.0672069866  W2        5724            0.0000000000
     16288      5430  TIP3      OH2            23.2858803705       -5.0031971127       11.4498669866  W2        5725            0.0000000000
     16289      5430  TIP3      H1             23.4984503705       -5.8912971127       11.1629569866  W2        5725            0.0000000000
     16290      5430  TIP3      H2             23.3503903705       -5.0374271127       12.4042669866  W2        5725            0.0000000000
     16291      5431  TIP3      OH2            26.7942503705      -19.3391371127       10.5941969866  W2        5726            0.0000000000
     16292      5431  TIP3      H1             26.1199303705      -19.9685771127       10.8497769866  W2        5726            0.0000000000
     16293      5431  TIP3      H2             27.3581703705      -19.8232471127        9.9909869866  W2        5726            0.0000000000
     16294      5432  TIP3      OH2            31.9369703705      -21.2317371127       10.7069069866  W2        5727            0.0000000000
     16295      5432  TIP3      H1             32.5407303705      -20.6841971127       10.2050069866  W2        5727            0.0000000000
     16296      5432  TIP3      H2             31.0671703705      -20.9126971127       10.4663169866  W2        5727            0.0000000000
     16297      5433  TIP3      OH2            33.6640103705      -20.0928671127        9.0399969866  W2        5728            0.0000000000
     16298      5433  TIP3      H1             34.2757603705      -20.6072971127        8.5133569866  W2        5728            0.0000000000
     16299      5433  TIP3      H2             34.0463503705      -19.2156571127        9.0634369866  W2        5728            0.0000000000
     16300      5434  TIP3      OH2            19.1210003705      -20.7051071127        8.4161869866  W2        5729            0.0000000000
     16301      5434  TIP3      H1             18.3439803705      -20.9396171127        7.9087769866  W2        5729            0.0000000000
     16302      5434  TIP3      H2             19.6513603705      -21.5018971127        8.4249869866  W2        5729            0.0000000000
     16303      5435  TIP3      OH2            17.9573403705      -20.9072971127        4.2197969866  W2        5730            0.0000000000
     16304      5435  TIP3      H1             18.3964103705      -20.2962471127        3.6281469866  W2        5730            0.0000000000
     16305      5435  TIP3      H2             17.3235803705      -20.3688871127        4.6937969866  W2        5730            0.0000000000
     16306      5436  TIP3      OH2            23.7002603705      -20.7783971127        8.2294969866  W2        5731            0.0000000000
     16307      5436  TIP3      H1             24.5746003705      -20.3899671127        8.1999269866  W2        5731            0.0000000000
     16308      5436  TIP3      H2             23.5643403705      -20.9936171127        9.1522169866  W2        5731            0.0000000000
     16309      5437  TIP3      OH2            29.2571003705      -20.7484171127        9.8786669866  W2        5732            0.0000000000
     16310      5437  TIP3      H1             29.3332603705      -20.6532571127        8.9292669866  W2        5732            0.0000000000
     16311      5437  TIP3      H2             28.9820203705      -21.6561271127       10.0075769866  W2        5732            0.0000000000
     16312      5438  TIP3      OH2            30.6103603705      -20.7226371127        5.5711669866  W2        5733            0.0000000000
     16313      5438  TIP3      H1             29.9074703705      -20.1077171127        5.3613069866  W2        5733            0.0000000000
     16314      5438  TIP3      H2             30.1655003705      -21.5599671127        5.7022569866  W2        5733            0.0000000000
     16315      5439  TIP3      OH2            17.8582903705       -4.9590771127        5.1173069866  W2        5734            0.0000000000
     16316      5439  TIP3      H1             17.1732803705       -4.9971871127        4.4498169866  W2        5734            0.0000000000
     16317      5439  TIP3      H2             17.8620103705       -4.0463171127        5.4055169866  W2        5734            0.0000000000
     16318      5440  TIP3      OH2            19.8182503705      -18.9911471127        2.6622069866  W2        5735            0.0000000000
     16319      5440  TIP3      H1             20.3095903705      -19.6209071127        2.1347569866  W2        5735            0.0000000000
     16320      5440  TIP3      H2             20.4418803705      -18.6952071127        3.3253269866  W2        5735            0.0000000000
     16321      5441  TIP3      OH2            24.8442603705      -18.6979971127        5.1192569866  W2        5736            0.0000000000
     16322      5441  TIP3      H1             25.0223903705      -19.3446771127        5.8021169866  W2        5736            0.0000000000
     16323      5441  TIP3      H2             24.7908803705      -17.8642271127        5.5863669866  W2        5736            0.0000000000
     16324      5442  TIP3      OH2            26.7226403705       -3.7495871127        3.5149269866  W2        5737            0.0000000000
     16325      5442  TIP3      H1             27.5886603705       -3.3828471127        3.3367469866  W2        5737            0.0000000000
     16326      5442  TIP3      H2             26.4759203705       -4.1887871127        2.7010069866  W2        5737            0.0000000000
     16327      5443  TIP3      OH2            33.4316003705       -4.1865571127        6.1940369866  W2        5738            0.0000000000
     16328      5443  TIP3      H1             33.2373103705       -4.9343471127        5.6289969866  W2        5738            0.0000000000
     16329      5443  TIP3      H2             33.3926103705       -3.4285471127        5.6108269866  W2        5738            0.0000000000
     16330      5444  TIP3      OH2            19.6764103705       -4.0389971127        2.1425169866  W2        5741            0.0000000000
     16331      5444  TIP3      H1             19.4088703705       -3.7527071127        3.0158269866  W2        5741            0.0000000000
     16332      5444  TIP3      H2             20.4476703705       -4.5850771127        2.2947669866  W2        5741            0.0000000000
     16333      5445  TIP3      OH2            38.3568903705      -12.6795971127       13.3867469866  W2        5744            0.0000000000
     16334      5445  TIP3      H1             38.3981003705      -13.3052671127       14.1099869866  W2        5744            0.0000000000
     16335      5445  TIP3      H2             39.0596603705      -12.0557371127       13.5687869866  W2        5744            0.0000000000
     16336      5446  TIP3      OH2            39.2802003705       -8.2297071127       11.9216569866  W2        5745            0.0000000000
     16337      5446  TIP3      H1             38.9107203705       -9.0316571127       11.5520869866  W2        5745            0.0000000000
     16338      5446  TIP3      H2             40.2213103705       -8.3982171127       11.9679969866  W2        5745            0.0000000000
     16339      5447  TIP3      OH2            35.8902503705      -14.5694471127        7.3145369866  W2        5746            0.0000000000
     16340      5447  TIP3      H1             35.4425903705      -13.7235771127        7.2961869866  W2        5746            0.0000000000
     16341      5447  TIP3      H2             35.3293703705      -15.1490271127        6.7990469866  W2        5746            0.0000000000
     16342      5448  TIP3      OH2            36.6008603705      -12.4074871127        9.4403369866  W2        5747            0.0000000000
     16343      5448  TIP3      H1             36.8142103705      -13.1773271127        9.9676369866  W2        5747            0.0000000000
     16344      5448  TIP3      H2             37.3386203705      -12.3178171127        8.8370969866  W2        5747            0.0000000000
     16345      5449  TIP3      OH2            37.2935103705      -14.9692071127       10.5619569866  W2        5748            0.0000000000
     16346      5449  TIP3      H1             37.9471703705      -15.5190371127       10.9939669866  W2        5748            0.0000000000
     16347      5449  TIP3      H2             37.3174403705      -15.2433071127        9.6451569866  W2        5748            0.0000000000
     16348      5450  TIP3      OH2            39.4835503705      -18.4479471127       13.8738969866  W2        5749            0.0000000000
     16349      5450  TIP3      H1             39.2647203705      -17.9178871127       13.1074969866  W2        5749            0.0000000000
     16350      5450  TIP3      H2             38.8156403705      -18.2213971127       14.5210369866  W2        5749            0.0000000000
     16351      5451  TIP3      OH2            39.0772803705      -16.5557671127       11.8261169866  W2        5750            0.0000000000
     16352      5451  TIP3      H1             39.6909103705      -15.9230071127       12.1993569866  W2        5750            0.0000000000
     16353      5451  TIP3      H2             39.5893503705      -17.0282671127       11.1698069866  W2        5750            0.0000000000
     16354      5452  TIP3      OH2            40.4601203705       -8.8080771127       14.9484169866  W2        5751            0.0000000000
     16355      5452  TIP3      H1             40.4548803705       -7.9287271127       14.5703469866  W2        5751            0.0000000000
     16356      5452  TIP3      H2             39.6065303705       -8.8916671127       15.3734069866  W2        5751            0.0000000000
     16357      5453  TIP3      OH2            36.5812103705       -9.1372871127        5.7303469866  W2        5752            0.0000000000
     16358      5453  TIP3      H1             36.3093003705       -8.9081871127        4.8416369866  W2        5752            0.0000000000
     16359      5453  TIP3      H2             36.6267803705       -8.2994071127        6.1908769866  W2        5752            0.0000000000
     16360      5454  TIP3      OH2            38.9942603705      -12.0989871127       16.2403169866  W2        5753            0.0000000000
     16361      5454  TIP3      H1             39.0645803705      -11.4483071127       16.9388169866  W2        5753            0.0000000000
     16362      5454  TIP3      H2             38.1034803705      -11.9962371127       15.9054069866  W2        5753            0.0000000000
     16363      5455  TIP3      OH2            39.8179203705      -12.3954971127        6.2503369866  W2        5755            0.0000000000
     16364      5455  TIP3      H1             39.5260503705      -11.6273271127        5.7594669866  W2        5755            0.0000000000
     16365      5455  TIP3      H2             39.1434403705      -13.0548771127        6.0874769866  W2        5755            0.0000000000
     16366      5456  TIP3      OH2            35.9109303705      -10.0325771127       15.0653169866  W2        5756            0.0000000000
     16367      5456  TIP3      H1             35.4097703705      -10.0606371127       14.2502869866  W2        5756            0.0000000000
     16368      5456  TIP3      H2             35.9163003705      -10.9382571127       15.3750469866  W2        5756            0.0000000000
     16369      5457  TIP3      OH2            35.6612003705       -7.2521971127       11.9493369866  W2        5757            0.0000000000
     16370      5457  TIP3      H1             36.6072603705       -7.3964971127       11.9302869866  W2        5757            0.0000000000
     16371      5457  TIP3      H2             35.5488303705       -6.4679171127       12.4864569866  W2        5757            0.0000000000
     16372      5458  TIP3      OH2            38.9054103705       -4.4512371127        8.0948069866  W2        5758            0.0000000000
     16373      5458  TIP3      H1             39.0574503705       -4.7991971127        8.9734569866  W2        5758            0.0000000000
     16374      5458  TIP3      H2             38.0544503705       -4.8075071127        7.8395269866  W2        5758            0.0000000000
     16375      5459  TIP3      OH2            38.1599803705       -8.7090371127       16.1085969866  W2        5759            0.0000000000
     16376      5459  TIP3      H1             38.3761103705       -9.0704771127       16.9681769866  W2        5759            0.0000000000
     16377      5459  TIP3      H2             37.3044503705       -9.0836571127       15.8989469866  W2        5759            0.0000000000
     16378      5460  TIP3      OH2            38.6198403705      -14.9531871127       15.0662369866  W2        5760            0.0000000000
     16379      5460  TIP3      H1             38.5817803705      -14.5530271127       15.9349469866  W2        5760            0.0000000000
     16380      5460  TIP3      H2             38.1289503705      -15.7699471127       15.1565269866  W2        5760            0.0000000000
     16381      5461  TIP3      OH2            35.2279203705      -17.8370071127        8.9167069866  W2        5761            0.0000000000
     16382      5461  TIP3      H1             35.8586903705      -17.8657971127        9.6360969866  W2        5761            0.0000000000
     16383      5461  TIP3      H2             35.6773503705      -18.2621371127        8.1862969866  W2        5761            0.0000000000
     16384      5462  TIP3      OH2            36.5021303705      -17.0908071127        4.3407469866  W2        5762            0.0000000000
     16385      5462  TIP3      H1             36.9763003705      -16.4998171127        3.7558369866  W2        5762            0.0000000000
     16386      5462  TIP3      H2             35.7847703705      -16.5605171127        4.6877569866  W2        5762            0.0000000000
     16387      5463  TIP3      OH2            38.2765703705      -15.9961471127        8.0242069866  W2        5763            0.0000000000
     16388      5463  TIP3      H1             37.3873703705      -15.8965971127        7.6841669866  W2        5763            0.0000000000
     16389      5463  TIP3      H2             38.5730603705      -16.8378471127        7.6779969866  W2        5763            0.0000000000
     16390      5464  TIP3      OH2            39.7701703705      -18.7008671127        7.5028869866  W2        5765            0.0000000000
     16391      5464  TIP3      H1             39.4531203705      -19.6033371127        7.4674269866  W2        5765            0.0000000000
     16392      5464  TIP3      H2             40.5515803705      -18.6991271127        6.9500469866  W2        5765            0.0000000000
     16393      5465  TIP3      OH2            39.0638803705      -10.9410971127       10.9528769866  W2        5766            0.0000000000
     16394      5465  TIP3      H1             39.8086003705      -10.9435271127       10.3515269866  W2        5766            0.0000000000
     16395      5465  TIP3      H2             39.1415403705      -11.7647171127       11.4343869866  W2        5766            0.0000000000
     16396      5466  TIP3      OH2            36.0718503705      -12.4804071127       16.2677269866  W2        5767            0.0000000000
     16397      5466  TIP3      H1             36.2947103705      -12.8984471127       17.0994769866  W2        5767            0.0000000000
     16398      5466  TIP3      H2             35.4698603705      -13.0929071127       15.8450069866  W2        5767            0.0000000000
     16399      5467  TIP3      OH2            37.1935903705      -12.5608671127        2.9442669866  W2        5768            0.0000000000
     16400      5467  TIP3      H1             37.8095803705      -11.9341471127        3.3237469866  W2        5768            0.0000000000
     16401      5467  TIP3      H2             36.3318503705      -12.2448871127        3.2159169866  W2        5768            0.0000000000
     16402      5468  TIP3      OH2            37.7058003705      -17.7271371127       15.8258669866  W2        5769            0.0000000000
     16403      5468  TIP3      H1             36.8130303705      -17.3885971127       15.7582669866  W2        5769            0.0000000000
     16404      5468  TIP3      H2             37.6070803705      -18.5825271127       16.2439469866  W2        5769            0.0000000000
     16405      5469  TIP3      OH2            37.3570003705       -5.9226971127       14.2608069866  W2        5770            0.0000000000
     16406      5469  TIP3      H1             37.5740303705       -6.8544571127       14.2297769866  W2        5770            0.0000000000
     16407      5469  TIP3      H2             37.6033503705       -5.6481971127       15.1440869866  W2        5770            0.0000000000
     16408      5470  TIP3      OH2            38.6086303705      -10.6484871127        4.4368269866  W2        5771            0.0000000000
     16409      5470  TIP3      H1             37.9225603705      -10.2962371127        5.0037969866  W2        5771            0.0000000000
     16410      5470  TIP3      H2             39.1314203705       -9.8855271127        4.1902569866  W2        5771            0.0000000000
     16411      5471  TIP3      OH2            39.2245203705       -8.0345971127        3.3336069866  W2        5772            0.0000000000
     16412      5471  TIP3      H1             39.8166703705       -7.3351171127        3.6098469866  W2        5772            0.0000000000
     16413      5471  TIP3      H2             39.6838203705       -8.4676471127        2.6140669866  W2        5772            0.0000000000
     16414      5472  TIP3      OH2            37.5404403705      -15.3702971127        2.4495469866  W2        5773            0.0000000000
     16415      5472  TIP3      H1             37.4957003705      -14.4309871127        2.6282469866  W2        5773            0.0000000000
     16416      5472  TIP3      H2             36.6527603705      -15.6058071127        2.1797569866  W2        5773            0.0000000000
     16417      5473  TIP3      OH2            38.3486403705      -20.5886371127       11.1226469866  W2        5774            0.0000000000
     16418      5473  TIP3      H1             38.1196203705      -20.5293871127       10.1951469866  W2        5774            0.0000000000
     16419      5473  TIP3      H2             37.9059803705      -21.3800871127       11.4290569866  W2        5774            0.0000000000
     16420      5474  TIP3      OH2            37.2789703705       -6.6479271127        7.2832269866  W2        5775            0.0000000000
     16421      5474  TIP3      H1             36.4468303705       -6.1756571127        7.3103669866  W2        5775            0.0000000000
     16422      5474  TIP3      H2             37.8248003705       -6.1381671127        6.6845369866  W2        5775            0.0000000000
     16423      5475  TIP3      OH2            36.5017403705       -8.3390271127        2.7522069866  W2        5781            0.0000000000
     16424      5475  TIP3      H1             37.4156603705       -8.2601371127        3.0255969866  W2        5781            0.0000000000
     16425      5475  TIP3      H2             36.5090503705       -9.0260671127        2.0857669866  W2        5781            0.0000000000
     16426      5476  TIP3      OH2            35.1508003705       -2.9461771127        7.8295969866  W2        5782            0.0000000000
     16427      5476  TIP3      H1             34.5035103705       -3.4080071127        7.2967169866  W2        5782            0.0000000000
     16428      5476  TIP3      H2             35.5052603705       -3.6178471127        8.4122169866  W2        5782            0.0000000000
     16429      5477  TIP3      OH2            36.0207203705       -4.8654771127        9.6342169866  W2        5783            0.0000000000
     16430      5477  TIP3      H1             35.6864003705       -5.7457471127        9.8062369866  W2        5783            0.0000000000
     16431      5477  TIP3      H2             36.2429603705       -4.5199771127       10.4987769866  W2        5783            0.0000000000
     16432      5478  TIP3      OH2            36.1006703705      -11.7899371127       12.0857069866  W2        5784            0.0000000000
     16433      5478  TIP3      H1             36.2849603705      -11.8717671127       11.1499969866  W2        5784            0.0000000000
     16434      5478  TIP3      H2             36.9499603705      -11.9142371127       12.5093469866  W2        5784            0.0000000000
     16435      5479  TIP3      OH2            36.9194003705      -18.2072771127       11.1178769866  W2        5786            0.0000000000
     16436      5479  TIP3      H1             37.3645603705      -18.9990271127       11.4198469866  W2        5786            0.0000000000
     16437      5479  TIP3      H2             37.3857003705      -17.4907571127       11.5484369866  W2        5786            0.0000000000
     16438      5480  TIP3      OH2            35.2234303705      -15.2079771127       12.1868969866  W2        5787            0.0000000000
     16439      5480  TIP3      H1             35.7154103705      -15.4289271127       11.3960969866  W2        5787            0.0000000000
     16440      5480  TIP3      H2             35.5855203705      -14.3676371127       12.4678469866  W2        5787            0.0000000000
     16441      5481  TIP3      OH2            35.5370803705      -18.9500671127        6.2411369866  W2        5788            0.0000000000
     16442      5481  TIP3      H1             34.6119203705      -18.7414071127        6.1116869866  W2        5788            0.0000000000
     16443      5481  TIP3      H2             35.9910703705      -18.4659871127        5.5513669866  W2        5788            0.0000000000
     16444      5482  TIP3      OH2            35.5006203705      -20.2121671127       14.5853869866  W2        5789            0.0000000000
     16445      5482  TIP3      H1             34.8356703705      -20.4581371127       15.2284769866  W2        5789            0.0000000000
     16446      5482  TIP3      H2             35.0577503705      -19.5901271127       14.0081869866  W2        5789            0.0000000000
     16447      5483  TIP3      OH2            38.0485103705       -2.8062471127       15.0358969866  W2        5791            0.0000000000
     16448      5483  TIP3      H1             37.3281503705       -2.3661471127       14.5846669866  W2        5791            0.0000000000
     16449      5483  TIP3      H2             37.6829103705       -3.0567771127       15.8842969866  W2        5791            0.0000000000
     16450      5484  TIP3      OH2            40.5157703705       -3.2058571127       14.0656169866  W2        5792            0.0000000000
     16451      5484  TIP3      H1             39.6509903705       -3.1340071127       14.4696269866  W2        5792            0.0000000000
     16452      5484  TIP3      H2             40.4606703705       -2.6591271127       13.2818669866  W2        5792            0.0000000000
     16453      5485  TIP3      OH2            37.4633203705       -4.1829971127       11.9460769866  W2        5793            0.0000000000
     16454      5485  TIP3      H1             37.4449203705       -4.6084871127       12.8033069866  W2        5793            0.0000000000
     16455      5485  TIP3      H2             38.2681103705       -4.5014971127       11.5372969866  W2        5793            0.0000000000
     16456      5486  TIP3      OH2            39.6046303705       -5.4731271127       10.6010669866  W2        5794            0.0000000000
     16457      5486  TIP3      H1             39.3857003705       -6.3893871127       10.7706669866  W2        5794            0.0000000000
     16458      5486  TIP3      H2             40.4288503705       -5.3330871127       11.0672069866  W2        5794            0.0000000000
     16459      5487  TIP3      OH2            37.9770003705      -20.7051071127        8.4161869866  W2        5795            0.0000000000
     16460      5487  TIP3      H1             37.1999803705      -20.9396171127        7.9087769866  W2        5795            0.0000000000
     16461      5487  TIP3      H2             38.5073603705      -21.5018971127        8.4249869866  W2        5795            0.0000000000
     16462      5488  TIP3      OH2            36.8133403705      -20.9072971127        4.2197969866  W2        5796            0.0000000000
     16463      5488  TIP3      H1             37.2524103705      -20.2962471127        3.6281469866  W2        5796            0.0000000000
     16464      5488  TIP3      H2             36.1795803705      -20.3688871127        4.6937969866  W2        5796            0.0000000000
     16465      5489  TIP3      OH2            36.7142903705       -4.9590771127        5.1173069866  W2        5797            0.0000000000
     16466      5489  TIP3      H1             36.0292803705       -4.9971871127        4.4498169866  W2        5797            0.0000000000
     16467      5489  TIP3      H2             36.7180103705       -4.0463171127        5.4055169866  W2        5797            0.0000000000
     16468      5490  TIP3      OH2            38.6742503705      -18.9911471127        2.6622069866  W2        5798            0.0000000000
     16469      5490  TIP3      H1             39.1655903705      -19.6209071127        2.1347569866  W2        5798            0.0000000000
     16470      5490  TIP3      H2             39.2978803705      -18.6952071127        3.3253269866  W2        5798            0.0000000000
     16471      5491  TIP3      OH2            38.5324103705       -4.0389971127        2.1425169866  W2        5801            0.0000000000
     16472      5491  TIP3      H1             38.2648703705       -3.7527071127        3.0158269866  W2        5801            0.0000000000
     16473      5491  TIP3      H2             39.3036703705       -4.5850771127        2.2947669866  W2        5801            0.0000000000
     16474      5492  TIP3      OH2           -28.3687396295        7.3071228873        8.3749369866  W2        5802            0.0000000000
     16475      5492  TIP3      H1            -28.2796296295        8.2509428873        8.2426469866  W2        5802            0.0000000000
     16476      5492  TIP3      H2            -29.0069796295        7.0317628873        7.7168769866  W2        5802            0.0000000000
     16477      5493  TIP3      OH2           -29.4356096295        6.5621928873       11.7937569866  W2        5803            0.0000000000
     16478      5493  TIP3      H1            -29.4738596295        5.9158228873       12.4987169866  W2        5803            0.0000000000
     16479      5493  TIP3      H2            -29.7579596295        6.0956328873       11.0226269866  W2        5803            0.0000000000
     16480      5494  TIP3      OH2           -37.0671096295        6.1764028873       13.3867469866  W2        5804            0.0000000000
     16481      5494  TIP3      H1            -37.0258996295        5.5507328873       14.1099869866  W2        5804            0.0000000000
     16482      5494  TIP3      H2            -36.3643396295        6.8002628873       13.5687869866  W2        5804            0.0000000000
     16483      5495  TIP3      OH2           -25.7295896295        9.5012328873       10.0952669866  W2        5805            0.0000000000
     16484      5495  TIP3      H1            -26.1703196295        8.7808328873       10.5458269866  W2        5805            0.0000000000
     16485      5495  TIP3      H2            -25.7426196295       10.2219528873       10.7250369866  W2        5805            0.0000000000
     16486      5496  TIP3      OH2           -36.1437996295       10.6262928873       11.9216569866  W2        5806            0.0000000000
     16487      5496  TIP3      H1            -36.5132796295        9.8243428873       11.5520869866  W2        5806            0.0000000000
     16488      5496  TIP3      H2            -35.2026896295       10.4577828873       11.9679969866  W2        5806            0.0000000000
     16489      5497  TIP3      OH2           -39.5337496295        4.2865528873        7.3145369866  W2        5807            0.0000000000
     16490      5497  TIP3      H1            -39.9814096295        5.1324228873        7.2961869866  W2        5807            0.0000000000
     16491      5497  TIP3      H2            -40.0946296295        3.7069728873        6.7990469866  W2        5807            0.0000000000
     16492      5498  TIP3      OH2           -38.8231396295        6.4485128873        9.4403369866  W2        5808            0.0000000000
     16493      5498  TIP3      H1            -38.6097896295        5.6786728873        9.9676369866  W2        5808            0.0000000000
     16494      5498  TIP3      H2            -38.0853796295        6.5381828873        8.8370969866  W2        5808            0.0000000000
     16495      5499  TIP3      OH2           -28.6180396295       14.6054028873       10.3073069866  W2        5809            0.0000000000
     16496      5499  TIP3      H1            -27.9983996295       13.9288728873       10.0342269866  W2        5809            0.0000000000
     16497      5499  TIP3      H2            -28.8262996295       14.3874828873       11.2157969866  W2        5809            0.0000000000
     16498      5500  TIP3      OH2           -31.0461696295        8.9943328873       12.1998569866  W2        5810            0.0000000000
     16499      5500  TIP3      H1            -30.7423796295        8.3084728873       11.6052669866  W2        5810            0.0000000000
     16500      5500  TIP3      H2            -30.3247696295        9.1132028873       12.8176569866  W2        5810            0.0000000000
     16501      5501  TIP3      OH2           -22.3831896295        0.5958628873       13.0604769866  W2        5811            0.0000000000
     16502      5501  TIP3      H1            -22.3339696295        1.2059828873       13.7963869866  W2        5811            0.0000000000
     16503      5501  TIP3      H2            -21.9576796295        1.0569528873       12.3375869866  W2        5811            0.0000000000
     16504      5502  TIP3      OH2           -27.9054696295        3.3885728873       12.5273369866  W2        5812            0.0000000000
     16505      5502  TIP3      H1            -27.7628796295        2.4422728873       12.5474969866  W2        5812            0.0000000000
     16506      5502  TIP3      H2            -28.0115696295        3.5955528873       11.5988269866  W2        5812            0.0000000000
     16507      5503  TIP3      OH2           -34.7506396295        1.4902128873        9.7998169866  W2        5813            0.0000000000
     16508      5503  TIP3      H1            -34.7075296295        2.3500628873        9.3814469866  W2        5813            0.0000000000
     16509      5503  TIP3      H2            -35.2082296295        0.9376828873        9.1661369866  W2        5813            0.0000000000
     16510      5504  TIP3      OH2           -27.0283696295        1.6207728873        8.2006469866  W2        5814            0.0000000000
     16511      5504  TIP3      H1            -26.3819396295        1.2920928873        8.8254069866  W2        5814            0.0000000000
     16512      5504  TIP3      H2            -26.5184296295        2.1386728873        7.5777869866  W2        5814            0.0000000000
     16513      5505  TIP3      OH2           -38.1304896295        3.8867928873       10.5619569866  W2        5815            0.0000000000
     16514      5505  TIP3      H1            -37.4768296295        3.3369628873       10.9939669866  W2        5815            0.0000000000
     16515      5505  TIP3      H2            -38.1065596295        3.6126928873        9.6451569866  W2        5815            0.0000000000
     16516      5506  TIP3      OH2           -32.9740396295        5.4369228873        9.7771069866  W2        5816            0.0000000000
     16517      5506  TIP3      H1            -32.3579396295        4.9104628873       10.2865069866  W2        5816            0.0000000000
     16518      5506  TIP3      H2            -33.5601596295        4.7967928873        9.3734669866  W2        5816            0.0000000000
     16519      5507  TIP3      OH2           -21.9917296295        2.0737828873       15.2964569866  W2        5817            0.0000000000
     16520      5507  TIP3      H1            -22.6802696295        2.7318528873       15.2011169866  W2        5817            0.0000000000
     16521      5507  TIP3      H2            -21.9762696295        1.8765728873       16.2329969866  W2        5817            0.0000000000
     16522      5508  TIP3      OH2           -35.9404496295        0.4080528873       13.8738969866  W2        5818            0.0000000000
     16523      5508  TIP3      H1            -36.1592796295        0.9381128873       13.1074969866  W2        5818            0.0000000000
     16524      5508  TIP3      H2            -36.6083596295        0.6346028873       14.5210369866  W2        5818            0.0000000000
     16525      5509  TIP3      OH2           -28.5714696295        9.9081628873        7.4178069866  W2        5819            0.0000000000
     16526      5509  TIP3      H1            -28.8669596295        9.5853928873        6.5664969866  W2        5819            0.0000000000
     16527      5509  TIP3      H2            -28.8956896295       10.8078328873        7.4590669866  W2        5819            0.0000000000
     16528      5510  TIP3      OH2           -33.3713096295        8.0836228873       14.1612669866  W2        5820            0.0000000000
     16529      5510  TIP3      H1            -34.1113996295        8.6817728873       14.2647869866  W2        5820            0.0000000000
     16530      5510  TIP3      H2            -32.6573596295        8.6375828873       13.8456269866  W2        5820            0.0000000000
     16531      5511  TIP3      OH2           -25.2645296295        0.9117028873       10.1812369866  W2        5821            0.0000000000
     16532      5511  TIP3      H1            -25.4797296295        0.1460428873       10.7138369866  W2        5821            0.0000000000
     16533      5511  TIP3      H2            -24.6087896295        1.3841628873       10.6940869866  W2        5821            0.0000000000
     16534      5512  TIP3      OH2           -36.3467196295        2.3002328873       11.8261169866  W2        5822            0.0000000000
     16535      5512  TIP3      H1            -35.7330896295        2.9329928873       12.1993569866  W2        5822            0.0000000000
     16536      5512  TIP3      H2            -35.8346496295        1.8277328873       11.1698069866  W2        5822            0.0000000000
     16537      5513  TIP3      OH2           -34.9638796295       10.0479228873       14.9484169866  W2        5823            0.0000000000
     16538      5513  TIP3      H1            -34.9691196295       10.9272728873       14.5703469866  W2        5823            0.0000000000
     16539      5513  TIP3      H2            -35.8174696295        9.9643328873       15.3734069866  W2        5823            0.0000000000
     16540      5514  TIP3      OH2           -38.8427896295        9.7187128873        5.7303469866  W2        5824            0.0000000000
     16541      5514  TIP3      H1            -39.1146996295        9.9478128873        4.8416369866  W2        5824            0.0000000000
     16542      5514  TIP3      H2            -38.7972196295       10.5565928873        6.1908769866  W2        5824            0.0000000000
     16543      5515  TIP3      OH2           -25.2178196295       11.3403028873       12.4431969866  W2        5825            0.0000000000
     16544      5515  TIP3      H1            -26.1594496295       11.3986928873       12.6048869866  W2        5825            0.0000000000
     16545      5515  TIP3      H2            -24.9412096295       12.2463528873       12.3061669866  W2        5825            0.0000000000
     16546      5516  TIP3      OH2           -24.9171196295       -0.3731671127       13.8605869866  W2        5826            0.0000000000
     16547      5516  TIP3      H1            -25.6531996295        0.2375428873       13.8227169866  W2        5826            0.0000000000
     16548      5516  TIP3      H2            -24.2337196295        0.0417328873       13.3342269866  W2        5826            0.0000000000
     16549      5517  TIP3      OH2           -31.9139796295       -2.2864371127       11.3263869866  W2        5827            0.0000000000
     16550      5517  TIP3      H1            -32.0315596295       -3.2348371127       11.2722169866  W2        5827            0.0000000000
     16551      5517  TIP3      H2            -32.7689696295       -1.9538271127       11.5994969866  W2        5827            0.0000000000
     16552      5518  TIP3      OH2           -26.9656996295       13.1216528873        9.0683569866  W2        5828            0.0000000000
     16553      5518  TIP3      H1            -26.5404696295       12.4144428873        8.5833169866  W2        5828            0.0000000000
     16554      5518  TIP3      H2            -26.6486996295       13.9229228873        8.6515769866  W2        5828            0.0000000000
     16555      5519  TIP3      OH2           -25.8060496295       11.0225028873        7.5770169866  W2        5829            0.0000000000
     16556      5519  TIP3      H1            -26.0635696295       10.3325128873        6.9656069866  W2        5829            0.0000000000
     16557      5519  TIP3      H2            -25.7349696295       10.5796228873        8.4226069866  W2        5829            0.0000000000
     16558      5520  TIP3      OH2           -24.1200296295        9.5891728873       16.0543669866  W2        5830            0.0000000000
     16559      5520  TIP3      H1            -23.9803996295        8.9974228873       15.3150669866  W2        5830            0.0000000000
     16560      5520  TIP3      H2            -23.9527496295       10.4617628873       15.6982469866  W2        5830            0.0000000000
     16561      5521  TIP3      OH2           -29.6474896295        6.5511228873        5.8269669866  W2        5831            0.0000000000
     16562      5521  TIP3      H1            -30.3589396295        7.0860928873        5.4750169866  W2        5831            0.0000000000
     16563      5521  TIP3      H2            -28.9565296295        6.6063328873        5.1668569866  W2        5831            0.0000000000
     16564      5522  TIP3      OH2           -29.5935696295        5.0085528873        2.8654669866  W2        5832            0.0000000000
     16565      5522  TIP3      H1            -28.8925796295        5.0312428873        3.5168669866  W2        5832            0.0000000000
     16566      5522  TIP3      H2            -29.2912796295        4.3805228873        2.2093969866  W2        5832            0.0000000000
     16567      5523  TIP3      OH2           -22.2780996295        5.9289728873       14.1204069866  W2        5833            0.0000000000
     16568      5523  TIP3      H1            -22.9306896295        6.6235328873       14.2094969866  W2        5833            0.0000000000
     16569      5523  TIP3      H2            -21.8130696295        6.1390628873       13.3105669866  W2        5833            0.0000000000
     16570      5524  TIP3      OH2           -26.2417196295        6.7604528873        6.7785569866  W2        5834            0.0000000000
     16571      5524  TIP3      H1            -26.9736196295        6.9888228873        7.3516169866  W2        5834            0.0000000000
     16572      5524  TIP3      H2            -25.7944996295        6.0467228873        7.2333069866  W2        5834            0.0000000000
     16573      5525  TIP3      OH2           -26.3443696295        4.9347128873       15.8462569866  W2        5835            0.0000000000
     16574      5525  TIP3      H1            -26.2644596295        5.6981528873       16.4181069866  W2        5835            0.0000000000
     16575      5525  TIP3      H2            -26.9455996295        5.2139528873       15.1557669866  W2        5835            0.0000000000
     16576      5526  TIP3      OH2           -34.5963496295        7.3910728873        8.6610569866  W2        5836            0.0000000000
     16577      5526  TIP3      H1            -34.9268296295        7.0204128873        7.8427569866  W2        5836            0.0000000000
     16578      5526  TIP3      H2            -34.0079396295        6.7204728873        9.0078869866  W2        5836            0.0000000000
     16579      5527  TIP3      OH2           -33.2295996295       10.8191328873       11.3422769866  W2        5837            0.0000000000
     16580      5527  TIP3      H1            -33.3244696295       10.2404428873       10.5857369866  W2        5837            0.0000000000
     16581      5527  TIP3      H2            -32.5002396295       10.4477028873       11.8385569866  W2        5837            0.0000000000
     16582      5528  TIP3      OH2           -34.2297996295        6.1596328873       12.2945569866  W2        5838            0.0000000000
     16583      5528  TIP3      H1            -33.6645496295        6.2810528873       11.5316769866  W2        5838            0.0000000000
     16584      5528  TIP3      H2            -33.9109096295        6.7971328873       12.9334069866  W2        5838            0.0000000000
     16585      5529  TIP3      OH2           -27.9205796295       11.6628228873       13.0286069866  W2        5839            0.0000000000
     16586      5529  TIP3      H1            -28.1609196295       12.3251328873       13.6765269866  W2        5839            0.0000000000
     16587      5529  TIP3      H2            -28.1187596295       10.8283428873       13.4535669866  W2        5839            0.0000000000
     16588      5530  TIP3      OH2           -33.3497296295       10.5589028873       17.0117469866  W2        5840            0.0000000000
     16589      5530  TIP3      H1            -33.6609796295       11.3412228873       17.4670669866  W2        5840            0.0000000000
     16590      5530  TIP3      H2            -33.9997096295       10.4058128873       16.3259469866  W2        5840            0.0000000000
     16591      5531  TIP3      OH2           -27.3707696295        5.9227428873        4.4636769866  W2        5841            0.0000000000
     16592      5531  TIP3      H1            -26.7912196295        6.0727728873        5.2105669866  W2        5841            0.0000000000
     16593      5531  TIP3      H2            -26.9567696295        6.3934828873        3.7403169866  W2        5841            0.0000000000
     16594      5532  TIP3      OH2           -36.4297396295        6.7570128873       16.2403169866  W2        5842            0.0000000000
     16595      5532  TIP3      H1            -36.3594196295        7.4076928873       16.9388169866  W2        5842            0.0000000000
     16596      5532  TIP3      H2            -37.3205196295        6.8597628873       15.9054069866  W2        5842            0.0000000000
     16597      5533  TIP3      OH2           -29.6442796295       12.6595928873        7.8989869866  W2        5843            0.0000000000
     16598      5533  TIP3      H1            -29.1705196295       12.9552228873        8.6764069866  W2        5843            0.0000000000
     16599      5533  TIP3      H2            -30.2073496295       13.3977528873        7.6659469866  W2        5843            0.0000000000
     16600      5534  TIP3      OH2           -23.6719296295       -2.3272171127        4.2766469866  W2        5845            0.0000000000
     16601      5534  TIP3      H1            -24.5718596295       -2.1883171127        4.5717069866  W2        5845            0.0000000000
     16602      5534  TIP3      H2            -23.4200896295       -1.4957571127        3.8748169866  W2        5845            0.0000000000
     16603      5535  TIP3      OH2           -35.6060796295        6.4605028873        6.2503369866  W2        5846            0.0000000000
     16604      5535  TIP3      H1            -35.8979496295        7.2286728873        5.7594669866  W2        5846            0.0000000000
     16605      5535  TIP3      H2            -36.2805596295        5.8011228873        6.0874769866  W2        5846            0.0000000000
     16606      5536  TIP3      OH2           -22.4827896295       12.0390228873        2.6530369866  W2        5847            0.0000000000
     16607      5536  TIP3      H1            -22.4094396295       12.9780428873        2.8235669866  W2        5847            0.0000000000
     16608      5536  TIP3      H2            -21.5772796295       11.7338828873        2.5967669866  W2        5847            0.0000000000
     16609      5537  TIP3      OH2           -39.5130696295        8.8234228873       15.0653169866  W2        5848            0.0000000000
     16610      5537  TIP3      H1            -40.0142296295        8.7953628873       14.2502869866  W2        5848            0.0000000000
     16611      5537  TIP3      H2            -39.5076996295        7.9177428873       15.3750469866  W2        5848            0.0000000000
     16612      5538  TIP3      OH2           -39.7627996295       11.6038028873       11.9493369866  W2        5849            0.0000000000
     16613      5538  TIP3      H1            -38.8167396295       11.4595028873       11.9302869866  W2        5849            0.0000000000
     16614      5538  TIP3      H2            -39.8751696295       12.3880828873       12.4864569866  W2        5849            0.0000000000
     16615      5539  TIP3      OH2           -30.5865496295       11.8436928873       16.5078469866  W2        5851            0.0000000000
     16616      5539  TIP3      H1            -30.4990896295       12.6701528873       16.9827569866  W2        5851            0.0000000000
     16617      5539  TIP3      H2            -31.4500396295       11.5140728873       16.7567769866  W2        5851            0.0000000000
     16618      5540  TIP3      OH2           -30.1719696295       15.6160628873        6.3139069866  W2        5852            0.0000000000
     16619      5540  TIP3      H1            -30.2473696295       15.4947828873        5.3674269866  W2        5852            0.0000000000
     16620      5540  TIP3      H2            -30.1390996295       16.5653328873        6.4323669866  W2        5852            0.0000000000
     16621      5541  TIP3      OH2           -36.5185896295       14.4047628873        8.0948069866  W2        5853            0.0000000000
     16622      5541  TIP3      H1            -36.3665496295       14.0568028873        8.9734569866  W2        5853            0.0000000000
     16623      5541  TIP3      H2            -37.3695496295       14.0484928873        7.8395269866  W2        5853            0.0000000000
     16624      5542  TIP3      OH2           -27.0703696295       14.7700828873        3.3161469866  W2        5854            0.0000000000
     16625      5542  TIP3      H1            -26.6955296295       14.0256928873        2.8454069866  W2        5854            0.0000000000
     16626      5542  TIP3      H2            -27.0659996295       14.5001428873        4.2344769866  W2        5854            0.0000000000
     16627      5543  TIP3      OH2           -27.4015596295       14.6957928873        6.0653669866  W2        5855            0.0000000000
     16628      5543  TIP3      H1            -28.3365796295       14.7959828873        6.2440669866  W2        5855            0.0000000000
     16629      5543  TIP3      H2            -27.1213696295       13.9863928873        6.6436869866  W2        5855            0.0000000000
     16630      5544  TIP3      OH2           -37.2640196295       10.1469628873       16.1085969866  W2        5857            0.0000000000
     16631      5544  TIP3      H1            -37.0478896295        9.7855228873       16.9681769866  W2        5857            0.0000000000
     16632      5544  TIP3      H2            -38.1195496295        9.7723428873       15.8989469866  W2        5857            0.0000000000
     16633      5545  TIP3      OH2           -34.6452196295       -1.3829871127       12.1040169866  W2        5858            0.0000000000
     16634      5545  TIP3      H1            -35.5068496295       -1.4701671127       11.6963069866  W2        5858            0.0000000000
     16635      5545  TIP3      H2            -34.6676496295       -0.5269771127       12.5317769866  W2        5858            0.0000000000
     16636      5546  TIP3      OH2           -29.9824396295       -1.6609471127       15.4787169866  W2        5859            0.0000000000
     16637      5546  TIP3      H1            -29.5621296295       -2.0762371127       16.2317769866  W2        5859            0.0000000000
     16638      5546  TIP3      H2            -30.9154796295       -1.8396171127       15.5959169866  W2        5859            0.0000000000
     16639      5547  TIP3      OH2           -26.6559496295        2.0945728873       16.3321669866  W2        5860            0.0000000000
     16640      5547  TIP3      H1            -27.1699996295        1.9687928873       17.1297669866  W2        5860            0.0000000000
     16641      5547  TIP3      H2            -26.8114796295        3.0068828873       16.0877869866  W2        5860            0.0000000000
     16642      5548  TIP3      OH2           -25.8934596295        6.9555728873        2.0934669866  W2        5861            0.0000000000
     16643      5548  TIP3      H1            -25.8513796295        6.7329628873        1.1634669866  W2        5861            0.0000000000
     16644      5548  TIP3      H2            -25.0442496295        7.3542828873        2.2834569866  W2        5861            0.0000000000
     16645      5549  TIP3      OH2           -30.3207096295        0.8313928873        2.7637969866  W2        5862            0.0000000000
     16646      5549  TIP3      H1            -30.5742296295        0.8505528873        3.6866069866  W2        5862            0.0000000000
     16647      5549  TIP3      H2            -30.5774996295       -0.0400671127        2.4624169866  W2        5862            0.0000000000
     16648      5550  TIP3      OH2           -34.5542096295        3.5824628873       13.1990369866  W2        5863            0.0000000000
     16649      5550  TIP3      H1            -35.1959996295        3.5421928873       13.9080469866  W2        5863            0.0000000000
     16650      5550  TIP3      H2            -34.5170096295        4.5089328873       12.9613369866  W2        5863            0.0000000000
     16651      5551  TIP3      OH2           -34.5572996295        3.8034728873        8.1110369866  W2        5864            0.0000000000
     16652      5551  TIP3      H1            -35.4500096295        3.4630828873        8.0524169866  W2        5864            0.0000000000
     16653      5551  TIP3      H2            -34.1066396295        3.4265628873        7.3553569866  W2        5864            0.0000000000
     16654      5552  TIP3      OH2           -29.0217496295        4.2195028873        6.9281169866  W2        5865            0.0000000000
     16655      5552  TIP3      H1            -29.4307196295        5.0343628873        6.6365969866  W2        5865            0.0000000000
     16656      5552  TIP3      H2            -28.3011296295        4.0795128873        6.3138269866  W2        5865            0.0000000000
     16657      5553  TIP3      OH2           -28.0169796295        3.6655428873        9.7420869866  W2        5867            0.0000000000
     16658      5553  TIP3      H1            -28.2125296295        4.2712228873        9.0271469866  W2        5867            0.0000000000
     16659      5553  TIP3      H2            -27.8357196295        2.8320628873        9.3077169866  W2        5867            0.0000000000
     16660      5554  TIP3      OH2           -36.8041596295        3.9028128873       15.0662369866  W2        5868            0.0000000000
     16661      5554  TIP3      H1            -36.8422196295        4.3029728873       15.9349469866  W2        5868            0.0000000000
     16662      5554  TIP3      H2            -37.2950496295        3.0860528873       15.1565269866  W2        5868            0.0000000000
     16663      5555  TIP3      OH2           -33.4384196295        1.2770428873        1.8648369866  W2        5869            0.0000000000
     16664      5555  TIP3      H1            -33.8693496295        0.8320528873        2.5945769866  W2        5869            0.0000000000
     16665      5555  TIP3      H2            -34.1565496295        1.6486728873        1.3525869866  W2        5869            0.0000000000
     16666      5556  TIP3      OH2           -40.1960796295        1.0189928873        8.9167069866  W2        5870            0.0000000000
     16667      5556  TIP3      H1            -39.5653096295        0.9902028873        9.6360969866  W2        5870            0.0000000000
     16668      5556  TIP3      H2            -39.7466496295        0.5938628873        8.1862969866  W2        5870            0.0000000000
     16669      5557  TIP3      OH2           -38.9218696295        1.7651928873        4.3407469866  W2        5871            0.0000000000
     16670      5557  TIP3      H1            -38.4476996295        2.3561828873        3.7558369866  W2        5871            0.0000000000
     16671      5557  TIP3      H2            -39.6392296295        2.2954828873        4.6877569866  W2        5871            0.0000000000
     16672      5558  TIP3      OH2           -28.7530596295        5.3036728873       14.4133269866  W2        5872            0.0000000000
     16673      5558  TIP3      H1            -28.4295796295        4.6726428873       13.7703769866  W2        5872            0.0000000000
     16674      5558  TIP3      H2            -29.1931296295        4.7688928873       15.0740669866  W2        5872            0.0000000000
     16675      5559  TIP3      OH2           -31.9757696295        1.2312228873        9.1974469866  W2        5873            0.0000000000
     16676      5559  TIP3      H1            -32.8866596295        1.2879028873        9.4860469866  W2        5873            0.0000000000
     16677      5559  TIP3      H2            -31.4704796295        1.1707728873       10.0081669866  W2        5873            0.0000000000
     16678      5560  TIP3      OH2           -37.1474296295        2.8598528873        8.0242069866  W2        5874            0.0000000000
     16679      5560  TIP3      H1            -38.0366296295        2.9594028873        7.6841669866  W2        5874            0.0000000000
     16680      5560  TIP3      H2            -36.8509396295        2.0181528873        7.6779969866  W2        5874            0.0000000000
     16681      5561  TIP3      OH2           -33.4942496295        2.8601128873        5.6806669866  W2        5875            0.0000000000
     16682      5561  TIP3      H1            -32.5626996295        2.9891128873        5.8589769866  W2        5875            0.0000000000
     16683      5561  TIP3      H2            -33.7092196295        3.5295428873        5.0311369866  W2        5875            0.0000000000
     16684      5562  TIP3      OH2           -27.5705796295        0.4658528873       12.4616269866  W2        5876            0.0000000000
     16685      5562  TIP3      H1            -28.2474196295        0.5971628873       13.1255969866  W2        5876            0.0000000000
     16686      5562  TIP3      H2            -28.0560896295        0.3108028873       11.6513969866  W2        5876            0.0000000000
     16687      5563  TIP3      OH2           -34.8202296295        4.0543328873        3.2472769866  W2        5877            0.0000000000
     16688      5563  TIP3      H1            -35.3627196295        3.6747128873        2.5560369866  W2        5877            0.0000000000
     16689      5563  TIP3      H2            -33.9867396295        4.2488028873        2.8186869866  W2        5877            0.0000000000
     16690      5564  TIP3      OH2           -30.6557996295        4.0185228873       11.0844069866  W2        5880            0.0000000000
     16691      5564  TIP3      H1            -30.0914596295        3.4721828873       10.5373669866  W2        5880            0.0000000000
     16692      5564  TIP3      H2            -30.8034596295        3.4967128873       11.8731669866  W2        5880            0.0000000000
     16693      5565  TIP3      OH2           -35.6538296295        0.1551328873        7.5028869866  W2        5881            0.0000000000
     16694      5565  TIP3      H1            -35.9708796295       -0.7473371127        7.4674269866  W2        5881            0.0000000000
     16695      5565  TIP3      H2            -34.8724196295        0.1568728873        6.9500469866  W2        5881            0.0000000000
     16696      5566  TIP3      OH2           -32.0292096295        2.4071328873       13.4984469866  W2        5882            0.0000000000
     16697      5566  TIP3      H1            -32.8646796295        2.8610828873       13.6086869866  W2        5882            0.0000000000
     16698      5566  TIP3      H2            -31.5051496295        2.6829828873       14.2504369866  W2        5882            0.0000000000
     16699      5567  TIP3      OH2           -31.4849496295        8.6199028873        5.1830869866  W2        5883            0.0000000000
     16700      5567  TIP3      H1            -32.2298496295        8.1124328873        4.8608769866  W2        5883            0.0000000000
     16701      5567  TIP3      H2            -31.6192296295        8.6687028873        6.1295669866  W2        5883            0.0000000000
     16702      5568  TIP3      OH2           -24.3350596295        7.7527228873       13.9698469866  W2        5884            0.0000000000
     16703      5568  TIP3      H1            -23.6931796295        8.2093528873       13.4260669866  W2        5884            0.0000000000
     16704      5568  TIP3      H2            -25.1653696295        7.8659628873       13.5072569866  W2        5884            0.0000000000
     16705      5569  TIP3      OH2           -27.5872696295        1.4338928873        3.3823469866  W2        5885            0.0000000000
     16706      5569  TIP3      H1            -28.5258496295        1.5454528873        3.2312269866  W2        5885            0.0000000000
     16707      5569  TIP3      H2            -27.2900596295        2.2905828873        3.6889169866  W2        5885            0.0000000000
     16708      5570  TIP3      OH2           -29.9657396295        8.8042328873       16.4199969866  W2        5886            0.0000000000
     16709      5570  TIP3      H1            -30.3111296295        8.4224728873       17.2269569866  W2        5886            0.0000000000
     16710      5570  TIP3      H2            -30.1657296295        9.7375928873       16.4912869866  W2        5886            0.0000000000
     16711      5571  TIP3      OH2           -26.8689196295        3.3011628873        5.0430869866  W2        5887            0.0000000000
     16712      5571  TIP3      H1            -25.9770196295        3.1636628873        5.3622069866  W2        5887            0.0000000000
     16713      5571  TIP3      H2            -26.8125596295        4.0917728873        4.5064369866  W2        5887            0.0000000000
     16714      5572  TIP3      OH2           -36.3601196295        7.9149028873       10.9528769866  W2        5888            0.0000000000
     16715      5572  TIP3      H1            -35.6153996295        7.9124728873       10.3515269866  W2        5888            0.0000000000
     16716      5572  TIP3      H2            -36.2824596295        7.0912828873       11.4343869866  W2        5888            0.0000000000
     16717      5573  TIP3      OH2           -29.3595396295       10.0783328873        4.2085469866  W2        5889            0.0000000000
     16718      5573  TIP3      H1            -29.6546996295       10.9051228873        4.5900269866  W2        5889            0.0000000000
     16719      5573  TIP3      H2            -30.0625396295        9.4590228873        4.4046869866  W2        5889            0.0000000000
     16720      5574  TIP3      OH2           -39.3521496295        6.3755928873       16.2677269866  W2        5890            0.0000000000
     16721      5574  TIP3      H1            -39.1292896295        5.9575528873       17.0994769866  W2        5890            0.0000000000
     16722      5574  TIP3      H2            -39.9541396295        5.7630928873       15.8450069866  W2        5890            0.0000000000
     16723      5575  TIP3      OH2           -27.7153796295       11.2657828873       16.3704969866  W2        5892            0.0000000000
     16724      5575  TIP3      H1            -28.6159496295       11.4490428873       16.1028869866  W2        5892            0.0000000000
     16725      5575  TIP3      H2            -27.6812696295       11.5247128873       17.2913769866  W2        5892            0.0000000000
     16726      5576  TIP3      OH2           -21.9840496295        3.5105728873        4.7377569866  W2        5893            0.0000000000
     16727      5576  TIP3      H1            -22.5384196295        3.1143728873        4.0655069866  W2        5893            0.0000000000
     16728      5576  TIP3      H2            -21.8836896295        4.4210928873        4.4600869866  W2        5893            0.0000000000
     16729      5577  TIP3      OH2           -23.6888796295       12.2966128873        5.2029669866  W2        5895            0.0000000000
     16730      5577  TIP3      H1            -24.0617696295       11.4709928873        5.5120269866  W2        5895            0.0000000000
     16731      5577  TIP3      H2            -23.4115296295       12.1135528873        4.3053069866  W2        5895            0.0000000000
     16732      5578  TIP3      OH2           -26.5284896295        7.1045628873       12.2241569866  W2        5896            0.0000000000
     16733      5578  TIP3      H1            -27.4567996295        6.8727528873       12.1970869866  W2        5896            0.0000000000
     16734      5578  TIP3      H2            -26.0773796295        6.3275428873       11.8940369866  W2        5896            0.0000000000
     16735      5579  TIP3      OH2           -33.9851796295       11.4327228873        8.3570269866  W2        5897            0.0000000000
     16736      5579  TIP3      H1            -33.4579596295       12.2061628873        8.1569069866  W2        5897            0.0000000000
     16737      5579  TIP3      H2            -34.8653296295       11.6576428873        8.0554269866  W2        5897            0.0000000000
     16738      5580  TIP3      OH2           -38.2304096295        6.2951328873        2.9442669866  W2        5898            0.0000000000
     16739      5580  TIP3      H1            -37.6144196295        6.9218528873        3.3237469866  W2        5898            0.0000000000
     16740      5580  TIP3      H2            -39.0921496295        6.6111128873        3.2159169866  W2        5898            0.0000000000
     16741      5581  TIP3      OH2           -32.5579496295        9.0957128873        7.9334569866  W2        5899            0.0000000000
     16742      5581  TIP3      H1            -32.7989496295       10.0211528873        7.9749869866  W2        5899            0.0000000000
     16743      5581  TIP3      H2            -33.2985896295        8.6368428873        8.3298469866  W2        5899            0.0000000000
     16744      5582  TIP3      OH2           -32.0432896295       13.2450728873       14.2485669866  W2        5900            0.0000000000
     16745      5582  TIP3      H1            -31.6808196295       14.0996328873       14.0150069866  W2        5900            0.0000000000
     16746      5582  TIP3      H2            -31.5117696295       12.9532328873       14.9891969866  W2        5900            0.0000000000
     16747      5583  TIP3      OH2           -33.8748696295       14.1174728873        7.4786769866  W2        5901            0.0000000000
     16748      5583  TIP3      H1            -34.8248196295       14.2232128873        7.5300069866  W2        5901            0.0000000000
     16749      5583  TIP3      H2            -33.5230596295       14.9382128873        7.8234269866  W2        5901            0.0000000000
     16750      5584  TIP3      OH2           -28.4992096295        9.3441428873       13.9491269866  W2        5902            0.0000000000
     16751      5584  TIP3      H1            -28.9250796295        9.1163128873       14.7755269866  W2        5902            0.0000000000
     16752      5584  TIP3      H2            -27.9186296295        8.6053228873       13.7666569866  W2        5902            0.0000000000
     16753      5585  TIP3      OH2           -26.2963196295       10.2731928873        3.0230269866  W2        5903            0.0000000000
     16754      5585  TIP3      H1            -25.9430096295        9.8931728873        3.8273769866  W2        5903            0.0000000000
     16755      5585  TIP3      H2            -27.2449696295       10.1796728873        3.1099569866  W2        5903            0.0000000000
     16756      5586  TIP3      OH2           -25.8407896295       13.8960928873       16.4186069866  W2        5904            0.0000000000
     16757      5586  TIP3      H1            -26.4424696295       13.3403828873       15.9232369866  W2        5904            0.0000000000
     16758      5586  TIP3      H2            -25.5594196295       14.5630728873       15.7923469866  W2        5904            0.0000000000
     16759      5587  TIP3      OH2           -21.7928796295       14.7524428873        3.2240469866  W2        5905            0.0000000000
     16760      5587  TIP3      H1            -21.0490896295       15.3384928873        3.0842069866  W2        5905            0.0000000000
     16761      5587  TIP3      H2            -22.4870696295       15.3210228873        3.5572869866  W2        5905            0.0000000000
     16762      5588  TIP3      OH2           -37.7181996295        1.1288628873       15.8258669866  W2        5906            0.0000000000
     16763      5588  TIP3      H1            -38.6109696295        1.4674028873       15.7582669866  W2        5906            0.0000000000
     16764      5588  TIP3      H2            -37.8169196295        0.2734728873       16.2439469866  W2        5906            0.0000000000
     16765      5589  TIP3      OH2           -25.4303896295        8.9453928873        5.2498169866  W2        5907            0.0000000000
     16766      5589  TIP3      H1            -25.7076296295        8.2173228873        5.8059269866  W2        5907            0.0000000000
     16767      5589  TIP3      H2            -24.5030896295        9.0645928873        5.4550769866  W2        5907            0.0000000000
     16768      5590  TIP3      OH2           -38.0669996295       12.9333028873       14.2608069866  W2        5908            0.0000000000
     16769      5590  TIP3      H1            -37.8499696295       12.0015428873       14.2297769866  W2        5908            0.0000000000
     16770      5590  TIP3      H2            -37.8206496295       13.2078028873       15.1440869866  W2        5908            0.0000000000
     16771      5591  TIP3      OH2           -32.2055396295       11.3848028873        1.4700269866  W2        5909            0.0000000000
     16772      5591  TIP3      H1            -31.9665596295       10.6366128873        0.9229169866  W2        5909            0.0000000000
     16773      5591  TIP3      H2            -32.4744096295       10.9969728873        2.3028069866  W2        5909            0.0000000000
     16774      5592  TIP3      OH2           -33.2684796295       10.9551828873        3.9262869866  W2        5910            0.0000000000
     16775      5592  TIP3      H1            -33.1216796295       10.4351628873        4.7163769866  W2        5910            0.0000000000
     16776      5592  TIP3      H2            -33.2713096295       11.8619428873        4.2328769866  W2        5910            0.0000000000
     16777      5593  TIP3      OH2           -36.8153696295        8.2075128873        4.4368269866  W2        5911            0.0000000000
     16778      5593  TIP3      H1            -37.5014396295        8.5597628873        5.0037969866  W2        5911            0.0000000000
     16779      5593  TIP3      H2            -36.2925796295        8.9704728873        4.1902569866  W2        5911            0.0000000000
     16780      5594  TIP3      OH2           -28.9838596295        0.8698928873       14.7157269866  W2        5912            0.0000000000
     16781      5594  TIP3      H1            -28.2850696295        0.9437628873       15.3656969866  W2        5912            0.0000000000
     16782      5594  TIP3      H2            -29.3647196295        0.0053928873       14.8700169866  W2        5912            0.0000000000
     16783      5595  TIP3      OH2           -28.1993696295        0.5220628873        5.8129569866  W2        5913            0.0000000000
     16784      5595  TIP3      H1            -27.9795396295        0.9936028873        5.0094969866  W2        5913            0.0000000000
     16785      5595  TIP3      H2            -27.6409696295        0.9163228873        6.4830169866  W2        5913            0.0000000000
     16786      5596  TIP3      OH2           -30.5307596295       12.6525428873        4.6757069866  W2        5914            0.0000000000
     16787      5596  TIP3      H1            -31.3471496295       13.1495128873        4.7281369866  W2        5914            0.0000000000
     16788      5596  TIP3      H2            -30.0011296295       13.1278928873        4.0355869866  W2        5914            0.0000000000
     16789      5597  TIP3      OH2           -30.9993796295        2.2499428873        6.6477969866  W2        5915            0.0000000000
     16790      5597  TIP3      H1            -30.1871196295        2.7542628873        6.6939669866  W2        5915            0.0000000000
     16791      5597  TIP3      H2            -31.2440796295        2.1049128873        7.5617569866  W2        5915            0.0000000000
     16792      5598  TIP3      OH2           -30.4637396295        3.2362128873       15.8324569866  W2        5916            0.0000000000
     16793      5598  TIP3      H1            -30.3447096295        3.8097528873       16.5894969866  W2        5916            0.0000000000
     16794      5598  TIP3      H2            -29.8082796295        2.5481528873       15.9472369866  W2        5916            0.0000000000
     16795      5599  TIP3      OH2           -30.1157096295       -0.6687571127        7.5859069866  W2        5917            0.0000000000
     16796      5599  TIP3      H1            -30.4623596295       -0.0516971127        8.2303369866  W2        5917            0.0000000000
     16797      5599  TIP3      H2            -29.4570196295       -0.1681871127        7.1044569866  W2        5917            0.0000000000
     16798      5600  TIP3      OH2           -33.1924496295       13.6962628873        4.6573969866  W2        5918            0.0000000000
     16799      5600  TIP3      H1            -33.0315796295       14.4960128873        4.1566569866  W2        5918            0.0000000000
     16800      5600  TIP3      H2            -33.3896696295       14.0028628873        5.5424569866  W2        5918            0.0000000000
     16801      5601  TIP3      OH2           -34.4580096295        0.3941828873        4.2731569866  W2        5919            0.0000000000
     16802      5601  TIP3      H1            -34.5415296295        1.2824928873        4.6197969866  W2        5919            0.0000000000
     16803      5601  TIP3      H2            -33.5679796295        0.1288528873        4.5048369866  W2        5919            0.0000000000
     16804      5602  TIP3      OH2           -24.2591596295        1.1432428873       16.6674269866  W2        5920            0.0000000000
     16805      5602  TIP3      H1            -25.1755796295        1.4054128873       16.5797969866  W2        5920            0.0000000000
     16806      5602  TIP3      H2            -23.9236596295        1.1401428873       15.7709569866  W2        5920            0.0000000000
     16807      5603  TIP3      OH2           -25.6570596295        4.8933428873       10.7631569866  W2        5921            0.0000000000
     16808      5603  TIP3      H1            -26.4546196295        4.4783628873       10.4346569866  W2        5921            0.0000000000
     16809      5603  TIP3      H2            -25.2119496295        4.2027128873       11.2542069866  W2        5921            0.0000000000
     16810      5604  TIP3      OH2           -36.1994796295       10.8214028873        3.3336069866  W2        5922            0.0000000000
     16811      5604  TIP3      H1            -35.6073296295       11.5208828873        3.6098469866  W2        5922            0.0000000000
     16812      5604  TIP3      H2            -35.7401796295       10.3883528873        2.6140669866  W2        5922            0.0000000000
     16813      5605  TIP3      OH2           -37.8835596295        3.4857028873        2.4495469866  W2        5923            0.0000000000
     16814      5605  TIP3      H1            -37.9282996295        4.4250128873        2.6282469866  W2        5923            0.0000000000
     16815      5605  TIP3      H2            -38.7712396295        3.2501928873        2.1797569866  W2        5923            0.0000000000
     16816      5606  TIP3      OH2           -24.5705996295       14.1495928873       12.3855069866  W2        5924            0.0000000000
     16817      5606  TIP3      H1            -24.7261696295       14.8280328873       11.7284369866  W2        5924            0.0000000000
     16818      5606  TIP3      H2            -23.6379596295       14.2215228873       12.5885669866  W2        5924            0.0000000000
     16819      5607  TIP3      OH2           -37.0753596295       -1.7326371127       11.1226469866  W2        5925            0.0000000000
     16820      5607  TIP3      H1            -37.3043796295       -1.6733871127       10.1951469866  W2        5925            0.0000000000
     16821      5607  TIP3      H2            -37.5180196295       -2.5240871127       11.4290569866  W2        5925            0.0000000000
     16822      5608  TIP3      OH2           -38.1450296295       12.2080728873        7.2832269866  W2        5926            0.0000000000
     16823      5608  TIP3      H1            -38.9771696295       12.6803428873        7.3103669866  W2        5926            0.0000000000
     16824      5608  TIP3      H2            -37.5991996295       12.7178328873        6.6845369866  W2        5926            0.0000000000
     16825      5609  TIP3      OH2           -30.1673596295       13.2479428873        1.6086269866  W2        5929            0.0000000000
     16826      5609  TIP3      H1            -30.8112596295       12.6168028873        1.9299969866  W2        5929            0.0000000000
     16827      5609  TIP3      H2            -29.4055296295       12.7167428873        1.3769769866  W2        5929            0.0000000000
     16828      5610  TIP3      OH2           -25.5630696295       13.0649328873        1.8424269866  W2        5931            0.0000000000
     16829      5610  TIP3      H1            -25.2800296295       12.2704528873        2.2951169866  W2        5931            0.0000000000
     16830      5610  TIP3      H2            -24.8232796295       13.2980328873        1.2815369866  W2        5931            0.0000000000
     16831      5611  TIP3      OH2           -34.6083396295        8.9744228873        1.6999169866  W2        5933            0.0000000000
     16832      5611  TIP3      H1            -34.5439296295        8.1803828873        2.2305569866  W2        5933            0.0000000000
     16833      5611  TIP3      H2            -33.9554196295        8.8557028873        1.0101169866  W2        5933            0.0000000000
     16834      5612  TIP3      OH2           -29.2559996295       10.0215928873        1.4357169866  W2        5935            0.0000000000
     16835      5612  TIP3      H1            -29.5245896295       10.2018028873        2.3366069866  W2        5935            0.0000000000
     16836      5612  TIP3      H2            -29.4624396295        9.0962128873        1.3042969866  W2        5935            0.0000000000
     16837      5613  TIP3      OH2           -26.5595796295        8.5163928873       16.3833269866  W2        5936            0.0000000000
     16838      5613  TIP3      H1            -25.8140996295        9.1047628873       16.2637269866  W2        5936            0.0000000000
     16839      5613  TIP3      H2            -27.3168996295        9.0983628873       16.4466369866  W2        5936            0.0000000000
     16840      5614  TIP3      OH2           -33.4589596295        6.9470428873        4.0057169866  W2        5938            0.0000000000
     16841      5614  TIP3      H1            -33.9187596295        6.4628728873        4.6915669866  W2        5938            0.0000000000
     16842      5614  TIP3      H2            -33.2040896295        6.2785828873        3.3697669866  W2        5938            0.0000000000
     16843      5615  TIP3      OH2           -34.1700296295        4.8397528873       16.3616769866  W2        5939            0.0000000000
     16844      5615  TIP3      H1            -34.7884196295        5.5144128873       16.6421469866  W2        5939            0.0000000000
     16845      5615  TIP3      H2            -33.8259096295        5.1611428873       15.5282969866  W2        5939            0.0000000000
     16846      5616  TIP3      OH2           -32.3879196295        5.1902228873        2.2680369866  W2        5940            0.0000000000
     16847      5616  TIP3      H1            -32.5684196295        5.0353428873        1.3408669866  W2        5940            0.0000000000
     16848      5616  TIP3      H2            -31.4378696295        5.2980928873        2.3128269866  W2        5940            0.0000000000
     16849      5617  TIP3      OH2           -22.9980896295        7.5446428873        1.7138469866  W2        5942            0.0000000000
     16850      5617  TIP3      H1            -23.2716096295        7.1201928873        0.9006769866  W2        5942            0.0000000000
     16851      5617  TIP3      H2            -22.9586796295        8.4760928873        1.4968869866  W2        5942            0.0000000000
     16852      5618  TIP3      OH2           -33.8306596295        2.1948328873       17.4439869866  W2        5943            0.0000000000
     16853      5618  TIP3      H1            -33.6805696295        1.4659628873       16.8419569866  W2        5943            0.0000000000
     16854      5618  TIP3      H2            -33.8284196295        2.9720028873       16.8852069866  W2        5943            0.0000000000
     16855      5619  TIP3      OH2           -33.4180896295        0.5644128873       14.9367269866  W2        5944            0.0000000000
     16856      5619  TIP3      H1            -32.8823396295        1.0160828873       14.2846569866  W2        5944            0.0000000000
     16857      5619  TIP3      H2            -34.2701296295        0.4563928873       14.5141369866  W2        5944            0.0000000000
     16858      5620  TIP3      OH2           -31.8362496295        6.0040328873       15.1762469866  W2        5945            0.0000000000
     16859      5620  TIP3      H1            -31.0857696295        5.8477828873       14.6030269866  W2        5945            0.0000000000
     16860      5620  TIP3      H2            -32.1754196295        6.8556928873       14.9007969866  W2        5945            0.0000000000
     16861      5621  TIP3      OH2           -32.6125396295       -1.9790171127       15.3680869866  W2        5949            0.0000000000
     16862      5621  TIP3      H1            -32.7105796295       -1.0326971127       15.2627069866  W2        5949            0.0000000000
     16863      5621  TIP3      H2            -33.3549196295       -2.3516371127       14.8924369866  W2        5949            0.0000000000
     16864      5622  TIP3      OH2           -32.4907496295       15.8805928873        3.2693969866  W2        5956            0.0000000000
     16865      5622  TIP3      H1            -31.5576796295       16.0384628873        3.4132369866  W2        5956            0.0000000000
     16866      5622  TIP3      H2            -32.7548696295       16.5558928873        2.6445469866  W2        5956            0.0000000000
     16867      5623  TIP3      OH2           -38.9222596295       10.5169728873        2.7522069866  W2        5957            0.0000000000
     16868      5623  TIP3      H1            -38.0083396295       10.5958628873        3.0255969866  W2        5957            0.0000000000
     16869      5623  TIP3      H2            -38.9149496295        9.8299328873        2.0857669866  W2        5957            0.0000000000
     16870      5624  TIP3      OH2           -40.2731996295       15.9098228873        7.8295969866  W2        5958            0.0000000000
     16871      5624  TIP3      H1            -40.9204896295       15.4479928873        7.2967169866  W2        5958            0.0000000000
     16872      5624  TIP3      H2            -39.9187396295       15.2381528873        8.4122169866  W2        5958            0.0000000000
     16873      5625  TIP3      OH2           -39.4032796295       13.9905228873        9.6342169866  W2        5959            0.0000000000
     16874      5625  TIP3      H1            -39.7375996295       13.1102528873        9.8062369866  W2        5959            0.0000000000
     16875      5625  TIP3      H2            -39.1810396295       14.3360228873       10.4987769866  W2        5959            0.0000000000
     16876      5626  TIP3      OH2           -21.8547996295       14.8001628873       12.6146969866  W2        5960            0.0000000000
     16877      5626  TIP3      H1            -21.8761296295       14.9850028873       13.5536369866  W2        5960            0.0000000000
     16878      5626  TIP3      H2            -21.1641796295       15.3685628873       12.2738369866  W2        5960            0.0000000000
     16879      5627  TIP3      OH2           -22.2915096295       14.3672728873       15.5366069866  W2        5961            0.0000000000
     16880      5627  TIP3      H1            -22.7786396295       13.6316828873       15.1653469866  W2        5961            0.0000000000
     16881      5627  TIP3      H2            -21.7422396295       13.9736628873       16.2145469866  W2        5961            0.0000000000
     16882      5628  TIP3      OH2           -22.5398096295        8.4134528873        5.6888869866  W2        5963            0.0000000000
     16883      5628  TIP3      H1            -21.6896696295        8.8345428873        5.8160469866  W2        5963            0.0000000000
     16884      5628  TIP3      H2            -22.5342996295        7.6734628873        6.2960269866  W2        5963            0.0000000000
     16885      5629  TIP3      OH2           -22.1452496295        6.4671928873        7.5124569866  W2        5964            0.0000000000
     16886      5629  TIP3      H1            -22.8717896295        5.9874528873        7.9102169866  W2        5964            0.0000000000
     16887      5629  TIP3      H2            -21.5639196295        6.6726628873        8.2446169866  W2        5964            0.0000000000
     16888      5630  TIP3      OH2           -22.3861296295        9.2519428873       12.4602169866  W2        5965            0.0000000000
     16889      5630  TIP3      H1            -21.5527096295        8.8739428873       12.1795769866  W2        5965            0.0000000000
     16890      5630  TIP3      H2            -22.2740996295       10.1950628873       12.3411269866  W2        5965            0.0000000000
     16891      5631  TIP3      OH2           -23.8998996295       12.1296928873       14.7670569866  W2        5966            0.0000000000
     16892      5631  TIP3      H1            -24.5473696295       12.4548428873       15.3925769866  W2        5966            0.0000000000
     16893      5631  TIP3      H2            -24.4174996295       11.6894628873       14.0928869866  W2        5966            0.0000000000
     16894      5632  TIP3      OH2           -21.8769396295        6.3680428873        3.9035869866  W2        5967            0.0000000000
     16895      5632  TIP3      H1            -22.3988296295        6.7244528873        3.1846769866  W2        5967            0.0000000000
     16896      5632  TIP3      H2            -21.9100196295        7.0428228873        4.5816769866  W2        5967            0.0000000000
     16897      5633  TIP3      OH2           -23.5280396295        3.6076028873        2.4542969866  W2        5968            0.0000000000
     16898      5633  TIP3      H1            -23.4315996295        4.2743028873        1.7742669866  W2        5968            0.0000000000
     16899      5633  TIP3      H2            -23.6680796295        2.7922328873        1.9728469866  W2        5968            0.0000000000
     16900      5634  TIP3      OH2           -24.3585696295        4.9878428873        8.0753269866  W2        5969            0.0000000000
     16901      5634  TIP3      H1            -24.5086896295        4.0427028873        8.0551069866  W2        5969            0.0000000000
     16902      5634  TIP3      H2            -24.7121196295        5.2689828873        8.9192369866  W2        5969            0.0000000000
     16903      5635  TIP3      OH2           -39.3233296295        7.0660628873       12.0857069866  W2        5970            0.0000000000
     16904      5635  TIP3      H1            -39.1390396295        6.9842328873       11.1499969866  W2        5970            0.0000000000
     16905      5635  TIP3      H2            -38.4740396295        6.9417628873       12.5093469866  W2        5970            0.0000000000
     16906      5636  TIP3      OH2           -24.2806596295        1.0155828873        1.5718469866  W2        5973            0.0000000000
     16907      5636  TIP3      H1            -23.6700796295        0.6442628873        2.2086669866  W2        5973            0.0000000000
     16908      5636  TIP3      H2            -25.1175096295        0.5942728873        1.7678469866  W2        5973            0.0000000000
     16909      5637  TIP3      OH2           -24.6480896295        2.5704228873        6.5378369866  W2        5974            0.0000000000
     16910      5637  TIP3      H1            -24.3683796295        1.6634628873        6.6620069866  W2        5974            0.0000000000
     16911      5637  TIP3      H2            -23.8889196295        3.0045728873        6.1487569866  W2        5974            0.0000000000
     16912      5638  TIP3      OH2           -24.0362596295        3.1521628873       11.9737269866  W2        5975            0.0000000000
     16913      5638  TIP3      H1            -23.1034596295        3.3641528873       11.9393269866  W2        5975            0.0000000000
     16914      5638  TIP3      H2            -24.2715096295        3.2533728873       12.8960269866  W2        5975            0.0000000000
     16915      5639  TIP3      OH2           -24.0070696295        3.8886928873       14.7496669866  W2        5976            0.0000000000
     16916      5639  TIP3      H1            -24.8499396295        4.1567328873       15.1156469866  W2        5976            0.0000000000
     16917      5639  TIP3      H2            -23.5646396295        4.7108828873       14.5387769866  W2        5976            0.0000000000
     16918      5640  TIP3      OH2           -24.0346096295       -0.1666471127        6.5860369866  W2        5979            0.0000000000
     16919      5640  TIP3      H1            -23.8521096295       -0.6154971127        7.4115369866  W2        5979            0.0000000000
     16920      5640  TIP3      H2            -24.6343196295       -0.7512071127        6.1224969866  W2        5979            0.0000000000
     16921      5641  TIP3      OH2           -38.5045996295        0.6487228873       11.1178769866  W2        5980            0.0000000000
     16922      5641  TIP3      H1            -38.0594396295       -0.1430271127       11.4198469866  W2        5980            0.0000000000
     16923      5641  TIP3      H2            -38.0382996295        1.3652428873       11.5484369866  W2        5980            0.0000000000
     16924      5642  TIP3      OH2           -40.2005696295        3.6480228873       12.1868969866  W2        5981            0.0000000000
     16925      5642  TIP3      H1            -39.7085896295        3.4270728873       11.3960969866  W2        5981            0.0000000000
     16926      5642  TIP3      H2            -39.8384796295        4.4883628873       12.4678469866  W2        5981            0.0000000000
     16927      5643  TIP3      OH2           -22.1679896295       -0.0988371127        3.1140669866  W2        5983            0.0000000000
     16928      5643  TIP3      H1            -21.7557296295       -0.8202671127        2.6388669866  W2        5983            0.0000000000
     16929      5643  TIP3      H2            -21.4863396295        0.5706228873        3.1724969866  W2        5983            0.0000000000
     16930      5644  TIP3      OH2           -39.8869196295       -0.0940671127        6.2411369866  W2        5984            0.0000000000
     16931      5644  TIP3      H1            -40.8120796295        0.1145928873        6.1116869866  W2        5984            0.0000000000
     16932      5644  TIP3      H2            -39.4329296295        0.3900128873        5.5513669866  W2        5984            0.0000000000
     16933      5645  TIP3      OH2           -25.1161996295       14.8901028873        8.1868769866  W2        5985            0.0000000000
     16934      5645  TIP3      H1            -24.4639096295       14.5423128873        7.5787869866  W2        5985            0.0000000000
     16935      5645  TIP3      H2            -24.6058196295       15.3784228873        8.8328469866  W2        5985            0.0000000000
     16936      5646  TIP3      OH2           -39.9233796295       -1.3561671127       14.5853869866  W2        5986            0.0000000000
     16937      5646  TIP3      H1            -40.5883296295       -1.6021371127       15.2284769866  W2        5986            0.0000000000
     16938      5646  TIP3      H2            -40.3662496295       -0.7341271127       14.0081869866  W2        5986            0.0000000000
     16939      5647  TIP3      OH2           -34.7771596295       12.7933628873       14.9883669866  W2        5988            0.0000000000
     16940      5647  TIP3      H1            -35.2020496295       13.6032128873       14.7058269866  W2        5988            0.0000000000
     16941      5647  TIP3      H2            -33.8728796295       12.8787728873       14.6863469866  W2        5988            0.0000000000
     16942      5648  TIP3      OH2           -28.1209796295       15.4782528873       17.1918769866  W2        5990            0.0000000000
     16943      5648  TIP3      H1            -27.4440896295       14.8454828873       16.9517969866  W2        5990            0.0000000000
     16944      5648  TIP3      H2            -27.7990996295       15.8793028873       17.9992069866  W2        5990            0.0000000000
     16945      5649  TIP3      OH2           -23.2035996295       -1.9321971127       16.2713769866  W2        5991            0.0000000000
     16946      5649  TIP3      H1            -24.0162496295       -1.6071671127       15.8838469866  W2        5991            0.0000000000
     16947      5649  TIP3      H2            -22.9707496295       -2.6923471127       15.7382869866  W2        5991            0.0000000000
     16948      5650  TIP3      OH2           -37.3754896295       16.0497528873       15.0358969866  W2        5992            0.0000000000
     16949      5650  TIP3      H1            -38.0958496295       16.4898528873       14.5846669866  W2        5992            0.0000000000
     16950      5650  TIP3      H2            -37.7410896295       15.7992228873       15.8842969866  W2        5992            0.0000000000
     16951      5651  TIP3      OH2           -34.9082296295       15.6501428873       14.0656169866  W2        5993            0.0000000000
     16952      5651  TIP3      H1            -35.7730096295       15.7219928873       14.4696269866  W2        5993            0.0000000000
     16953      5651  TIP3      H2            -34.9633296295       16.1968728873       13.2818669866  W2        5993            0.0000000000
     16954      5652  TIP3      OH2           -30.1976696295       15.5380328873       13.2412169866  W2        5994            0.0000000000
     16955      5652  TIP3      H1            -30.6542696295       16.0670028873       12.5870569866  W2        5994            0.0000000000
     16956      5652  TIP3      H2            -30.0348696295       16.1411728873       13.9664469866  W2        5994            0.0000000000
     16957      5653  TIP3      OH2           -27.8700396295       14.4159928873       14.1862469866  W2        5995            0.0000000000
     16958      5653  TIP3      H1            -28.7746696295       14.5810128873       13.9204569866  W2        5995            0.0000000000
     16959      5653  TIP3      H2            -27.4411796295       15.2692128873       14.1205869866  W2        5995            0.0000000000
     16960      5654  TIP3      OH2           -25.2658496295       15.9859028873       14.4810269866  W2        5996            0.0000000000
     16961      5654  TIP3      H1            -25.4476496295       16.9017928873       14.2705169866  W2        5996            0.0000000000
     16962      5654  TIP3      H2            -25.0890696295       15.5756128873       13.6344869866  W2        5996            0.0000000000
     16963      5655  TIP3      OH2           -37.9606796295       14.6730028873       11.9460769866  W2        5997            0.0000000000
     16964      5655  TIP3      H1            -37.9790796295       14.2475128873       12.8033069866  W2        5997            0.0000000000
     16965      5655  TIP3      H2            -37.1558896295       14.3545028873       11.5372969866  W2        5997            0.0000000000
     16966      5656  TIP3      OH2           -35.8193696295       13.3828728873       10.6010669866  W2        5998            0.0000000000
     16967      5656  TIP3      H1            -36.0382996295       12.4666128873       10.7706669866  W2        5998            0.0000000000
     16968      5656  TIP3      H2            -34.9951496295       13.5229128873       11.0672069866  W2        5998            0.0000000000
     16969      5657  TIP3      OH2           -33.2821196295       13.8528028873       11.4498669866  W2        5999            0.0000000000
     16970      5657  TIP3      H1            -33.0695496295       12.9647028873       11.1629569866  W2        5999            0.0000000000
     16971      5657  TIP3      H2            -33.2176096295       13.8185728873       12.4042669866  W2        5999            0.0000000000
     16972      5658  TIP3      OH2           -29.7737496295       -0.4831371127       10.5941969866  W2        6000            0.0000000000
     16973      5658  TIP3      H1            -30.4480696295       -1.1125771127       10.8497769866  W2        6000            0.0000000000
     16974      5658  TIP3      H2            -29.2098296295       -0.9672471127        9.9909869866  W2        6000            0.0000000000
     16975      5659  TIP3      OH2           -24.6310296295       -2.3757371127       10.7069069866  W2        6001            0.0000000000
     16976      5659  TIP3      H1            -24.0272696295       -1.8281971127       10.2050069866  W2        6001            0.0000000000
     16977      5659  TIP3      H2            -25.5008296295       -2.0566971127       10.4663169866  W2        6001            0.0000000000
     16978      5660  TIP3      OH2           -22.9039896295       -1.2368671127        9.0399969866  W2        6002            0.0000000000
     16979      5660  TIP3      H1            -22.2922396295       -1.7512971127        8.5133569866  W2        6002            0.0000000000
     16980      5660  TIP3      H2            -22.5216496295       -0.3596571127        9.0634369866  W2        6002            0.0000000000
     16981      5661  TIP3      OH2           -37.4469996295       -1.8491071127        8.4161869866  W2        6003            0.0000000000
     16982      5661  TIP3      H1            -38.2240196295       -2.0836171127        7.9087769866  W2        6003            0.0000000000
     16983      5661  TIP3      H2            -36.9166396295       -2.6458971127        8.4249869866  W2        6003            0.0000000000
     16984      5662  TIP3      OH2           -38.6106596295       -2.0512971127        4.2197969866  W2        6004            0.0000000000
     16985      5662  TIP3      H1            -38.1715896295       -1.4402471127        3.6281469866  W2        6004            0.0000000000
     16986      5662  TIP3      H2            -39.2444196295       -1.5128871127        4.6937969866  W2        6004            0.0000000000
     16987      5663  TIP3      OH2           -32.8677396295       -1.9223971127        8.2294969866  W2        6005            0.0000000000
     16988      5663  TIP3      H1            -31.9933996295       -1.5339671127        8.1999269866  W2        6005            0.0000000000
     16989      5663  TIP3      H2            -33.0036596295       -2.1376171127        9.1522169866  W2        6005            0.0000000000
     16990      5664  TIP3      OH2           -27.3108996295       -1.8924171127        9.8786669866  W2        6006            0.0000000000
     16991      5664  TIP3      H1            -27.2347396295       -1.7972571127        8.9292669866  W2        6006            0.0000000000
     16992      5664  TIP3      H2            -27.5859796295       -2.8001271127       10.0075769866  W2        6006            0.0000000000
     16993      5665  TIP3      OH2           -25.9576396295       -1.8666371127        5.5711669866  W2        6007            0.0000000000
     16994      5665  TIP3      H1            -26.6605296295       -1.2517171127        5.3613069866  W2        6007            0.0000000000
     16995      5665  TIP3      H2            -26.4024996295       -2.7039671127        5.7022569866  W2        6007            0.0000000000
     16996      5666  TIP3      OH2           -38.7097096295       13.8969228873        5.1173069866  W2        6008            0.0000000000
     16997      5666  TIP3      H1            -39.3947196295       13.8588128873        4.4498169866  W2        6008            0.0000000000
     16998      5666  TIP3      H2            -38.7059896295       14.8096828873        5.4055169866  W2        6008            0.0000000000
     16999      5667  TIP3      OH2           -36.7497496295       -0.1351471127        2.6622069866  W2        6009            0.0000000000
     17000      5667  TIP3      H1            -36.2584096295       -0.7649071127        2.1347569866  W2        6009            0.0000000000
     17001      5667  TIP3      H2            -36.1261196295        0.1607928873        3.3253269866  W2        6009            0.0000000000
     17002      5668  TIP3      OH2           -31.7237396295        0.1580028873        5.1192569866  W2        6010            0.0000000000
     17003      5668  TIP3      H1            -31.5456096295       -0.4886771127        5.8021169866  W2        6010            0.0000000000
     17004      5668  TIP3      H2            -31.7771196295        0.9917728873        5.5863669866  W2        6010            0.0000000000
     17005      5669  TIP3      OH2           -29.8453596295       15.1064128873        3.5149269866  W2        6011            0.0000000000
     17006      5669  TIP3      H1            -28.9793396295       15.4731528873        3.3367469866  W2        6011            0.0000000000
     17007      5669  TIP3      H2            -30.0920796295       14.6672128873        2.7010069866  W2        6011            0.0000000000
     17008      5670  TIP3      OH2           -23.1363996295       14.6694428873        6.1940369866  W2        6012            0.0000000000
     17009      5670  TIP3      H1            -23.3306896295       13.9216528873        5.6289969866  W2        6012            0.0000000000
     17010      5670  TIP3      H2            -23.1753896295       15.4274528873        5.6108269866  W2        6012            0.0000000000
     17011      5671  TIP3      OH2           -36.8915896295       14.8170028873        2.1425169866  W2        6015            0.0000000000
     17012      5671  TIP3      H1            -37.1591296295       15.1032928873        3.0158269866  W2        6015            0.0000000000
     17013      5671  TIP3      H2            -36.1203296295       14.2709228873        2.2947669866  W2        6015            0.0000000000
     17014      5672  TIP3      OH2            -9.5127396295        7.3071228873        8.3749369866  W2        6018            0.0000000000
     17015      5672  TIP3      H1             -9.4236296295        8.2509428873        8.2426469866  W2        6018            0.0000000000
     17016      5672  TIP3      H2            -10.1509796295        7.0317628873        7.7168769866  W2        6018            0.0000000000
     17017      5673  TIP3      OH2           -10.5796096295        6.5621928873       11.7937569866  W2        6019            0.0000000000
     17018      5673  TIP3      H1            -10.6178596295        5.9158228873       12.4987169866  W2        6019            0.0000000000
     17019      5673  TIP3      H2            -10.9019596295        6.0956328873       11.0226269866  W2        6019            0.0000000000
     17020      5674  TIP3      OH2           -18.2111096295        6.1764028873       13.3867469866  W2        6020            0.0000000000
     17021      5674  TIP3      H1            -18.1698996295        5.5507328873       14.1099869866  W2        6020            0.0000000000
     17022      5674  TIP3      H2            -17.5083396295        6.8002628873       13.5687869866  W2        6020            0.0000000000
     17023      5675  TIP3      OH2            -6.8735896295        9.5012328873       10.0952669866  W2        6021            0.0000000000
     17024      5675  TIP3      H1             -7.3143196295        8.7808328873       10.5458269866  W2        6021            0.0000000000
     17025      5675  TIP3      H2             -6.8866196295       10.2219528873       10.7250369866  W2        6021            0.0000000000
     17026      5676  TIP3      OH2           -17.2877996295       10.6262928873       11.9216569866  W2        6022            0.0000000000
     17027      5676  TIP3      H1            -17.6572796295        9.8243428873       11.5520869866  W2        6022            0.0000000000
     17028      5676  TIP3      H2            -16.3466896295       10.4577828873       11.9679969866  W2        6022            0.0000000000
     17029      5677  TIP3      OH2           -20.6777496295        4.2865528873        7.3145369866  W2        6023            0.0000000000
     17030      5677  TIP3      H1            -21.1254096295        5.1324228873        7.2961869866  W2        6023            0.0000000000
     17031      5677  TIP3      H2            -21.2386296295        3.7069728873        6.7990469866  W2        6023            0.0000000000
     17032      5678  TIP3      OH2           -19.9671396295        6.4485128873        9.4403369866  W2        6024            0.0000000000
     17033      5678  TIP3      H1            -19.7537896295        5.6786728873        9.9676369866  W2        6024            0.0000000000
     17034      5678  TIP3      H2            -19.2293796295        6.5381828873        8.8370969866  W2        6024            0.0000000000
     17035      5679  TIP3      OH2            -9.7620396295       14.6054028873       10.3073069866  W2        6025            0.0000000000
     17036      5679  TIP3      H1             -9.1423996295       13.9288728873       10.0342269866  W2        6025            0.0000000000
     17037      5679  TIP3      H2             -9.9702996295       14.3874828873       11.2157969866  W2        6025            0.0000000000
     17038      5680  TIP3      OH2           -12.1901696295        8.9943328873       12.1998569866  W2        6026            0.0000000000
     17039      5680  TIP3      H1            -11.8863796295        8.3084728873       11.6052669866  W2        6026            0.0000000000
     17040      5680  TIP3      H2            -11.4687696295        9.1132028873       12.8176569866  W2        6026            0.0000000000
     17041      5681  TIP3      OH2            -3.5271896295        0.5958628873       13.0604769866  W2        6027            0.0000000000
     17042      5681  TIP3      H1             -3.4779696295        1.2059828873       13.7963869866  W2        6027            0.0000000000
     17043      5681  TIP3      H2             -3.1016796295        1.0569528873       12.3375869866  W2        6027            0.0000000000
     17044      5682  TIP3      OH2            -9.0494696295        3.3885728873       12.5273369866  W2        6028            0.0000000000
     17045      5682  TIP3      H1             -8.9068796295        2.4422728873       12.5474969866  W2        6028            0.0000000000
     17046      5682  TIP3      H2             -9.1555696295        3.5955528873       11.5988269866  W2        6028            0.0000000000
     17047      5683  TIP3      OH2           -15.8946396295        1.4902128873        9.7998169866  W2        6029            0.0000000000
     17048      5683  TIP3      H1            -15.8515296295        2.3500628873        9.3814469866  W2        6029            0.0000000000
     17049      5683  TIP3      H2            -16.3522296295        0.9376828873        9.1661369866  W2        6029            0.0000000000
     17050      5684  TIP3      OH2            -8.1723696295        1.6207728873        8.2006469866  W2        6030            0.0000000000
     17051      5684  TIP3      H1             -7.5259396295        1.2920928873        8.8254069866  W2        6030            0.0000000000
     17052      5684  TIP3      H2             -7.6624296295        2.1386728873        7.5777869866  W2        6030            0.0000000000
     17053      5685  TIP3      OH2           -19.2744896295        3.8867928873       10.5619569866  W2        6031            0.0000000000
     17054      5685  TIP3      H1            -18.6208296295        3.3369628873       10.9939669866  W2        6031            0.0000000000
     17055      5685  TIP3      H2            -19.2505596295        3.6126928873        9.6451569866  W2        6031            0.0000000000
     17056      5686  TIP3      OH2           -14.1180396295        5.4369228873        9.7771069866  W2        6032            0.0000000000
     17057      5686  TIP3      H1            -13.5019396295        4.9104628873       10.2865069866  W2        6032            0.0000000000
     17058      5686  TIP3      H2            -14.7041596295        4.7967928873        9.3734669866  W2        6032            0.0000000000
     17059      5687  TIP3      OH2            -3.1357296295        2.0737828873       15.2964569866  W2        6033            0.0000000000
     17060      5687  TIP3      H1             -3.8242696295        2.7318528873       15.2011169866  W2        6033            0.0000000000
     17061      5687  TIP3      H2             -3.1202696295        1.8765728873       16.2329969866  W2        6033            0.0000000000
     17062      5688  TIP3      OH2           -17.0844496295        0.4080528873       13.8738969866  W2        6034            0.0000000000
     17063      5688  TIP3      H1            -17.3032796295        0.9381128873       13.1074969866  W2        6034            0.0000000000
     17064      5688  TIP3      H2            -17.7523596295        0.6346028873       14.5210369866  W2        6034            0.0000000000
     17065      5689  TIP3      OH2            -9.7154696295        9.9081628873        7.4178069866  W2        6035            0.0000000000
     17066      5689  TIP3      H1            -10.0109596295        9.5853928873        6.5664969866  W2        6035            0.0000000000
     17067      5689  TIP3      H2            -10.0396896295       10.8078328873        7.4590669866  W2        6035            0.0000000000
     17068      5690  TIP3      OH2           -14.5153096295        8.0836228873       14.1612669866  W2        6036            0.0000000000
     17069      5690  TIP3      H1            -15.2553996295        8.6817728873       14.2647869866  W2        6036            0.0000000000
     17070      5690  TIP3      H2            -13.8013596295        8.6375828873       13.8456269866  W2        6036            0.0000000000
     17071      5691  TIP3      OH2            -6.4085296295        0.9117028873       10.1812369866  W2        6037            0.0000000000
     17072      5691  TIP3      H1             -6.6237296295        0.1460428873       10.7138369866  W2        6037            0.0000000000
     17073      5691  TIP3      H2             -5.7527896295        1.3841628873       10.6940869866  W2        6037            0.0000000000
     17074      5692  TIP3      OH2           -17.4907196295        2.3002328873       11.8261169866  W2        6038            0.0000000000
     17075      5692  TIP3      H1            -16.8770896295        2.9329928873       12.1993569866  W2        6038            0.0000000000
     17076      5692  TIP3      H2            -16.9786496295        1.8277328873       11.1698069866  W2        6038            0.0000000000
     17077      5693  TIP3      OH2           -16.1078796295       10.0479228873       14.9484169866  W2        6039            0.0000000000
     17078      5693  TIP3      H1            -16.1131196295       10.9272728873       14.5703469866  W2        6039            0.0000000000
     17079      5693  TIP3      H2            -16.9614696295        9.9643328873       15.3734069866  W2        6039            0.0000000000
     17080      5694  TIP3      OH2           -19.9867896295        9.7187128873        5.7303469866  W2        6040            0.0000000000
     17081      5694  TIP3      H1            -20.2586996295        9.9478128873        4.8416369866  W2        6040            0.0000000000
     17082      5694  TIP3      H2            -19.9412196295       10.5565928873        6.1908769866  W2        6040            0.0000000000
     17083      5695  TIP3      OH2            -6.3618196295       11.3403028873       12.4431969866  W2        6041            0.0000000000
     17084      5695  TIP3      H1             -7.3034496295       11.3986928873       12.6048869866  W2        6041            0.0000000000
     17085      5695  TIP3      H2             -6.0852096295       12.2463528873       12.3061669866  W2        6041            0.0000000000
     17086      5696  TIP3      OH2            -6.0611196295       -0.3731671127       13.8605869866  W2        6042            0.0000000000
     17087      5696  TIP3      H1             -6.7971996295        0.2375428873       13.8227169866  W2        6042            0.0000000000
     17088      5696  TIP3      H2             -5.3777196295        0.0417328873       13.3342269866  W2        6042            0.0000000000
     17089      5697  TIP3      OH2           -13.0579796295       -2.2864371127       11.3263869866  W2        6043            0.0000000000
     17090      5697  TIP3      H1            -13.1755596295       -3.2348371127       11.2722169866  W2        6043            0.0000000000
     17091      5697  TIP3      H2            -13.9129696295       -1.9538271127       11.5994969866  W2        6043            0.0000000000
     17092      5698  TIP3      OH2            -8.1096996295       13.1216528873        9.0683569866  W2        6044            0.0000000000
     17093      5698  TIP3      H1             -7.6844696295       12.4144428873        8.5833169866  W2        6044            0.0000000000
     17094      5698  TIP3      H2             -7.7926996295       13.9229228873        8.6515769866  W2        6044            0.0000000000
     17095      5699  TIP3      OH2            -6.9500496295       11.0225028873        7.5770169866  W2        6045            0.0000000000
     17096      5699  TIP3      H1             -7.2075696295       10.3325128873        6.9656069866  W2        6045            0.0000000000
     17097      5699  TIP3      H2             -6.8789696295       10.5796228873        8.4226069866  W2        6045            0.0000000000
     17098      5700  TIP3      OH2            -5.2640296295        9.5891728873       16.0543669866  W2        6046            0.0000000000
     17099      5700  TIP3      H1             -5.1243996295        8.9974228873       15.3150669866  W2        6046            0.0000000000
     17100      5700  TIP3      H2             -5.0967496295       10.4617628873       15.6982469866  W2        6046            0.0000000000
     17101      5701  TIP3      OH2           -10.7914896295        6.5511228873        5.8269669866  W2        6047            0.0000000000
     17102      5701  TIP3      H1            -11.5029396295        7.0860928873        5.4750169866  W2        6047            0.0000000000
     17103      5701  TIP3      H2            -10.1005296295        6.6063328873        5.1668569866  W2        6047            0.0000000000
     17104      5702  TIP3      OH2           -10.7375696295        5.0085528873        2.8654669866  W2        6048            0.0000000000
     17105      5702  TIP3      H1            -10.0365796295        5.0312428873        3.5168669866  W2        6048            0.0000000000
     17106      5702  TIP3      H2            -10.4352796295        4.3805228873        2.2093969866  W2        6048            0.0000000000
     17107      5703  TIP3      OH2            -3.4220996295        5.9289728873       14.1204069866  W2        6049            0.0000000000
     17108      5703  TIP3      H1             -4.0746896295        6.6235328873       14.2094969866  W2        6049            0.0000000000
     17109      5703  TIP3      H2             -2.9570696295        6.1390628873       13.3105669866  W2        6049            0.0000000000
     17110      5704  TIP3      OH2            -7.3857196295        6.7604528873        6.7785569866  W2        6050            0.0000000000
     17111      5704  TIP3      H1             -8.1176196295        6.9888228873        7.3516169866  W2        6050            0.0000000000
     17112      5704  TIP3      H2             -6.9384996295        6.0467228873        7.2333069866  W2        6050            0.0000000000
     17113      5705  TIP3      OH2            -7.4883696295        4.9347128873       15.8462569866  W2        6051            0.0000000000
     17114      5705  TIP3      H1             -7.4084596295        5.6981528873       16.4181069866  W2        6051            0.0000000000
     17115      5705  TIP3      H2             -8.0895996295        5.2139528873       15.1557669866  W2        6051            0.0000000000
     17116      5706  TIP3      OH2           -15.7403496295        7.3910728873        8.6610569866  W2        6052            0.0000000000
     17117      5706  TIP3      H1            -16.0708296295        7.0204128873        7.8427569866  W2        6052            0.0000000000
     17118      5706  TIP3      H2            -15.1519396295        6.7204728873        9.0078869866  W2        6052            0.0000000000
     17119      5707  TIP3      OH2           -14.3735996295       10.8191328873       11.3422769866  W2        6053            0.0000000000
     17120      5707  TIP3      H1            -14.4684696295       10.2404428873       10.5857369866  W2        6053            0.0000000000
     17121      5707  TIP3      H2            -13.6442396295       10.4477028873       11.8385569866  W2        6053            0.0000000000
     17122      5708  TIP3      OH2           -15.3737996295        6.1596328873       12.2945569866  W2        6054            0.0000000000
     17123      5708  TIP3      H1            -14.8085496295        6.2810528873       11.5316769866  W2        6054            0.0000000000
     17124      5708  TIP3      H2            -15.0549096295        6.7971328873       12.9334069866  W2        6054            0.0000000000
     17125      5709  TIP3      OH2            -9.0645796295       11.6628228873       13.0286069866  W2        6055            0.0000000000
     17126      5709  TIP3      H1             -9.3049196295       12.3251328873       13.6765269866  W2        6055            0.0000000000
     17127      5709  TIP3      H2             -9.2627596295       10.8283428873       13.4535669866  W2        6055            0.0000000000
     17128      5710  TIP3      OH2           -14.4937296295       10.5589028873       17.0117469866  W2        6056            0.0000000000
     17129      5710  TIP3      H1            -14.8049796295       11.3412228873       17.4670669866  W2        6056            0.0000000000
     17130      5710  TIP3      H2            -15.1437096295       10.4058128873       16.3259469866  W2        6056            0.0000000000
     17131      5711  TIP3      OH2            -8.5147696295        5.9227428873        4.4636769866  W2        6057            0.0000000000
     17132      5711  TIP3      H1             -7.9352196295        6.0727728873        5.2105669866  W2        6057            0.0000000000
     17133      5711  TIP3      H2             -8.1007696295        6.3934828873        3.7403169866  W2        6057            0.0000000000
     17134      5712  TIP3      OH2           -17.5737396295        6.7570128873       16.2403169866  W2        6058            0.0000000000
     17135      5712  TIP3      H1            -17.5034196295        7.4076928873       16.9388169866  W2        6058            0.0000000000
     17136      5712  TIP3      H2            -18.4645196295        6.8597628873       15.9054069866  W2        6058            0.0000000000
     17137      5713  TIP3      OH2           -10.7882796295       12.6595928873        7.8989869866  W2        6059            0.0000000000
     17138      5713  TIP3      H1            -10.3145196295       12.9552228873        8.6764069866  W2        6059            0.0000000000
     17139      5713  TIP3      H2            -11.3513496295       13.3977528873        7.6659469866  W2        6059            0.0000000000
     17140      5714  TIP3      OH2            -4.8159296295       -2.3272171127        4.2766469866  W2        6061            0.0000000000
     17141      5714  TIP3      H1             -5.7158596295       -2.1883171127        4.5717069866  W2        6061            0.0000000000
     17142      5714  TIP3      H2             -4.5640896295       -1.4957571127        3.8748169866  W2        6061            0.0000000000
     17143      5715  TIP3      OH2           -16.7500796295        6.4605028873        6.2503369866  W2        6062            0.0000000000
     17144      5715  TIP3      H1            -17.0419496295        7.2286728873        5.7594669866  W2        6062            0.0000000000
     17145      5715  TIP3      H2            -17.4245596295        5.8011228873        6.0874769866  W2        6062            0.0000000000
     17146      5716  TIP3      OH2            -3.6267896295       12.0390228873        2.6530369866  W2        6063            0.0000000000
     17147      5716  TIP3      H1             -3.5534396295       12.9780428873        2.8235669866  W2        6063            0.0000000000
     17148      5716  TIP3      H2             -2.7212796295       11.7338828873        2.5967669866  W2        6063            0.0000000000
     17149      5717  TIP3      OH2           -20.6570696295        8.8234228873       15.0653169866  W2        6064            0.0000000000
     17150      5717  TIP3      H1            -21.1582296295        8.7953628873       14.2502869866  W2        6064            0.0000000000
     17151      5717  TIP3      H2            -20.6516996295        7.9177428873       15.3750469866  W2        6064            0.0000000000
     17152      5718  TIP3      OH2           -20.9067996295       11.6038028873       11.9493369866  W2        6065            0.0000000000
     17153      5718  TIP3      H1            -19.9607396295       11.4595028873       11.9302869866  W2        6065            0.0000000000
     17154      5718  TIP3      H2            -21.0191696295       12.3880828873       12.4864569866  W2        6065            0.0000000000
     17155      5719  TIP3      OH2           -11.7305496295       11.8436928873       16.5078469866  W2        6067            0.0000000000
     17156      5719  TIP3      H1            -11.6430896295       12.6701528873       16.9827569866  W2        6067            0.0000000000
     17157      5719  TIP3      H2            -12.5940396295       11.5140728873       16.7567769866  W2        6067            0.0000000000
     17158      5720  TIP3      OH2           -11.3159696295       15.6160628873        6.3139069866  W2        6068            0.0000000000
     17159      5720  TIP3      H1            -11.3913696295       15.4947828873        5.3674269866  W2        6068            0.0000000000
     17160      5720  TIP3      H2            -11.2830996295       16.5653328873        6.4323669866  W2        6068            0.0000000000
     17161      5721  TIP3      OH2           -17.6625896295       14.4047628873        8.0948069866  W2        6069            0.0000000000
     17162      5721  TIP3      H1            -17.5105496295       14.0568028873        8.9734569866  W2        6069            0.0000000000
     17163      5721  TIP3      H2            -18.5135496295       14.0484928873        7.8395269866  W2        6069            0.0000000000
     17164      5722  TIP3      OH2            -8.2143696295       14.7700828873        3.3161469866  W2        6070            0.0000000000
     17165      5722  TIP3      H1             -7.8395296295       14.0256928873        2.8454069866  W2        6070            0.0000000000
     17166      5722  TIP3      H2             -8.2099996295       14.5001428873        4.2344769866  W2        6070            0.0000000000
     17167      5723  TIP3      OH2            -8.5455596295       14.6957928873        6.0653669866  W2        6071            0.0000000000
     17168      5723  TIP3      H1             -9.4805796295       14.7959828873        6.2440669866  W2        6071            0.0000000000
     17169      5723  TIP3      H2             -8.2653696295       13.9863928873        6.6436869866  W2        6071            0.0000000000
     17170      5724  TIP3      OH2           -18.4080196295       10.1469628873       16.1085969866  W2        6073            0.0000000000
     17171      5724  TIP3      H1            -18.1918896295        9.7855228873       16.9681769866  W2        6073            0.0000000000
     17172      5724  TIP3      H2            -19.2635496295        9.7723428873       15.8989469866  W2        6073            0.0000000000
     17173      5725  TIP3      OH2           -15.7892196295       -1.3829871127       12.1040169866  W2        6074            0.0000000000
     17174      5725  TIP3      H1            -16.6508496295       -1.4701671127       11.6963069866  W2        6074            0.0000000000
     17175      5725  TIP3      H2            -15.8116496295       -0.5269771127       12.5317769866  W2        6074            0.0000000000
     17176      5726  TIP3      OH2           -11.1264396295       -1.6609471127       15.4787169866  W2        6075            0.0000000000
     17177      5726  TIP3      H1            -10.7061296295       -2.0762371127       16.2317769866  W2        6075            0.0000000000
     17178      5726  TIP3      H2            -12.0594796295       -1.8396171127       15.5959169866  W2        6075            0.0000000000
     17179      5727  TIP3      OH2            -7.7999496295        2.0945728873       16.3321669866  W2        6076            0.0000000000
     17180      5727  TIP3      H1             -8.3139996295        1.9687928873       17.1297669866  W2        6076            0.0000000000
     17181      5727  TIP3      H2             -7.9554796295        3.0068828873       16.0877869866  W2        6076            0.0000000000
     17182      5728  TIP3      OH2            -7.0374596295        6.9555728873        2.0934669866  W2        6077            0.0000000000
     17183      5728  TIP3      H1             -6.9953796295        6.7329628873        1.1634669866  W2        6077            0.0000000000
     17184      5728  TIP3      H2             -6.1882496295        7.3542828873        2.2834569866  W2        6077            0.0000000000
     17185      5729  TIP3      OH2           -11.4647096295        0.8313928873        2.7637969866  W2        6078            0.0000000000
     17186      5729  TIP3      H1            -11.7182296295        0.8505528873        3.6866069866  W2        6078            0.0000000000
     17187      5729  TIP3      H2            -11.7214996295       -0.0400671127        2.4624169866  W2        6078            0.0000000000
     17188      5730  TIP3      OH2           -15.6982096295        3.5824628873       13.1990369866  W2        6079            0.0000000000
     17189      5730  TIP3      H1            -16.3399996295        3.5421928873       13.9080469866  W2        6079            0.0000000000
     17190      5730  TIP3      H2            -15.6610096295        4.5089328873       12.9613369866  W2        6079            0.0000000000
     17191      5731  TIP3      OH2           -15.7012996295        3.8034728873        8.1110369866  W2        6080            0.0000000000
     17192      5731  TIP3      H1            -16.5940096295        3.4630828873        8.0524169866  W2        6080            0.0000000000
     17193      5731  TIP3      H2            -15.2506396295        3.4265628873        7.3553569866  W2        6080            0.0000000000
     17194      5732  TIP3      OH2           -10.1657496295        4.2195028873        6.9281169866  W2        6081            0.0000000000
     17195      5732  TIP3      H1            -10.5747196295        5.0343628873        6.6365969866  W2        6081            0.0000000000
     17196      5732  TIP3      H2             -9.4451296295        4.0795128873        6.3138269866  W2        6081            0.0000000000
     17197      5733  TIP3      OH2            -9.1609796295        3.6655428873        9.7420869866  W2        6083            0.0000000000
     17198      5733  TIP3      H1             -9.3565296295        4.2712228873        9.0271469866  W2        6083            0.0000000000
     17199      5733  TIP3      H2             -8.9797196295        2.8320628873        9.3077169866  W2        6083            0.0000000000
     17200      5734  TIP3      OH2           -17.9481596295        3.9028128873       15.0662369866  W2        6084            0.0000000000
     17201      5734  TIP3      H1            -17.9862196295        4.3029728873       15.9349469866  W2        6084            0.0000000000
     17202      5734  TIP3      H2            -18.4390496295        3.0860528873       15.1565269866  W2        6084            0.0000000000
     17203      5735  TIP3      OH2           -14.5824196295        1.2770428873        1.8648369866  W2        6085            0.0000000000
     17204      5735  TIP3      H1            -15.0133496295        0.8320528873        2.5945769866  W2        6085            0.0000000000
     17205      5735  TIP3      H2            -15.3005496295        1.6486728873        1.3525869866  W2        6085            0.0000000000
     17206      5736  TIP3      OH2           -21.3400796295        1.0189928873        8.9167069866  W2        6086            0.0000000000
     17207      5736  TIP3      H1            -20.7093096295        0.9902028873        9.6360969866  W2        6086            0.0000000000
     17208      5736  TIP3      H2            -20.8906496295        0.5938628873        8.1862969866  W2        6086            0.0000000000
     17209      5737  TIP3      OH2           -20.0658696295        1.7651928873        4.3407469866  W2        6087            0.0000000000
     17210      5737  TIP3      H1            -19.5916996295        2.3561828873        3.7558369866  W2        6087            0.0000000000
     17211      5737  TIP3      H2            -20.7832296295        2.2954828873        4.6877569866  W2        6087            0.0000000000
     17212      5738  TIP3      OH2            -9.8970596295        5.3036728873       14.4133269866  W2        6088            0.0000000000
     17213      5738  TIP3      H1             -9.5735796295        4.6726428873       13.7703769866  W2        6088            0.0000000000
     17214      5738  TIP3      H2            -10.3371296295        4.7688928873       15.0740669866  W2        6088            0.0000000000
     17215      5739  TIP3      OH2           -13.1197696295        1.2312228873        9.1974469866  W2        6089            0.0000000000
     17216      5739  TIP3      H1            -14.0306596295        1.2879028873        9.4860469866  W2        6089            0.0000000000
     17217      5739  TIP3      H2            -12.6144796295        1.1707728873       10.0081669866  W2        6089            0.0000000000
     17218      5740  TIP3      OH2           -18.2914296295        2.8598528873        8.0242069866  W2        6090            0.0000000000
     17219      5740  TIP3      H1            -19.1806296295        2.9594028873        7.6841669866  W2        6090            0.0000000000
     17220      5740  TIP3      H2            -17.9949396295        2.0181528873        7.6779969866  W2        6090            0.0000000000
     17221      5741  TIP3      OH2           -14.6382496295        2.8601128873        5.6806669866  W2        6091            0.0000000000
     17222      5741  TIP3      H1            -13.7066996295        2.9891128873        5.8589769866  W2        6091            0.0000000000
     17223      5741  TIP3      H2            -14.8532196295        3.5295428873        5.0311369866  W2        6091            0.0000000000
     17224      5742  TIP3      OH2            -8.7145796295        0.4658528873       12.4616269866  W2        6092            0.0000000000
     17225      5742  TIP3      H1             -9.3914196295        0.5971628873       13.1255969866  W2        6092            0.0000000000
     17226      5742  TIP3      H2             -9.2000896295        0.3108028873       11.6513969866  W2        6092            0.0000000000
     17227      5743  TIP3      OH2           -15.9642296295        4.0543328873        3.2472769866  W2        6093            0.0000000000
     17228      5743  TIP3      H1            -16.5067196295        3.6747128873        2.5560369866  W2        6093            0.0000000000
     17229      5743  TIP3      H2            -15.1307396295        4.2488028873        2.8186869866  W2        6093            0.0000000000
     17230      5744  TIP3      OH2           -11.7997996295        4.0185228873       11.0844069866  W2        6096            0.0000000000
     17231      5744  TIP3      H1            -11.2354596295        3.4721828873       10.5373669866  W2        6096            0.0000000000
     17232      5744  TIP3      H2            -11.9474596295        3.4967128873       11.8731669866  W2        6096            0.0000000000
     17233      5745  TIP3      OH2           -16.7978296295        0.1551328873        7.5028869866  W2        6097            0.0000000000
     17234      5745  TIP3      H1            -17.1148796295       -0.7473371127        7.4674269866  W2        6097            0.0000000000
     17235      5745  TIP3      H2            -16.0164196295        0.1568728873        6.9500469866  W2        6097            0.0000000000
     17236      5746  TIP3      OH2           -13.1732096295        2.4071328873       13.4984469866  W2        6098            0.0000000000
     17237      5746  TIP3      H1            -14.0086796295        2.8610828873       13.6086869866  W2        6098            0.0000000000
     17238      5746  TIP3      H2            -12.6491496295        2.6829828873       14.2504369866  W2        6098            0.0000000000
     17239      5747  TIP3      OH2           -12.6289496295        8.6199028873        5.1830869866  W2        6099            0.0000000000
     17240      5747  TIP3      H1            -13.3738496295        8.1124328873        4.8608769866  W2        6099            0.0000000000
     17241      5747  TIP3      H2            -12.7632296295        8.6687028873        6.1295669866  W2        6099            0.0000000000
     17242      5748  TIP3      OH2            -5.4790596295        7.7527228873       13.9698469866  W2        6100            0.0000000000
     17243      5748  TIP3      H1             -4.8371796295        8.2093528873       13.4260669866  W2        6100            0.0000000000
     17244      5748  TIP3      H2             -6.3093696295        7.8659628873       13.5072569866  W2        6100            0.0000000000
     17245      5749  TIP3      OH2            -8.7312696295        1.4338928873        3.3823469866  W2        6101            0.0000000000
     17246      5749  TIP3      H1             -9.6698496295        1.5454528873        3.2312269866  W2        6101            0.0000000000
     17247      5749  TIP3      H2             -8.4340596295        2.2905828873        3.6889169866  W2        6101            0.0000000000
     17248      5750  TIP3      OH2           -11.1097396295        8.8042328873       16.4199969866  W2        6102            0.0000000000
     17249      5750  TIP3      H1            -11.4551296295        8.4224728873       17.2269569866  W2        6102            0.0000000000
     17250      5750  TIP3      H2            -11.3097296295        9.7375928873       16.4912869866  W2        6102            0.0000000000
     17251      5751  TIP3      OH2            -8.0129196295        3.3011628873        5.0430869866  W2        6103            0.0000000000
     17252      5751  TIP3      H1             -7.1210196295        3.1636628873        5.3622069866  W2        6103            0.0000000000
     17253      5751  TIP3      H2             -7.9565596295        4.0917728873        4.5064369866  W2        6103            0.0000000000
     17254      5752  TIP3      OH2           -17.5041196295        7.9149028873       10.9528769866  W2        6104            0.0000000000
     17255      5752  TIP3      H1            -16.7593996295        7.9124728873       10.3515269866  W2        6104            0.0000000000
     17256      5752  TIP3      H2            -17.4264596295        7.0912828873       11.4343869866  W2        6104            0.0000000000
     17257      5753  TIP3      OH2           -10.5035396295       10.0783328873        4.2085469866  W2        6105            0.0000000000
     17258      5753  TIP3      H1            -10.7986996295       10.9051228873        4.5900269866  W2        6105            0.0000000000
     17259      5753  TIP3      H2            -11.2065396295        9.4590228873        4.4046869866  W2        6105            0.0000000000
     17260      5754  TIP3      OH2           -20.4961496295        6.3755928873       16.2677269866  W2        6106            0.0000000000
     17261      5754  TIP3      H1            -20.2732896295        5.9575528873       17.0994769866  W2        6106            0.0000000000
     17262      5754  TIP3      H2            -21.0981396295        5.7630928873       15.8450069866  W2        6106            0.0000000000
     17263      5755  TIP3      OH2            -8.8593796295       11.2657828873       16.3704969866  W2        6108            0.0000000000
     17264      5755  TIP3      H1             -9.7599496295       11.4490428873       16.1028869866  W2        6108            0.0000000000
     17265      5755  TIP3      H2             -8.8252696295       11.5247128873       17.2913769866  W2        6108            0.0000000000
     17266      5756  TIP3      OH2            -3.1280496295        3.5105728873        4.7377569866  W2        6109            0.0000000000
     17267      5756  TIP3      H1             -3.6824196295        3.1143728873        4.0655069866  W2        6109            0.0000000000
     17268      5756  TIP3      H2             -3.0276896295        4.4210928873        4.4600869866  W2        6109            0.0000000000
     17269      5757  TIP3      OH2            -4.8328796295       12.2966128873        5.2029669866  W2        6111            0.0000000000
     17270      5757  TIP3      H1             -5.2057696295       11.4709928873        5.5120269866  W2        6111            0.0000000000
     17271      5757  TIP3      H2             -4.5555296295       12.1135528873        4.3053069866  W2        6111            0.0000000000
     17272      5758  TIP3      OH2            -7.6724896295        7.1045628873       12.2241569866  W2        6112            0.0000000000
     17273      5758  TIP3      H1             -8.6007996295        6.8727528873       12.1970869866  W2        6112            0.0000000000
     17274      5758  TIP3      H2             -7.2213796295        6.3275428873       11.8940369866  W2        6112            0.0000000000
     17275      5759  TIP3      OH2           -15.1291796295       11.4327228873        8.3570269866  W2        6113            0.0000000000
     17276      5759  TIP3      H1            -14.6019596295       12.2061628873        8.1569069866  W2        6113            0.0000000000
     17277      5759  TIP3      H2            -16.0093296295       11.6576428873        8.0554269866  W2        6113            0.0000000000
     17278      5760  TIP3      OH2           -19.3744096295        6.2951328873        2.9442669866  W2        6114            0.0000000000
     17279      5760  TIP3      H1            -18.7584196295        6.9218528873        3.3237469866  W2        6114            0.0000000000
     17280      5760  TIP3      H2            -20.2361496295        6.6111128873        3.2159169866  W2        6114            0.0000000000
     17281      5761  TIP3      OH2           -13.7019496295        9.0957128873        7.9334569866  W2        6115            0.0000000000
     17282      5761  TIP3      H1            -13.9429496295       10.0211528873        7.9749869866  W2        6115            0.0000000000
     17283      5761  TIP3      H2            -14.4425896295        8.6368428873        8.3298469866  W2        6115            0.0000000000
     17284      5762  TIP3      OH2           -13.1872896295       13.2450728873       14.2485669866  W2        6116            0.0000000000
     17285      5762  TIP3      H1            -12.8248196295       14.0996328873       14.0150069866  W2        6116            0.0000000000
     17286      5762  TIP3      H2            -12.6557696295       12.9532328873       14.9891969866  W2        6116            0.0000000000
     17287      5763  TIP3      OH2           -15.0188696295       14.1174728873        7.4786769866  W2        6117            0.0000000000
     17288      5763  TIP3      H1            -15.9688196295       14.2232128873        7.5300069866  W2        6117            0.0000000000
     17289      5763  TIP3      H2            -14.6670596295       14.9382128873        7.8234269866  W2        6117            0.0000000000
     17290      5764  TIP3      OH2            -9.6432096295        9.3441428873       13.9491269866  W2        6118            0.0000000000
     17291      5764  TIP3      H1            -10.0690796295        9.1163128873       14.7755269866  W2        6118            0.0000000000
     17292      5764  TIP3      H2             -9.0626296295        8.6053228873       13.7666569866  W2        6118            0.0000000000
     17293      5765  TIP3      OH2            -7.4403196295       10.2731928873        3.0230269866  W2        6119            0.0000000000
     17294      5765  TIP3      H1             -7.0870096295        9.8931728873        3.8273769866  W2        6119            0.0000000000
     17295      5765  TIP3      H2             -8.3889696295       10.1796728873        3.1099569866  W2        6119            0.0000000000
     17296      5766  TIP3      OH2            -6.9847896295       13.8960928873       16.4186069866  W2        6120            0.0000000000
     17297      5766  TIP3      H1             -7.5864696295       13.3403828873       15.9232369866  W2        6120            0.0000000000
     17298      5766  TIP3      H2             -6.7034196295       14.5630728873       15.7923469866  W2        6120            0.0000000000
     17299      5767  TIP3      OH2            -2.9368796295       14.7524428873        3.2240469866  W2        6121            0.0000000000
     17300      5767  TIP3      H1             -2.1930896295       15.3384928873        3.0842069866  W2        6121            0.0000000000
     17301      5767  TIP3      H2             -3.6310696295       15.3210228873        3.5572869866  W2        6121            0.0000000000
     17302      5768  TIP3      OH2           -18.8621996295        1.1288628873       15.8258669866  W2        6122            0.0000000000
     17303      5768  TIP3      H1            -19.7549696295        1.4674028873       15.7582669866  W2        6122            0.0000000000
     17304      5768  TIP3      H2            -18.9609196295        0.2734728873       16.2439469866  W2        6122            0.0000000000
     17305      5769  TIP3      OH2            -6.5743896295        8.9453928873        5.2498169866  W2        6123            0.0000000000
     17306      5769  TIP3      H1             -6.8516296295        8.2173228873        5.8059269866  W2        6123            0.0000000000
     17307      5769  TIP3      H2             -5.6470896295        9.0645928873        5.4550769866  W2        6123            0.0000000000
     17308      5770  TIP3      OH2           -19.2109996295       12.9333028873       14.2608069866  W2        6124            0.0000000000
     17309      5770  TIP3      H1            -18.9939696295       12.0015428873       14.2297769866  W2        6124            0.0000000000
     17310      5770  TIP3      H2            -18.9646496295       13.2078028873       15.1440869866  W2        6124            0.0000000000
     17311      5771  TIP3      OH2           -13.3495396295       11.3848028873        1.4700269866  W2        6125            0.0000000000
     17312      5771  TIP3      H1            -13.1105596295       10.6366128873        0.9229169866  W2        6125            0.0000000000
     17313      5771  TIP3      H2            -13.6184096295       10.9969728873        2.3028069866  W2        6125            0.0000000000
     17314      5772  TIP3      OH2           -14.4124796295       10.9551828873        3.9262869866  W2        6126            0.0000000000
     17315      5772  TIP3      H1            -14.2656796295       10.4351628873        4.7163769866  W2        6126            0.0000000000
     17316      5772  TIP3      H2            -14.4153096295       11.8619428873        4.2328769866  W2        6126            0.0000000000
     17317      5773  TIP3      OH2           -17.9593696295        8.2075128873        4.4368269866  W2        6127            0.0000000000
     17318      5773  TIP3      H1            -18.6454396295        8.5597628873        5.0037969866  W2        6127            0.0000000000
     17319      5773  TIP3      H2            -17.4365796295        8.9704728873        4.1902569866  W2        6127            0.0000000000
     17320      5774  TIP3      OH2           -10.1278596295        0.8698928873       14.7157269866  W2        6128            0.0000000000
     17321      5774  TIP3      H1             -9.4290696295        0.9437628873       15.3656969866  W2        6128            0.0000000000
     17322      5774  TIP3      H2            -10.5087196295        0.0053928873       14.8700169866  W2        6128            0.0000000000
     17323      5775  TIP3      OH2            -9.3433696295        0.5220628873        5.8129569866  W2        6129            0.0000000000
     17324      5775  TIP3      H1             -9.1235396295        0.9936028873        5.0094969866  W2        6129            0.0000000000
     17325      5775  TIP3      H2             -8.7849696295        0.9163228873        6.4830169866  W2        6129            0.0000000000
     17326      5776  TIP3      OH2           -11.6747596295       12.6525428873        4.6757069866  W2        6130            0.0000000000
     17327      5776  TIP3      H1            -12.4911496295       13.1495128873        4.7281369866  W2        6130            0.0000000000
     17328      5776  TIP3      H2            -11.1451296295       13.1278928873        4.0355869866  W2        6130            0.0000000000
     17329      5777  TIP3      OH2           -12.1433796295        2.2499428873        6.6477969866  W2        6131            0.0000000000
     17330      5777  TIP3      H1            -11.3311196295        2.7542628873        6.6939669866  W2        6131            0.0000000000
     17331      5777  TIP3      H2            -12.3880796295        2.1049128873        7.5617569866  W2        6131            0.0000000000
     17332      5778  TIP3      OH2           -11.6077396295        3.2362128873       15.8324569866  W2        6132            0.0000000000
     17333      5778  TIP3      H1            -11.4887096295        3.8097528873       16.5894969866  W2        6132            0.0000000000
     17334      5778  TIP3      H2            -10.9522796295        2.5481528873       15.9472369866  W2        6132            0.0000000000
     17335      5779  TIP3      OH2           -11.2597096295       -0.6687571127        7.5859069866  W2        6133            0.0000000000
     17336      5779  TIP3      H1            -11.6063596295       -0.0516971127        8.2303369866  W2        6133            0.0000000000
     17337      5779  TIP3      H2            -10.6010196295       -0.1681871127        7.1044569866  W2        6133            0.0000000000
     17338      5780  TIP3      OH2           -14.3364496295       13.6962628873        4.6573969866  W2        6134            0.0000000000
     17339      5780  TIP3      H1            -14.1755796295       14.4960128873        4.1566569866  W2        6134            0.0000000000
     17340      5780  TIP3      H2            -14.5336696295       14.0028628873        5.5424569866  W2        6134            0.0000000000
     17341      5781  TIP3      OH2           -15.6020096295        0.3941828873        4.2731569866  W2        6135            0.0000000000
     17342      5781  TIP3      H1            -15.6855296295        1.2824928873        4.6197969866  W2        6135            0.0000000000
     17343      5781  TIP3      H2            -14.7119796295        0.1288528873        4.5048369866  W2        6135            0.0000000000
     17344      5782  TIP3      OH2            -5.4031596295        1.1432428873       16.6674269866  W2        6136            0.0000000000
     17345      5782  TIP3      H1             -6.3195796295        1.4054128873       16.5797969866  W2        6136            0.0000000000
     17346      5782  TIP3      H2             -5.0676596295        1.1401428873       15.7709569866  W2        6136            0.0000000000
     17347      5783  TIP3      OH2            -6.8010596295        4.8933428873       10.7631569866  W2        6137            0.0000000000
     17348      5783  TIP3      H1             -7.5986196295        4.4783628873       10.4346569866  W2        6137            0.0000000000
     17349      5783  TIP3      H2             -6.3559496295        4.2027128873       11.2542069866  W2        6137            0.0000000000
     17350      5784  TIP3      OH2           -17.3434796295       10.8214028873        3.3336069866  W2        6138            0.0000000000
     17351      5784  TIP3      H1            -16.7513296295       11.5208828873        3.6098469866  W2        6138            0.0000000000
     17352      5784  TIP3      H2            -16.8841796295       10.3883528873        2.6140669866  W2        6138            0.0000000000
     17353      5785  TIP3      OH2           -19.0275596295        3.4857028873        2.4495469866  W2        6139            0.0000000000
     17354      5785  TIP3      H1            -19.0722996295        4.4250128873        2.6282469866  W2        6139            0.0000000000
     17355      5785  TIP3      H2            -19.9152396295        3.2501928873        2.1797569866  W2        6139            0.0000000000
     17356      5786  TIP3      OH2            -5.7145996295       14.1495928873       12.3855069866  W2        6140            0.0000000000
     17357      5786  TIP3      H1             -5.8701696295       14.8280328873       11.7284369866  W2        6140            0.0000000000
     17358      5786  TIP3      H2             -4.7819596295       14.2215228873       12.5885669866  W2        6140            0.0000000000
     17359      5787  TIP3      OH2           -18.2193596295       -1.7326371127       11.1226469866  W2        6141            0.0000000000
     17360      5787  TIP3      H1            -18.4483796295       -1.6733871127       10.1951469866  W2        6141            0.0000000000
     17361      5787  TIP3      H2            -18.6620196295       -2.5240871127       11.4290569866  W2        6141            0.0000000000
     17362      5788  TIP3      OH2           -19.2890296295       12.2080728873        7.2832269866  W2        6142            0.0000000000
     17363      5788  TIP3      H1            -20.1211696295       12.6803428873        7.3103669866  W2        6142            0.0000000000
     17364      5788  TIP3      H2            -18.7431996295       12.7178328873        6.6845369866  W2        6142            0.0000000000
     17365      5789  TIP3      OH2           -11.3113596295       13.2479428873        1.6086269866  W2        6145            0.0000000000
     17366      5789  TIP3      H1            -11.9552596295       12.6168028873        1.9299969866  W2        6145            0.0000000000
     17367      5789  TIP3      H2            -10.5495296295       12.7167428873        1.3769769866  W2        6145            0.0000000000
     17368      5790  TIP3      OH2            -6.7070696295       13.0649328873        1.8424269866  W2        6147            0.0000000000
     17369      5790  TIP3      H1             -6.4240296295       12.2704528873        2.2951169866  W2        6147            0.0000000000
     17370      5790  TIP3      H2             -5.9672796295       13.2980328873        1.2815369866  W2        6147            0.0000000000
     17371      5791  TIP3      OH2           -15.7523396295        8.9744228873        1.6999169866  W2        6149            0.0000000000
     17372      5791  TIP3      H1            -15.6879296295        8.1803828873        2.2305569866  W2        6149            0.0000000000
     17373      5791  TIP3      H2            -15.0994196295        8.8557028873        1.0101169866  W2        6149            0.0000000000
     17374      5792  TIP3      OH2           -10.3999996295       10.0215928873        1.4357169866  W2        6151            0.0000000000
     17375      5792  TIP3      H1            -10.6685896295       10.2018028873        2.3366069866  W2        6151            0.0000000000
     17376      5792  TIP3      H2            -10.6064396295        9.0962128873        1.3042969866  W2        6151            0.0000000000
     17377      5793  TIP3      OH2            -7.7035796295        8.5163928873       16.3833269866  W2        6152            0.0000000000
     17378      5793  TIP3      H1             -6.9580996295        9.1047628873       16.2637269866  W2        6152            0.0000000000
     17379      5793  TIP3      H2             -8.4608996295        9.0983628873       16.4466369866  W2        6152            0.0000000000
     17380      5794  TIP3      OH2           -14.6029596295        6.9470428873        4.0057169866  W2        6154            0.0000000000
     17381      5794  TIP3      H1            -15.0627596295        6.4628728873        4.6915669866  W2        6154            0.0000000000
     17382      5794  TIP3      H2            -14.3480896295        6.2785828873        3.3697669866  W2        6154            0.0000000000
     17383      5795  TIP3      OH2           -15.3140296295        4.8397528873       16.3616769866  W2        6155            0.0000000000
     17384      5795  TIP3      H1            -15.9324196295        5.5144128873       16.6421469866  W2        6155            0.0000000000
     17385      5795  TIP3      H2            -14.9699096295        5.1611428873       15.5282969866  W2        6155            0.0000000000
     17386      5796  TIP3      OH2           -13.5319196295        5.1902228873        2.2680369866  W2        6156            0.0000000000
     17387      5796  TIP3      H1            -13.7124196295        5.0353428873        1.3408669866  W2        6156            0.0000000000
     17388      5796  TIP3      H2            -12.5818696295        5.2980928873        2.3128269866  W2        6156            0.0000000000
     17389      5797  TIP3      OH2            -4.1420896295        7.5446428873        1.7138469866  W2        6158            0.0000000000
     17390      5797  TIP3      H1             -4.4156096295        7.1201928873        0.9006769866  W2        6158            0.0000000000
     17391      5797  TIP3      H2             -4.1026796295        8.4760928873        1.4968869866  W2        6158            0.0000000000
     17392      5798  TIP3      OH2           -14.9746596295        2.1948328873       17.4439869866  W2        6159            0.0000000000
     17393      5798  TIP3      H1            -14.8245696295        1.4659628873       16.8419569866  W2        6159            0.0000000000
     17394      5798  TIP3      H2            -14.9724196295        2.9720028873       16.8852069866  W2        6159            0.0000000000
     17395      5799  TIP3      OH2           -14.5620896295        0.5644128873       14.9367269866  W2        6160            0.0000000000
     17396      5799  TIP3      H1            -14.0263396295        1.0160828873       14.2846569866  W2        6160            0.0000000000
     17397      5799  TIP3      H2            -15.4141296295        0.4563928873       14.5141369866  W2        6160            0.0000000000
     17398      5800  TIP3      OH2           -12.9802496295        6.0040328873       15.1762469866  W2        6161            0.0000000000
     17399      5800  TIP3      H1            -12.2297696295        5.8477828873       14.6030269866  W2        6161            0.0000000000
     17400      5800  TIP3      H2            -13.3194196295        6.8556928873       14.9007969866  W2        6161            0.0000000000
     17401      5801  TIP3      OH2           -13.7565396295       -1.9790171127       15.3680869866  W2        6165            0.0000000000
     17402      5801  TIP3      H1            -13.8545796295       -1.0326971127       15.2627069866  W2        6165            0.0000000000
     17403      5801  TIP3      H2            -14.4989196295       -2.3516371127       14.8924369866  W2        6165            0.0000000000
     17404      5802  TIP3      OH2           -13.6347496295       15.8805928873        3.2693969866  W2        6172            0.0000000000
     17405      5802  TIP3      H1            -12.7016796295       16.0384628873        3.4132369866  W2        6172            0.0000000000
     17406      5802  TIP3      H2            -13.8988696295       16.5558928873        2.6445469866  W2        6172            0.0000000000
     17407      5803  TIP3      OH2           -20.0662596295       10.5169728873        2.7522069866  W2        6173            0.0000000000
     17408      5803  TIP3      H1            -19.1523396295       10.5958628873        3.0255969866  W2        6173            0.0000000000
     17409      5803  TIP3      H2            -20.0589496295        9.8299328873        2.0857669866  W2        6173            0.0000000000
     17410      5804  TIP3      OH2           -21.4171996295       15.9098228873        7.8295969866  W2        6174            0.0000000000
     17411      5804  TIP3      H1            -22.0644896295       15.4479928873        7.2967169866  W2        6174            0.0000000000
     17412      5804  TIP3      H2            -21.0627396295       15.2381528873        8.4122169866  W2        6174            0.0000000000
     17413      5805  TIP3      OH2           -20.5472796295       13.9905228873        9.6342169866  W2        6175            0.0000000000
     17414      5805  TIP3      H1            -20.8815996295       13.1102528873        9.8062369866  W2        6175            0.0000000000
     17415      5805  TIP3      H2            -20.3250396295       14.3360228873       10.4987769866  W2        6175            0.0000000000
     17416      5806  TIP3      OH2            -2.9987996295       14.8001628873       12.6146969866  W2        6176            0.0000000000
     17417      5806  TIP3      H1             -3.0201296295       14.9850028873       13.5536369866  W2        6176            0.0000000000
     17418      5806  TIP3      H2             -2.3081796295       15.3685628873       12.2738369866  W2        6176            0.0000000000
     17419      5807  TIP3      OH2            -3.4355096295       14.3672728873       15.5366069866  W2        6177            0.0000000000
     17420      5807  TIP3      H1             -3.9226396295       13.6316828873       15.1653469866  W2        6177            0.0000000000
     17421      5807  TIP3      H2             -2.8862396295       13.9736628873       16.2145469866  W2        6177            0.0000000000
     17422      5808  TIP3      OH2            -3.6838096295        8.4134528873        5.6888869866  W2        6179            0.0000000000
     17423      5808  TIP3      H1             -2.8336696295        8.8345428873        5.8160469866  W2        6179            0.0000000000
     17424      5808  TIP3      H2             -3.6782996295        7.6734628873        6.2960269866  W2        6179            0.0000000000
     17425      5809  TIP3      OH2            -3.2892496295        6.4671928873        7.5124569866  W2        6180            0.0000000000
     17426      5809  TIP3      H1             -4.0157896295        5.9874528873        7.9102169866  W2        6180            0.0000000000
     17427      5809  TIP3      H2             -2.7079196295        6.6726628873        8.2446169866  W2        6180            0.0000000000
     17428      5810  TIP3      OH2            -3.5301296295        9.2519428873       12.4602169866  W2        6181            0.0000000000
     17429      5810  TIP3      H1             -2.6967096295        8.8739428873       12.1795769866  W2        6181            0.0000000000
     17430      5810  TIP3      H2             -3.4180996295       10.1950628873       12.3411269866  W2        6181            0.0000000000
     17431      5811  TIP3      OH2            -5.0438996295       12.1296928873       14.7670569866  W2        6182            0.0000000000
     17432      5811  TIP3      H1             -5.6913696295       12.4548428873       15.3925769866  W2        6182            0.0000000000
     17433      5811  TIP3      H2             -5.5614996295       11.6894628873       14.0928869866  W2        6182            0.0000000000
     17434      5812  TIP3      OH2            -3.0209396295        6.3680428873        3.9035869866  W2        6183            0.0000000000
     17435      5812  TIP3      H1             -3.5428296295        6.7244528873        3.1846769866  W2        6183            0.0000000000
     17436      5812  TIP3      H2             -3.0540196295        7.0428228873        4.5816769866  W2        6183            0.0000000000
     17437      5813  TIP3      OH2            -4.6720396295        3.6076028873        2.4542969866  W2        6184            0.0000000000
     17438      5813  TIP3      H1             -4.5755996295        4.2743028873        1.7742669866  W2        6184            0.0000000000
     17439      5813  TIP3      H2             -4.8120796295        2.7922328873        1.9728469866  W2        6184            0.0000000000
     17440      5814  TIP3      OH2            -5.5025696295        4.9878428873        8.0753269866  W2        6185            0.0000000000
     17441      5814  TIP3      H1             -5.6526896295        4.0427028873        8.0551069866  W2        6185            0.0000000000
     17442      5814  TIP3      H2             -5.8561196295        5.2689828873        8.9192369866  W2        6185            0.0000000000
     17443      5815  TIP3      OH2           -20.4673296295        7.0660628873       12.0857069866  W2        6186            0.0000000000
     17444      5815  TIP3      H1            -20.2830396295        6.9842328873       11.1499969866  W2        6186            0.0000000000
     17445      5815  TIP3      H2            -19.6180396295        6.9417628873       12.5093469866  W2        6186            0.0000000000
     17446      5816  TIP3      OH2            -5.4246596295        1.0155828873        1.5718469866  W2        6189            0.0000000000
     17447      5816  TIP3      H1             -4.8140796295        0.6442628873        2.2086669866  W2        6189            0.0000000000
     17448      5816  TIP3      H2             -6.2615096295        0.5942728873        1.7678469866  W2        6189            0.0000000000
     17449      5817  TIP3      OH2            -5.7920896295        2.5704228873        6.5378369866  W2        6190            0.0000000000
     17450      5817  TIP3      H1             -5.5123796295        1.6634628873        6.6620069866  W2        6190            0.0000000000
     17451      5817  TIP3      H2             -5.0329196295        3.0045728873        6.1487569866  W2        6190            0.0000000000
     17452      5818  TIP3      OH2            -5.1802596295        3.1521628873       11.9737269866  W2        6191            0.0000000000
     17453      5818  TIP3      H1             -4.2474596295        3.3641528873       11.9393269866  W2        6191            0.0000000000
     17454      5818  TIP3      H2             -5.4155096295        3.2533728873       12.8960269866  W2        6191            0.0000000000
     17455      5819  TIP3      OH2            -5.1510696295        3.8886928873       14.7496669866  W2        6192            0.0000000000
     17456      5819  TIP3      H1             -5.9939396295        4.1567328873       15.1156469866  W2        6192            0.0000000000
     17457      5819  TIP3      H2             -4.7086396295        4.7108828873       14.5387769866  W2        6192            0.0000000000
     17458      5820  TIP3      OH2            -5.1786096295       -0.1666471127        6.5860369866  W2        6195            0.0000000000
     17459      5820  TIP3      H1             -4.9961096295       -0.6154971127        7.4115369866  W2        6195            0.0000000000
     17460      5820  TIP3      H2             -5.7783196295       -0.7512071127        6.1224969866  W2        6195            0.0000000000
     17461      5821  TIP3      OH2           -19.6485996295        0.6487228873       11.1178769866  W2        6196            0.0000000000
     17462      5821  TIP3      H1            -19.2034396295       -0.1430271127       11.4198469866  W2        6196            0.0000000000
     17463      5821  TIP3      H2            -19.1822996295        1.3652428873       11.5484369866  W2        6196            0.0000000000
     17464      5822  TIP3      OH2           -21.3445696295        3.6480228873       12.1868969866  W2        6197            0.0000000000
     17465      5822  TIP3      H1            -20.8525896295        3.4270728873       11.3960969866  W2        6197            0.0000000000
     17466      5822  TIP3      H2            -20.9824796295        4.4883628873       12.4678469866  W2        6197            0.0000000000
     17467      5823  TIP3      OH2            -3.3119896295       -0.0988371127        3.1140669866  W2        6199            0.0000000000
     17468      5823  TIP3      H1             -2.8997296295       -0.8202671127        2.6388669866  W2        6199            0.0000000000
     17469      5823  TIP3      H2             -2.6303396295        0.5706228873        3.1724969866  W2        6199            0.0000000000
     17470      5824  TIP3      OH2           -21.0309196295       -0.0940671127        6.2411369866  W2        6200            0.0000000000
     17471      5824  TIP3      H1            -21.9560796295        0.1145928873        6.1116869866  W2        6200            0.0000000000
     17472      5824  TIP3      H2            -20.5769296295        0.3900128873        5.5513669866  W2        6200            0.0000000000
     17473      5825  TIP3      OH2            -6.2601996295       14.8901028873        8.1868769866  W2        6201            0.0000000000
     17474      5825  TIP3      H1             -5.6079096295       14.5423128873        7.5787869866  W2        6201            0.0000000000
     17475      5825  TIP3      H2             -5.7498196295       15.3784228873        8.8328469866  W2        6201            0.0000000000
     17476      5826  TIP3      OH2           -21.0673796295       -1.3561671127       14.5853869866  W2        6202            0.0000000000
     17477      5826  TIP3      H1            -21.7323296295       -1.6021371127       15.2284769866  W2        6202            0.0000000000
     17478      5826  TIP3      H2            -21.5102496295       -0.7341271127       14.0081869866  W2        6202            0.0000000000
     17479      5827  TIP3      OH2           -15.9211596295       12.7933628873       14.9883669866  W2        6204            0.0000000000
     17480      5827  TIP3      H1            -16.3460496295       13.6032128873       14.7058269866  W2        6204            0.0000000000
     17481      5827  TIP3      H2            -15.0168796295       12.8787728873       14.6863469866  W2        6204            0.0000000000
     17482      5828  TIP3      OH2            -9.2649796295       15.4782528873       17.1918769866  W2        6206            0.0000000000
     17483      5828  TIP3      H1             -8.5880896295       14.8454828873       16.9517969866  W2        6206            0.0000000000
     17484      5828  TIP3      H2             -8.9430996295       15.8793028873       17.9992069866  W2        6206            0.0000000000
     17485      5829  TIP3      OH2            -4.3475996295       -1.9321971127       16.2713769866  W2        6207            0.0000000000
     17486      5829  TIP3      H1             -5.1602496295       -1.6071671127       15.8838469866  W2        6207            0.0000000000
     17487      5829  TIP3      H2             -4.1147496295       -2.6923471127       15.7382869866  W2        6207            0.0000000000
     17488      5830  TIP3      OH2           -18.5194896295       16.0497528873       15.0358969866  W2        6208            0.0000000000
     17489      5830  TIP3      H1            -19.2398496295       16.4898528873       14.5846669866  W2        6208            0.0000000000
     17490      5830  TIP3      H2            -18.8850896295       15.7992228873       15.8842969866  W2        6208            0.0000000000
     17491      5831  TIP3      OH2           -16.0522296295       15.6501428873       14.0656169866  W2        6209            0.0000000000
     17492      5831  TIP3      H1            -16.9170096295       15.7219928873       14.4696269866  W2        6209            0.0000000000
     17493      5831  TIP3      H2            -16.1073296295       16.1968728873       13.2818669866  W2        6209            0.0000000000
     17494      5832  TIP3      OH2           -11.3416696295       15.5380328873       13.2412169866  W2        6210            0.0000000000
     17495      5832  TIP3      H1            -11.7982696295       16.0670028873       12.5870569866  W2        6210            0.0000000000
     17496      5832  TIP3      H2            -11.1788696295       16.1411728873       13.9664469866  W2        6210            0.0000000000
     17497      5833  TIP3      OH2            -9.0140396295       14.4159928873       14.1862469866  W2        6211            0.0000000000
     17498      5833  TIP3      H1             -9.9186696295       14.5810128873       13.9204569866  W2        6211            0.0000000000
     17499      5833  TIP3      H2             -8.5851796295       15.2692128873       14.1205869866  W2        6211            0.0000000000
     17500      5834  TIP3      OH2            -6.4098496295       15.9859028873       14.4810269866  W2        6212            0.0000000000
     17501      5834  TIP3      H1             -6.5916496295       16.9017928873       14.2705169866  W2        6212            0.0000000000
     17502      5834  TIP3      H2             -6.2330696295       15.5756128873       13.6344869866  W2        6212            0.0000000000
     17503      5835  TIP3      OH2           -19.1046796295       14.6730028873       11.9460769866  W2        6213            0.0000000000
     17504      5835  TIP3      H1            -19.1230796295       14.2475128873       12.8033069866  W2        6213            0.0000000000
     17505      5835  TIP3      H2            -18.2998896295       14.3545028873       11.5372969866  W2        6213            0.0000000000
     17506      5836  TIP3      OH2           -16.9633696295       13.3828728873       10.6010669866  W2        6214            0.0000000000
     17507      5836  TIP3      H1            -17.1822996295       12.4666128873       10.7706669866  W2        6214            0.0000000000
     17508      5836  TIP3      H2            -16.1391496295       13.5229128873       11.0672069866  W2        6214            0.0000000000
     17509      5837  TIP3      OH2           -14.4261196295       13.8528028873       11.4498669866  W2        6215            0.0000000000
     17510      5837  TIP3      H1            -14.2135496295       12.9647028873       11.1629569866  W2        6215            0.0000000000
     17511      5837  TIP3      H2            -14.3616096295       13.8185728873       12.4042669866  W2        6215            0.0000000000
     17512      5838  TIP3      OH2           -10.9177496295       -0.4831371127       10.5941969866  W2        6216            0.0000000000
     17513      5838  TIP3      H1            -11.5920696295       -1.1125771127       10.8497769866  W2        6216            0.0000000000
     17514      5838  TIP3      H2            -10.3538296295       -0.9672471127        9.9909869866  W2        6216            0.0000000000
     17515      5839  TIP3      OH2            -5.7750296295       -2.3757371127       10.7069069866  W2        6217            0.0000000000
     17516      5839  TIP3      H1             -5.1712696295       -1.8281971127       10.2050069866  W2        6217            0.0000000000
     17517      5839  TIP3      H2             -6.6448296295       -2.0566971127       10.4663169866  W2        6217            0.0000000000
     17518      5840  TIP3      OH2            -4.0479896295       -1.2368671127        9.0399969866  W2        6218            0.0000000000
     17519      5840  TIP3      H1             -3.4362396295       -1.7512971127        8.5133569866  W2        6218            0.0000000000
     17520      5840  TIP3      H2             -3.6656496295       -0.3596571127        9.0634369866  W2        6218            0.0000000000
     17521      5841  TIP3      OH2           -18.5909996295       -1.8491071127        8.4161869866  W2        6219            0.0000000000
     17522      5841  TIP3      H1            -19.3680196295       -2.0836171127        7.9087769866  W2        6219            0.0000000000
     17523      5841  TIP3      H2            -18.0606396295       -2.6458971127        8.4249869866  W2        6219            0.0000000000
     17524      5842  TIP3      OH2           -19.7546596295       -2.0512971127        4.2197969866  W2        6220            0.0000000000
     17525      5842  TIP3      H1            -19.3155896295       -1.4402471127        3.6281469866  W2        6220            0.0000000000
     17526      5842  TIP3      H2            -20.3884196295       -1.5128871127        4.6937969866  W2        6220            0.0000000000
     17527      5843  TIP3      OH2           -14.0117396295       -1.9223971127        8.2294969866  W2        6221            0.0000000000
     17528      5843  TIP3      H1            -13.1373996295       -1.5339671127        8.1999269866  W2        6221            0.0000000000
     17529      5843  TIP3      H2            -14.1476596295       -2.1376171127        9.1522169866  W2        6221            0.0000000000
     17530      5844  TIP3      OH2            -8.4548996295       -1.8924171127        9.8786669866  W2        6222            0.0000000000
     17531      5844  TIP3      H1             -8.3787396295       -1.7972571127        8.9292669866  W2        6222            0.0000000000
     17532      5844  TIP3      H2             -8.7299796295       -2.8001271127       10.0075769866  W2        6222            0.0000000000
     17533      5845  TIP3      OH2            -7.1016396295       -1.8666371127        5.5711669866  W2        6223            0.0000000000
     17534      5845  TIP3      H1             -7.8045296295       -1.2517171127        5.3613069866  W2        6223            0.0000000000
     17535      5845  TIP3      H2             -7.5464996295       -2.7039671127        5.7022569866  W2        6223            0.0000000000
     17536      5846  TIP3      OH2           -19.8537096295       13.8969228873        5.1173069866  W2        6224            0.0000000000
     17537      5846  TIP3      H1            -20.5387196295       13.8588128873        4.4498169866  W2        6224            0.0000000000
     17538      5846  TIP3      H2            -19.8499896295       14.8096828873        5.4055169866  W2        6224            0.0000000000
     17539      5847  TIP3      OH2           -17.8937496295       -0.1351471127        2.6622069866  W2        6225            0.0000000000
     17540      5847  TIP3      H1            -17.4024096295       -0.7649071127        2.1347569866  W2        6225            0.0000000000
     17541      5847  TIP3      H2            -17.2701196295        0.1607928873        3.3253269866  W2        6225            0.0000000000
     17542      5848  TIP3      OH2           -12.8677396295        0.1580028873        5.1192569866  W2        6226            0.0000000000
     17543      5848  TIP3      H1            -12.6896096295       -0.4886771127        5.8021169866  W2        6226            0.0000000000
     17544      5848  TIP3      H2            -12.9211196295        0.9917728873        5.5863669866  W2        6226            0.0000000000
     17545      5849  TIP3      OH2           -10.9893596295       15.1064128873        3.5149269866  W2        6227            0.0000000000
     17546      5849  TIP3      H1            -10.1233396295       15.4731528873        3.3367469866  W2        6227            0.0000000000
     17547      5849  TIP3      H2            -11.2360796295       14.6672128873        2.7010069866  W2        6227            0.0000000000
     17548      5850  TIP3      OH2            -4.2803996295       14.6694428873        6.1940369866  W2        6228            0.0000000000
     17549      5850  TIP3      H1             -4.4746896295       13.9216528873        5.6289969866  W2        6228            0.0000000000
     17550      5850  TIP3      H2             -4.3193896295       15.4274528873        5.6108269866  W2        6228            0.0000000000
     17551      5851  TIP3      OH2           -18.0355896295       14.8170028873        2.1425169866  W2        6231            0.0000000000
     17552      5851  TIP3      H1            -18.3031296295       15.1032928873        3.0158269866  W2        6231            0.0000000000
     17553      5851  TIP3      H2            -17.2643296295       14.2709228873        2.2947669866  W2        6231            0.0000000000
     17554      5852  TIP3      OH2             9.3432603705        7.3071228873        8.3749369866  W2        6234            0.0000000000
     17555      5852  TIP3      H1              9.4323703705        8.2509428873        8.2426469866  W2        6234            0.0000000000
     17556      5852  TIP3      H2              8.7050203705        7.0317628873        7.7168769866  W2        6234            0.0000000000
     17557      5853  TIP3      OH2             8.2763903705        6.5621928873       11.7937569866  W2        6235            0.0000000000
     17558      5853  TIP3      H1              8.2381403705        5.9158228873       12.4987169866  W2        6235            0.0000000000
     17559      5853  TIP3      H2              7.9540403705        6.0956328873       11.0226269866  W2        6235            0.0000000000
     17560      5854  TIP3      OH2             0.6448903705        6.1764028873       13.3867469866  W2        6236            0.0000000000
     17561      5854  TIP3      H1              0.6861003705        5.5507328873       14.1099869866  W2        6236            0.0000000000
     17562      5854  TIP3      H2              1.3476603705        6.8002628873       13.5687869866  W2        6236            0.0000000000
     17563      5855  TIP3      OH2            11.9824103705        9.5012328873       10.0952669866  W2        6237            0.0000000000
     17564      5855  TIP3      H1             11.5416803705        8.7808328873       10.5458269866  W2        6237            0.0000000000
     17565      5855  TIP3      H2             11.9693803705       10.2219528873       10.7250369866  W2        6237            0.0000000000
     17566      5856  TIP3      OH2             1.5682003705       10.6262928873       11.9216569866  W2        6238            0.0000000000
     17567      5856  TIP3      H1              1.1987203705        9.8243428873       11.5520869866  W2        6238            0.0000000000
     17568      5856  TIP3      H2              2.5093103705       10.4577828873       11.9679969866  W2        6238            0.0000000000
     17569      5857  TIP3      OH2            -1.8217496295        4.2865528873        7.3145369866  W2        6239            0.0000000000
     17570      5857  TIP3      H1             -2.2694096295        5.1324228873        7.2961869866  W2        6239            0.0000000000
     17571      5857  TIP3      H2             -2.3826296295        3.7069728873        6.7990469866  W2        6239            0.0000000000
     17572      5858  TIP3      OH2            -1.1111396295        6.4485128873        9.4403369866  W2        6240            0.0000000000
     17573      5858  TIP3      H1             -0.8977896295        5.6786728873        9.9676369866  W2        6240            0.0000000000
     17574      5858  TIP3      H2             -0.3733796295        6.5381828873        8.8370969866  W2        6240            0.0000000000
     17575      5859  TIP3      OH2             9.0939603705       14.6054028873       10.3073069866  W2        6241            0.0000000000
     17576      5859  TIP3      H1              9.7136003705       13.9288728873       10.0342269866  W2        6241            0.0000000000
     17577      5859  TIP3      H2              8.8857003705       14.3874828873       11.2157969866  W2        6241            0.0000000000
     17578      5860  TIP3      OH2             6.6658303705        8.9943328873       12.1998569866  W2        6242            0.0000000000
     17579      5860  TIP3      H1              6.9696203705        8.3084728873       11.6052669866  W2        6242            0.0000000000
     17580      5860  TIP3      H2              7.3872303705        9.1132028873       12.8176569866  W2        6242            0.0000000000
     17581      5861  TIP3      OH2            15.3288103705        0.5958628873       13.0604769866  W2        6243            0.0000000000
     17582      5861  TIP3      H1             15.3780303705        1.2059828873       13.7963869866  W2        6243            0.0000000000
     17583      5861  TIP3      H2             15.7543203705        1.0569528873       12.3375869866  W2        6243            0.0000000000
     17584      5862  TIP3      OH2             9.8065303705        3.3885728873       12.5273369866  W2        6244            0.0000000000
     17585      5862  TIP3      H1              9.9491203705        2.4422728873       12.5474969866  W2        6244            0.0000000000
     17586      5862  TIP3      H2              9.7004303705        3.5955528873       11.5988269866  W2        6244            0.0000000000
     17587      5863  TIP3      OH2             2.9613603705        1.4902128873        9.7998169866  W2        6245            0.0000000000
     17588      5863  TIP3      H1              3.0044703705        2.3500628873        9.3814469866  W2        6245            0.0000000000
     17589      5863  TIP3      H2              2.5037703705        0.9376828873        9.1661369866  W2        6245            0.0000000000
     17590      5864  TIP3      OH2            10.6836303705        1.6207728873        8.2006469866  W2        6246            0.0000000000
     17591      5864  TIP3      H1             11.3300603705        1.2920928873        8.8254069866  W2        6246            0.0000000000
     17592      5864  TIP3      H2             11.1935703705        2.1386728873        7.5777869866  W2        6246            0.0000000000
     17593      5865  TIP3      OH2            -0.4184896295        3.8867928873       10.5619569866  W2        6247            0.0000000000
     17594      5865  TIP3      H1              0.2351703705        3.3369628873       10.9939669866  W2        6247            0.0000000000
     17595      5865  TIP3      H2             -0.3945596295        3.6126928873        9.6451569866  W2        6247            0.0000000000
     17596      5866  TIP3      OH2             4.7379603705        5.4369228873        9.7771069866  W2        6248            0.0000000000
     17597      5866  TIP3      H1              5.3540603705        4.9104628873       10.2865069866  W2        6248            0.0000000000
     17598      5866  TIP3      H2              4.1518403705        4.7967928873        9.3734669866  W2        6248            0.0000000000
     17599      5867  TIP3      OH2            15.7202703705        2.0737828873       15.2964569866  W2        6249            0.0000000000
     17600      5867  TIP3      H1             15.0317303705        2.7318528873       15.2011169866  W2        6249            0.0000000000
     17601      5867  TIP3      H2             15.7357303705        1.8765728873       16.2329969866  W2        6249            0.0000000000
     17602      5868  TIP3      OH2             1.7715503705        0.4080528873       13.8738969866  W2        6250            0.0000000000
     17603      5868  TIP3      H1              1.5527203705        0.9381128873       13.1074969866  W2        6250            0.0000000000
     17604      5868  TIP3      H2              1.1036403705        0.6346028873       14.5210369866  W2        6250            0.0000000000
     17605      5869  TIP3      OH2             9.1405303705        9.9081628873        7.4178069866  W2        6251            0.0000000000
     17606      5869  TIP3      H1              8.8450403705        9.5853928873        6.5664969866  W2        6251            0.0000000000
     17607      5869  TIP3      H2              8.8163103705       10.8078328873        7.4590669866  W2        6251            0.0000000000
     17608      5870  TIP3      OH2             4.3406903705        8.0836228873       14.1612669866  W2        6252            0.0000000000
     17609      5870  TIP3      H1              3.6006003705        8.6817728873       14.2647869866  W2        6252            0.0000000000
     17610      5870  TIP3      H2              5.0546403705        8.6375828873       13.8456269866  W2        6252            0.0000000000
     17611      5871  TIP3      OH2            12.4474703705        0.9117028873       10.1812369866  W2        6253            0.0000000000
     17612      5871  TIP3      H1             12.2322703705        0.1460428873       10.7138369866  W2        6253            0.0000000000
     17613      5871  TIP3      H2             13.1032103705        1.3841628873       10.6940869866  W2        6253            0.0000000000
     17614      5872  TIP3      OH2             1.3652803705        2.3002328873       11.8261169866  W2        6254            0.0000000000
     17615      5872  TIP3      H1              1.9789103705        2.9329928873       12.1993569866  W2        6254            0.0000000000
     17616      5872  TIP3      H2              1.8773503705        1.8277328873       11.1698069866  W2        6254            0.0000000000
     17617      5873  TIP3      OH2             2.7481203705       10.0479228873       14.9484169866  W2        6255            0.0000000000
     17618      5873  TIP3      H1              2.7428803705       10.9272728873       14.5703469866  W2        6255            0.0000000000
     17619      5873  TIP3      H2              1.8945303705        9.9643328873       15.3734069866  W2        6255            0.0000000000
     17620      5874  TIP3      OH2            -1.1307896295        9.7187128873        5.7303469866  W2        6256            0.0000000000
     17621      5874  TIP3      H1             -1.4026996295        9.9478128873        4.8416369866  W2        6256            0.0000000000
     17622      5874  TIP3      H2             -1.0852196295       10.5565928873        6.1908769866  W2        6256            0.0000000000
     17623      5875  TIP3      OH2            12.4941803705       11.3403028873       12.4431969866  W2        6257            0.0000000000
     17624      5875  TIP3      H1             11.5525503705       11.3986928873       12.6048869866  W2        6257            0.0000000000
     17625      5875  TIP3      H2             12.7707903705       12.2463528873       12.3061669866  W2        6257            0.0000000000
     17626      5876  TIP3      OH2            12.7948803705       -0.3731671127       13.8605869866  W2        6258            0.0000000000
     17627      5876  TIP3      H1             12.0588003705        0.2375428873       13.8227169866  W2        6258            0.0000000000
     17628      5876  TIP3      H2             13.4782803705        0.0417328873       13.3342269866  W2        6258            0.0000000000
     17629      5877  TIP3      OH2             5.7980203705       -2.2864371127       11.3263869866  W2        6259            0.0000000000
     17630      5877  TIP3      H1              5.6804403705       -3.2348371127       11.2722169866  W2        6259            0.0000000000
     17631      5877  TIP3      H2              4.9430303705       -1.9538271127       11.5994969866  W2        6259            0.0000000000
     17632      5878  TIP3      OH2            10.7463003705       13.1216528873        9.0683569866  W2        6260            0.0000000000
     17633      5878  TIP3      H1             11.1715303705       12.4144428873        8.5833169866  W2        6260            0.0000000000
     17634      5878  TIP3      H2             11.0633003705       13.9229228873        8.6515769866  W2        6260            0.0000000000
     17635      5879  TIP3      OH2            11.9059503705       11.0225028873        7.5770169866  W2        6261            0.0000000000
     17636      5879  TIP3      H1             11.6484303705       10.3325128873        6.9656069866  W2        6261            0.0000000000
     17637      5879  TIP3      H2             11.9770303705       10.5796228873        8.4226069866  W2        6261            0.0000000000
     17638      5880  TIP3      OH2            13.5919703705        9.5891728873       16.0543669866  W2        6262            0.0000000000
     17639      5880  TIP3      H1             13.7316003705        8.9974228873       15.3150669866  W2        6262            0.0000000000
     17640      5880  TIP3      H2             13.7592503705       10.4617628873       15.6982469866  W2        6262            0.0000000000
     17641      5881  TIP3      OH2             8.0645103705        6.5511228873        5.8269669866  W2        6263            0.0000000000
     17642      5881  TIP3      H1              7.3530603705        7.0860928873        5.4750169866  W2        6263            0.0000000000
     17643      5881  TIP3      H2              8.7554703705        6.6063328873        5.1668569866  W2        6263            0.0000000000
     17644      5882  TIP3      OH2             8.1184303705        5.0085528873        2.8654669866  W2        6264            0.0000000000
     17645      5882  TIP3      H1              8.8194203705        5.0312428873        3.5168669866  W2        6264            0.0000000000
     17646      5882  TIP3      H2              8.4207203705        4.3805228873        2.2093969866  W2        6264            0.0000000000
     17647      5883  TIP3      OH2            15.4339003705        5.9289728873       14.1204069866  W2        6265            0.0000000000
     17648      5883  TIP3      H1             14.7813103705        6.6235328873       14.2094969866  W2        6265            0.0000000000
     17649      5883  TIP3      H2             15.8989303705        6.1390628873       13.3105669866  W2        6265            0.0000000000
     17650      5884  TIP3      OH2            11.4702803705        6.7604528873        6.7785569866  W2        6266            0.0000000000
     17651      5884  TIP3      H1             10.7383803705        6.9888228873        7.3516169866  W2        6266            0.0000000000
     17652      5884  TIP3      H2             11.9175003705        6.0467228873        7.2333069866  W2        6266            0.0000000000
     17653      5885  TIP3      OH2            11.3676303705        4.9347128873       15.8462569866  W2        6267            0.0000000000
     17654      5885  TIP3      H1             11.4475403705        5.6981528873       16.4181069866  W2        6267            0.0000000000
     17655      5885  TIP3      H2             10.7664003705        5.2139528873       15.1557669866  W2        6267            0.0000000000
     17656      5886  TIP3      OH2             3.1156503705        7.3910728873        8.6610569866  W2        6268            0.0000000000
     17657      5886  TIP3      H1              2.7851703705        7.0204128873        7.8427569866  W2        6268            0.0000000000
     17658      5886  TIP3      H2              3.7040603705        6.7204728873        9.0078869866  W2        6268            0.0000000000
     17659      5887  TIP3      OH2             4.4824003705       10.8191328873       11.3422769866  W2        6269            0.0000000000
     17660      5887  TIP3      H1              4.3875303705       10.2404428873       10.5857369866  W2        6269            0.0000000000
     17661      5887  TIP3      H2              5.2117603705       10.4477028873       11.8385569866  W2        6269            0.0000000000
     17662      5888  TIP3      OH2             3.4822003705        6.1596328873       12.2945569866  W2        6270            0.0000000000
     17663      5888  TIP3      H1              4.0474503705        6.2810528873       11.5316769866  W2        6270            0.0000000000
     17664      5888  TIP3      H2              3.8010903705        6.7971328873       12.9334069866  W2        6270            0.0000000000
     17665      5889  TIP3      OH2             9.7914203705       11.6628228873       13.0286069866  W2        6271            0.0000000000
     17666      5889  TIP3      H1              9.5510803705       12.3251328873       13.6765269866  W2        6271            0.0000000000
     17667      5889  TIP3      H2              9.5932403705       10.8283428873       13.4535669866  W2        6271            0.0000000000
     17668      5890  TIP3      OH2             4.3622703705       10.5589028873       17.0117469866  W2        6272            0.0000000000
     17669      5890  TIP3      H1              4.0510203705       11.3412228873       17.4670669866  W2        6272            0.0000000000
     17670      5890  TIP3      H2              3.7122903705       10.4058128873       16.3259469866  W2        6272            0.0000000000
     17671      5891  TIP3      OH2            10.3412303705        5.9227428873        4.4636769866  W2        6273            0.0000000000
     17672      5891  TIP3      H1             10.9207803705        6.0727728873        5.2105669866  W2        6273            0.0000000000
     17673      5891  TIP3      H2             10.7552303705        6.3934828873        3.7403169866  W2        6273            0.0000000000
     17674      5892  TIP3      OH2             1.2822603705        6.7570128873       16.2403169866  W2        6274            0.0000000000
     17675      5892  TIP3      H1              1.3525803705        7.4076928873       16.9388169866  W2        6274            0.0000000000
     17676      5892  TIP3      H2              0.3914803705        6.8597628873       15.9054069866  W2        6274            0.0000000000
     17677      5893  TIP3      OH2             8.0677203705       12.6595928873        7.8989869866  W2        6275            0.0000000000
     17678      5893  TIP3      H1              8.5414803705       12.9552228873        8.6764069866  W2        6275            0.0000000000
     17679      5893  TIP3      H2              7.5046503705       13.3977528873        7.6659469866  W2        6275            0.0000000000
     17680      5894  TIP3      OH2            14.0400703705       -2.3272171127        4.2766469866  W2        6277            0.0000000000
     17681      5894  TIP3      H1             13.1401403705       -2.1883171127        4.5717069866  W2        6277            0.0000000000
     17682      5894  TIP3      H2             14.2919103705       -1.4957571127        3.8748169866  W2        6277            0.0000000000
     17683      5895  TIP3      OH2             2.1059203705        6.4605028873        6.2503369866  W2        6278            0.0000000000
     17684      5895  TIP3      H1              1.8140503705        7.2286728873        5.7594669866  W2        6278            0.0000000000
     17685      5895  TIP3      H2              1.4314403705        5.8011228873        6.0874769866  W2        6278            0.0000000000
     17686      5896  TIP3      OH2            15.2292103705       12.0390228873        2.6530369866  W2        6279            0.0000000000
     17687      5896  TIP3      H1             15.3025603705       12.9780428873        2.8235669866  W2        6279            0.0000000000
     17688      5896  TIP3      H2             16.1347203705       11.7338828873        2.5967669866  W2        6279            0.0000000000
     17689      5897  TIP3      OH2            -1.8010696295        8.8234228873       15.0653169866  W2        6280            0.0000000000
     17690      5897  TIP3      H1             -2.3022296295        8.7953628873       14.2502869866  W2        6280            0.0000000000
     17691      5897  TIP3      H2             -1.7956996295        7.9177428873       15.3750469866  W2        6280            0.0000000000
     17692      5898  TIP3      OH2            -2.0507996295       11.6038028873       11.9493369866  W2        6281            0.0000000000
     17693      5898  TIP3      H1             -1.1047396295       11.4595028873       11.9302869866  W2        6281            0.0000000000
     17694      5898  TIP3      H2             -2.1631696295       12.3880828873       12.4864569866  W2        6281            0.0000000000
     17695      5899  TIP3      OH2             7.1254503705       11.8436928873       16.5078469866  W2        6283            0.0000000000
     17696      5899  TIP3      H1              7.2129103705       12.6701528873       16.9827569866  W2        6283            0.0000000000
     17697      5899  TIP3      H2              6.2619603705       11.5140728873       16.7567769866  W2        6283            0.0000000000
     17698      5900  TIP3      OH2             7.5400303705       15.6160628873        6.3139069866  W2        6284            0.0000000000
     17699      5900  TIP3      H1              7.4646303705       15.4947828873        5.3674269866  W2        6284            0.0000000000
     17700      5900  TIP3      H2              7.5729003705       16.5653328873        6.4323669866  W2        6284            0.0000000000
     17701      5901  TIP3      OH2             1.1934103705       14.4047628873        8.0948069866  W2        6285            0.0000000000
     17702      5901  TIP3      H1              1.3454503705       14.0568028873        8.9734569866  W2        6285            0.0000000000
     17703      5901  TIP3      H2              0.3424503705       14.0484928873        7.8395269866  W2        6285            0.0000000000
     17704      5902  TIP3      OH2            10.6416303705       14.7700828873        3.3161469866  W2        6286            0.0000000000
     17705      5902  TIP3      H1             11.0164703705       14.0256928873        2.8454069866  W2        6286            0.0000000000
     17706      5902  TIP3      H2             10.6460003705       14.5001428873        4.2344769866  W2        6286            0.0000000000
     17707      5903  TIP3      OH2            10.3104403705       14.6957928873        6.0653669866  W2        6287            0.0000000000
     17708      5903  TIP3      H1              9.3754203705       14.7959828873        6.2440669866  W2        6287            0.0000000000
     17709      5903  TIP3      H2             10.5906303705       13.9863928873        6.6436869866  W2        6287            0.0000000000
     17710      5904  TIP3      OH2             0.4479803705       10.1469628873       16.1085969866  W2        6289            0.0000000000
     17711      5904  TIP3      H1              0.6641103705        9.7855228873       16.9681769866  W2        6289            0.0000000000
     17712      5904  TIP3      H2             -0.4075496295        9.7723428873       15.8989469866  W2        6289            0.0000000000
     17713      5905  TIP3      OH2             3.0667803705       -1.3829871127       12.1040169866  W2        6290            0.0000000000
     17714      5905  TIP3      H1              2.2051503705       -1.4701671127       11.6963069866  W2        6290            0.0000000000
     17715      5905  TIP3      H2              3.0443503705       -0.5269771127       12.5317769866  W2        6290            0.0000000000
     17716      5906  TIP3      OH2             7.7295603705       -1.6609471127       15.4787169866  W2        6291            0.0000000000
     17717      5906  TIP3      H1              8.1498703705       -2.0762371127       16.2317769866  W2        6291            0.0000000000
     17718      5906  TIP3      H2              6.7965203705       -1.8396171127       15.5959169866  W2        6291            0.0000000000
     17719      5907  TIP3      OH2            11.0560503705        2.0945728873       16.3321669866  W2        6292            0.0000000000
     17720      5907  TIP3      H1             10.5420003705        1.9687928873       17.1297669866  W2        6292            0.0000000000
     17721      5907  TIP3      H2             10.9005203705        3.0068828873       16.0877869866  W2        6292            0.0000000000
     17722      5908  TIP3      OH2            11.8185403705        6.9555728873        2.0934669866  W2        6293            0.0000000000
     17723      5908  TIP3      H1             11.8606203705        6.7329628873        1.1634669866  W2        6293            0.0000000000
     17724      5908  TIP3      H2             12.6677503705        7.3542828873        2.2834569866  W2        6293            0.0000000000
     17725      5909  TIP3      OH2             7.3912903705        0.8313928873        2.7637969866  W2        6294            0.0000000000
     17726      5909  TIP3      H1              7.1377703705        0.8505528873        3.6866069866  W2        6294            0.0000000000
     17727      5909  TIP3      H2              7.1345003705       -0.0400671127        2.4624169866  W2        6294            0.0000000000
     17728      5910  TIP3      OH2             3.1577903705        3.5824628873       13.1990369866  W2        6295            0.0000000000
     17729      5910  TIP3      H1              2.5160003705        3.5421928873       13.9080469866  W2        6295            0.0000000000
     17730      5910  TIP3      H2              3.1949903705        4.5089328873       12.9613369866  W2        6295            0.0000000000
     17731      5911  TIP3      OH2             3.1547003705        3.8034728873        8.1110369866  W2        6296            0.0000000000
     17732      5911  TIP3      H1              2.2619903705        3.4630828873        8.0524169866  W2        6296            0.0000000000
     17733      5911  TIP3      H2              3.6053603705        3.4265628873        7.3553569866  W2        6296            0.0000000000
     17734      5912  TIP3      OH2             8.6902503705        4.2195028873        6.9281169866  W2        6297            0.0000000000
     17735      5912  TIP3      H1              8.2812803705        5.0343628873        6.6365969866  W2        6297            0.0000000000
     17736      5912  TIP3      H2              9.4108703705        4.0795128873        6.3138269866  W2        6297            0.0000000000
     17737      5913  TIP3      OH2             9.6950203705        3.6655428873        9.7420869866  W2        6299            0.0000000000
     17738      5913  TIP3      H1              9.4994703705        4.2712228873        9.0271469866  W2        6299            0.0000000000
     17739      5913  TIP3      H2              9.8762803705        2.8320628873        9.3077169866  W2        6299            0.0000000000
     17740      5914  TIP3      OH2             0.9078403705        3.9028128873       15.0662369866  W2        6300            0.0000000000
     17741      5914  TIP3      H1              0.8697803705        4.3029728873       15.9349469866  W2        6300            0.0000000000
     17742      5914  TIP3      H2              0.4169503705        3.0860528873       15.1565269866  W2        6300            0.0000000000
     17743      5915  TIP3      OH2             4.2735803705        1.2770428873        1.8648369866  W2        6301            0.0000000000
     17744      5915  TIP3      H1              3.8426503705        0.8320528873        2.5945769866  W2        6301            0.0000000000
     17745      5915  TIP3      H2              3.5554503705        1.6486728873        1.3525869866  W2        6301            0.0000000000
     17746      5916  TIP3      OH2            -2.4840796295        1.0189928873        8.9167069866  W2        6302            0.0000000000
     17747      5916  TIP3      H1             -1.8533096295        0.9902028873        9.6360969866  W2        6302            0.0000000000
     17748      5916  TIP3      H2             -2.0346496295        0.5938628873        8.1862969866  W2        6302            0.0000000000
     17749      5917  TIP3      OH2            -1.2098696295        1.7651928873        4.3407469866  W2        6303            0.0000000000
     17750      5917  TIP3      H1             -0.7356996295        2.3561828873        3.7558369866  W2        6303            0.0000000000
     17751      5917  TIP3      H2             -1.9272296295        2.2954828873        4.6877569866  W2        6303            0.0000000000
     17752      5918  TIP3      OH2             8.9589403705        5.3036728873       14.4133269866  W2        6304            0.0000000000
     17753      5918  TIP3      H1              9.2824203705        4.6726428873       13.7703769866  W2        6304            0.0000000000
     17754      5918  TIP3      H2              8.5188703705        4.7688928873       15.0740669866  W2        6304            0.0000000000
     17755      5919  TIP3      OH2             5.7362303705        1.2312228873        9.1974469866  W2        6305            0.0000000000
     17756      5919  TIP3      H1              4.8253403705        1.2879028873        9.4860469866  W2        6305            0.0000000000
     17757      5919  TIP3      H2              6.2415203705        1.1707728873       10.0081669866  W2        6305            0.0000000000
     17758      5920  TIP3      OH2             0.5645703705        2.8598528873        8.0242069866  W2        6306            0.0000000000
     17759      5920  TIP3      H1             -0.3246296295        2.9594028873        7.6841669866  W2        6306            0.0000000000
     17760      5920  TIP3      H2              0.8610603705        2.0181528873        7.6779969866  W2        6306            0.0000000000
     17761      5921  TIP3      OH2             4.2177503705        2.8601128873        5.6806669866  W2        6307            0.0000000000
     17762      5921  TIP3      H1              5.1493003705        2.9891128873        5.8589769866  W2        6307            0.0000000000
     17763      5921  TIP3      H2              4.0027803705        3.5295428873        5.0311369866  W2        6307            0.0000000000
     17764      5922  TIP3      OH2            10.1414203705        0.4658528873       12.4616269866  W2        6308            0.0000000000
     17765      5922  TIP3      H1              9.4645803705        0.5971628873       13.1255969866  W2        6308            0.0000000000
     17766      5922  TIP3      H2              9.6559103705        0.3108028873       11.6513969866  W2        6308            0.0000000000
     17767      5923  TIP3      OH2             2.8917703705        4.0543328873        3.2472769866  W2        6309            0.0000000000
     17768      5923  TIP3      H1              2.3492803705        3.6747128873        2.5560369866  W2        6309            0.0000000000
     17769      5923  TIP3      H2              3.7252603705        4.2488028873        2.8186869866  W2        6309            0.0000000000
     17770      5924  TIP3      OH2             7.0562003705        4.0185228873       11.0844069866  W2        6312            0.0000000000
     17771      5924  TIP3      H1              7.6205403705        3.4721828873       10.5373669866  W2        6312            0.0000000000
     17772      5924  TIP3      H2              6.9085403705        3.4967128873       11.8731669866  W2        6312            0.0000000000
     17773      5925  TIP3      OH2             2.0581703705        0.1551328873        7.5028869866  W2        6313            0.0000000000
     17774      5925  TIP3      H1              1.7411203705       -0.7473371127        7.4674269866  W2        6313            0.0000000000
     17775      5925  TIP3      H2              2.8395803705        0.1568728873        6.9500469866  W2        6313            0.0000000000
     17776      5926  TIP3      OH2             5.6827903705        2.4071328873       13.4984469866  W2        6314            0.0000000000
     17777      5926  TIP3      H1              4.8473203705        2.8610828873       13.6086869866  W2        6314            0.0000000000
     17778      5926  TIP3      H2              6.2068503705        2.6829828873       14.2504369866  W2        6314            0.0000000000
     17779      5927  TIP3      OH2             6.2270503705        8.6199028873        5.1830869866  W2        6315            0.0000000000
     17780      5927  TIP3      H1              5.4821503705        8.1124328873        4.8608769866  W2        6315            0.0000000000
     17781      5927  TIP3      H2              6.0927703705        8.6687028873        6.1295669866  W2        6315            0.0000000000
     17782      5928  TIP3      OH2            13.3769403705        7.7527228873       13.9698469866  W2        6316            0.0000000000
     17783      5928  TIP3      H1             14.0188203705        8.2093528873       13.4260669866  W2        6316            0.0000000000
     17784      5928  TIP3      H2             12.5466303705        7.8659628873       13.5072569866  W2        6316            0.0000000000
     17785      5929  TIP3      OH2            10.1247303705        1.4338928873        3.3823469866  W2        6317            0.0000000000
     17786      5929  TIP3      H1              9.1861503705        1.5454528873        3.2312269866  W2        6317            0.0000000000
     17787      5929  TIP3      H2             10.4219403705        2.2905828873        3.6889169866  W2        6317            0.0000000000
     17788      5930  TIP3      OH2             7.7462603705        8.8042328873       16.4199969866  W2        6318            0.0000000000
     17789      5930  TIP3      H1              7.4008703705        8.4224728873       17.2269569866  W2        6318            0.0000000000
     17790      5930  TIP3      H2              7.5462703705        9.7375928873       16.4912869866  W2        6318            0.0000000000
     17791      5931  TIP3      OH2            10.8430803705        3.3011628873        5.0430869866  W2        6319            0.0000000000
     17792      5931  TIP3      H1             11.7349803705        3.1636628873        5.3622069866  W2        6319            0.0000000000
     17793      5931  TIP3      H2             10.8994403705        4.0917728873        4.5064369866  W2        6319            0.0000000000
     17794      5932  TIP3      OH2             1.3518803705        7.9149028873       10.9528769866  W2        6320            0.0000000000
     17795      5932  TIP3      H1              2.0966003705        7.9124728873       10.3515269866  W2        6320            0.0000000000
     17796      5932  TIP3      H2              1.4295403705        7.0912828873       11.4343869866  W2        6320            0.0000000000
     17797      5933  TIP3      OH2             8.3524603705       10.0783328873        4.2085469866  W2        6321            0.0000000000
     17798      5933  TIP3      H1              8.0573003705       10.9051228873        4.5900269866  W2        6321            0.0000000000
     17799      5933  TIP3      H2              7.6494603705        9.4590228873        4.4046869866  W2        6321            0.0000000000
     17800      5934  TIP3      OH2            -1.6401496295        6.3755928873       16.2677269866  W2        6322            0.0000000000
     17801      5934  TIP3      H1             -1.4172896295        5.9575528873       17.0994769866  W2        6322            0.0000000000
     17802      5934  TIP3      H2             -2.2421396295        5.7630928873       15.8450069866  W2        6322            0.0000000000
     17803      5935  TIP3      OH2             9.9966203705       11.2657828873       16.3704969866  W2        6324            0.0000000000
     17804      5935  TIP3      H1              9.0960503705       11.4490428873       16.1028869866  W2        6324            0.0000000000
     17805      5935  TIP3      H2             10.0307303705       11.5247128873       17.2913769866  W2        6324            0.0000000000
     17806      5936  TIP3      OH2            15.7279503705        3.5105728873        4.7377569866  W2        6325            0.0000000000
     17807      5936  TIP3      H1             15.1735803705        3.1143728873        4.0655069866  W2        6325            0.0000000000
     17808      5936  TIP3      H2             15.8283103705        4.4210928873        4.4600869866  W2        6325            0.0000000000
     17809      5937  TIP3      OH2            14.0231203705       12.2966128873        5.2029669866  W2        6327            0.0000000000
     17810      5937  TIP3      H1             13.6502303705       11.4709928873        5.5120269866  W2        6327            0.0000000000
     17811      5937  TIP3      H2             14.3004703705       12.1135528873        4.3053069866  W2        6327            0.0000000000
     17812      5938  TIP3      OH2            11.1835103705        7.1045628873       12.2241569866  W2        6328            0.0000000000
     17813      5938  TIP3      H1             10.2552003705        6.8727528873       12.1970869866  W2        6328            0.0000000000
     17814      5938  TIP3      H2             11.6346203705        6.3275428873       11.8940369866  W2        6328            0.0000000000
     17815      5939  TIP3      OH2             3.7268203705       11.4327228873        8.3570269866  W2        6329            0.0000000000
     17816      5939  TIP3      H1              4.2540403705       12.2061628873        8.1569069866  W2        6329            0.0000000000
     17817      5939  TIP3      H2              2.8466703705       11.6576428873        8.0554269866  W2        6329            0.0000000000
     17818      5940  TIP3      OH2            -0.5184096295        6.2951328873        2.9442669866  W2        6330            0.0000000000
     17819      5940  TIP3      H1              0.0975803705        6.9218528873        3.3237469866  W2        6330            0.0000000000
     17820      5940  TIP3      H2             -1.3801496295        6.6111128873        3.2159169866  W2        6330            0.0000000000
     17821      5941  TIP3      OH2             5.1540503705        9.0957128873        7.9334569866  W2        6331            0.0000000000
     17822      5941  TIP3      H1              4.9130503705       10.0211528873        7.9749869866  W2        6331            0.0000000000
     17823      5941  TIP3      H2              4.4134103705        8.6368428873        8.3298469866  W2        6331            0.0000000000
     17824      5942  TIP3      OH2             5.6687103705       13.2450728873       14.2485669866  W2        6332            0.0000000000
     17825      5942  TIP3      H1              6.0311803705       14.0996328873       14.0150069866  W2        6332            0.0000000000
     17826      5942  TIP3      H2              6.2002303705       12.9532328873       14.9891969866  W2        6332            0.0000000000
     17827      5943  TIP3      OH2             3.8371303705       14.1174728873        7.4786769866  W2        6333            0.0000000000
     17828      5943  TIP3      H1              2.8871803705       14.2232128873        7.5300069866  W2        6333            0.0000000000
     17829      5943  TIP3      H2              4.1889403705       14.9382128873        7.8234269866  W2        6333            0.0000000000
     17830      5944  TIP3      OH2             9.2127903705        9.3441428873       13.9491269866  W2        6334            0.0000000000
     17831      5944  TIP3      H1              8.7869203705        9.1163128873       14.7755269866  W2        6334            0.0000000000
     17832      5944  TIP3      H2              9.7933703705        8.6053228873       13.7666569866  W2        6334            0.0000000000
     17833      5945  TIP3      OH2            11.4156803705       10.2731928873        3.0230269866  W2        6335            0.0000000000
     17834      5945  TIP3      H1             11.7689903705        9.8931728873        3.8273769866  W2        6335            0.0000000000
     17835      5945  TIP3      H2             10.4670303705       10.1796728873        3.1099569866  W2        6335            0.0000000000
     17836      5946  TIP3      OH2            11.8712103705       13.8960928873       16.4186069866  W2        6336            0.0000000000
     17837      5946  TIP3      H1             11.2695303705       13.3403828873       15.9232369866  W2        6336            0.0000000000
     17838      5946  TIP3      H2             12.1525803705       14.5630728873       15.7923469866  W2        6336            0.0000000000
     17839      5947  TIP3      OH2            15.9191203705       14.7524428873        3.2240469866  W2        6337            0.0000000000
     17840      5947  TIP3      H1             16.6629103705       15.3384928873        3.0842069866  W2        6337            0.0000000000
     17841      5947  TIP3      H2             15.2249303705       15.3210228873        3.5572869866  W2        6337            0.0000000000
     17842      5948  TIP3      OH2            -0.0061996295        1.1288628873       15.8258669866  W2        6338            0.0000000000
     17843      5948  TIP3      H1             -0.8989696295        1.4674028873       15.7582669866  W2        6338            0.0000000000
     17844      5948  TIP3      H2             -0.1049196295        0.2734728873       16.2439469866  W2        6338            0.0000000000
     17845      5949  TIP3      OH2            12.2816103705        8.9453928873        5.2498169866  W2        6339            0.0000000000
     17846      5949  TIP3      H1             12.0043703705        8.2173228873        5.8059269866  W2        6339            0.0000000000
     17847      5949  TIP3      H2             13.2089103705        9.0645928873        5.4550769866  W2        6339            0.0000000000
     17848      5950  TIP3      OH2            -0.3549996295       12.9333028873       14.2608069866  W2        6340            0.0000000000
     17849      5950  TIP3      H1             -0.1379696295       12.0015428873       14.2297769866  W2        6340            0.0000000000
     17850      5950  TIP3      H2             -0.1086496295       13.2078028873       15.1440869866  W2        6340            0.0000000000
     17851      5951  TIP3      OH2             5.5064603705       11.3848028873        1.4700269866  W2        6341            0.0000000000
     17852      5951  TIP3      H1              5.7454403705       10.6366128873        0.9229169866  W2        6341            0.0000000000
     17853      5951  TIP3      H2              5.2375903705       10.9969728873        2.3028069866  W2        6341            0.0000000000
     17854      5952  TIP3      OH2             4.4435203705       10.9551828873        3.9262869866  W2        6342            0.0000000000
     17855      5952  TIP3      H1              4.5903203705       10.4351628873        4.7163769866  W2        6342            0.0000000000
     17856      5952  TIP3      H2              4.4406903705       11.8619428873        4.2328769866  W2        6342            0.0000000000
     17857      5953  TIP3      OH2             0.8966303705        8.2075128873        4.4368269866  W2        6343            0.0000000000
     17858      5953  TIP3      H1              0.2105603705        8.5597628873        5.0037969866  W2        6343            0.0000000000
     17859      5953  TIP3      H2              1.4194203705        8.9704728873        4.1902569866  W2        6343            0.0000000000
     17860      5954  TIP3      OH2             8.7281403705        0.8698928873       14.7157269866  W2        6344            0.0000000000
     17861      5954  TIP3      H1              9.4269303705        0.9437628873       15.3656969866  W2        6344            0.0000000000
     17862      5954  TIP3      H2              8.3472803705        0.0053928873       14.8700169866  W2        6344            0.0000000000
     17863      5955  TIP3      OH2             9.5126303705        0.5220628873        5.8129569866  W2        6345            0.0000000000
     17864      5955  TIP3      H1              9.7324603705        0.9936028873        5.0094969866  W2        6345            0.0000000000
     17865      5955  TIP3      H2             10.0710303705        0.9163228873        6.4830169866  W2        6345            0.0000000000
     17866      5956  TIP3      OH2             7.1812403705       12.6525428873        4.6757069866  W2        6346            0.0000000000
     17867      5956  TIP3      H1              6.3648503705       13.1495128873        4.7281369866  W2        6346            0.0000000000
     17868      5956  TIP3      H2              7.7108703705       13.1278928873        4.0355869866  W2        6346            0.0000000000
     17869      5957  TIP3      OH2             6.7126203705        2.2499428873        6.6477969866  W2        6347            0.0000000000
     17870      5957  TIP3      H1              7.5248803705        2.7542628873        6.6939669866  W2        6347            0.0000000000
     17871      5957  TIP3      H2              6.4679203705        2.1049128873        7.5617569866  W2        6347            0.0000000000
     17872      5958  TIP3      OH2             7.2482603705        3.2362128873       15.8324569866  W2        6348            0.0000000000
     17873      5958  TIP3      H1              7.3672903705        3.8097528873       16.5894969866  W2        6348            0.0000000000
     17874      5958  TIP3      H2              7.9037203705        2.5481528873       15.9472369866  W2        6348            0.0000000000
     17875      5959  TIP3      OH2             7.5962903705       -0.6687571127        7.5859069866  W2        6349            0.0000000000
     17876      5959  TIP3      H1              7.2496403705       -0.0516971127        8.2303369866  W2        6349            0.0000000000
     17877      5959  TIP3      H2              8.2549803705       -0.1681871127        7.1044569866  W2        6349            0.0000000000
     17878      5960  TIP3      OH2             4.5195503705       13.6962628873        4.6573969866  W2        6350            0.0000000000
     17879      5960  TIP3      H1              4.6804203705       14.4960128873        4.1566569866  W2        6350            0.0000000000
     17880      5960  TIP3      H2              4.3223303705       14.0028628873        5.5424569866  W2        6350            0.0000000000
     17881      5961  TIP3      OH2             3.2539903705        0.3941828873        4.2731569866  W2        6351            0.0000000000
     17882      5961  TIP3      H1              3.1704703705        1.2824928873        4.6197969866  W2        6351            0.0000000000
     17883      5961  TIP3      H2              4.1440203705        0.1288528873        4.5048369866  W2        6351            0.0000000000
     17884      5962  TIP3      OH2            13.4528403705        1.1432428873       16.6674269866  W2        6352            0.0000000000
     17885      5962  TIP3      H1             12.5364203705        1.4054128873       16.5797969866  W2        6352            0.0000000000
     17886      5962  TIP3      H2             13.7883403705        1.1401428873       15.7709569866  W2        6352            0.0000000000
     17887      5963  TIP3      OH2            12.0549403705        4.8933428873       10.7631569866  W2        6353            0.0000000000
     17888      5963  TIP3      H1             11.2573803705        4.4783628873       10.4346569866  W2        6353            0.0000000000
     17889      5963  TIP3      H2             12.5000503705        4.2027128873       11.2542069866  W2        6353            0.0000000000
     17890      5964  TIP3      OH2             1.5125203705       10.8214028873        3.3336069866  W2        6354            0.0000000000
     17891      5964  TIP3      H1              2.1046703705       11.5208828873        3.6098469866  W2        6354            0.0000000000
     17892      5964  TIP3      H2              1.9718203705       10.3883528873        2.6140669866  W2        6354            0.0000000000
     17893      5965  TIP3      OH2            -0.1715596295        3.4857028873        2.4495469866  W2        6355            0.0000000000
     17894      5965  TIP3      H1             -0.2162996295        4.4250128873        2.6282469866  W2        6355            0.0000000000
     17895      5965  TIP3      H2             -1.0592396295        3.2501928873        2.1797569866  W2        6355            0.0000000000
     17896      5966  TIP3      OH2            13.1414003705       14.1495928873       12.3855069866  W2        6356            0.0000000000
     17897      5966  TIP3      H1             12.9858303705       14.8280328873       11.7284369866  W2        6356            0.0000000000
     17898      5966  TIP3      H2             14.0740403705       14.2215228873       12.5885669866  W2        6356            0.0000000000
     17899      5967  TIP3      OH2             0.6366403705       -1.7326371127       11.1226469866  W2        6357            0.0000000000
     17900      5967  TIP3      H1              0.4076203705       -1.6733871127       10.1951469866  W2        6357            0.0000000000
     17901      5967  TIP3      H2              0.1939803705       -2.5240871127       11.4290569866  W2        6357            0.0000000000
     17902      5968  TIP3      OH2            -0.4330296295       12.2080728873        7.2832269866  W2        6358            0.0000000000
     17903      5968  TIP3      H1             -1.2651696295       12.6803428873        7.3103669866  W2        6358            0.0000000000
     17904      5968  TIP3      H2              0.1128003705       12.7178328873        6.6845369866  W2        6358            0.0000000000
     17905      5969  TIP3      OH2             7.5446403705       13.2479428873        1.6086269866  W2        6361            0.0000000000
     17906      5969  TIP3      H1              6.9007403705       12.6168028873        1.9299969866  W2        6361            0.0000000000
     17907      5969  TIP3      H2              8.3064703705       12.7167428873        1.3769769866  W2        6361            0.0000000000
     17908      5970  TIP3      OH2            12.1489303705       13.0649328873        1.8424269866  W2        6363            0.0000000000
     17909      5970  TIP3      H1             12.4319703705       12.2704528873        2.2951169866  W2        6363            0.0000000000
     17910      5970  TIP3      H2             12.8887203705       13.2980328873        1.2815369866  W2        6363            0.0000000000
     17911      5971  TIP3      OH2             3.1036603705        8.9744228873        1.6999169866  W2        6365            0.0000000000
     17912      5971  TIP3      H1              3.1680703705        8.1803828873        2.2305569866  W2        6365            0.0000000000
     17913      5971  TIP3      H2              3.7565803705        8.8557028873        1.0101169866  W2        6365            0.0000000000
     17914      5972  TIP3      OH2             8.4560003705       10.0215928873        1.4357169866  W2        6367            0.0000000000
     17915      5972  TIP3      H1              8.1874103705       10.2018028873        2.3366069866  W2        6367            0.0000000000
     17916      5972  TIP3      H2              8.2495603705        9.0962128873        1.3042969866  W2        6367            0.0000000000
     17917      5973  TIP3      OH2            11.1524203705        8.5163928873       16.3833269866  W2        6368            0.0000000000
     17918      5973  TIP3      H1             11.8979003705        9.1047628873       16.2637269866  W2        6368            0.0000000000
     17919      5973  TIP3      H2             10.3951003705        9.0983628873       16.4466369866  W2        6368            0.0000000000
     17920      5974  TIP3      OH2             4.2530403705        6.9470428873        4.0057169866  W2        6370            0.0000000000
     17921      5974  TIP3      H1              3.7932403705        6.4628728873        4.6915669866  W2        6370            0.0000000000
     17922      5974  TIP3      H2              4.5079103705        6.2785828873        3.3697669866  W2        6370            0.0000000000
     17923      5975  TIP3      OH2             3.5419703705        4.8397528873       16.3616769866  W2        6371            0.0000000000
     17924      5975  TIP3      H1              2.9235803705        5.5144128873       16.6421469866  W2        6371            0.0000000000
     17925      5975  TIP3      H2              3.8860903705        5.1611428873       15.5282969866  W2        6371            0.0000000000
     17926      5976  TIP3      OH2             5.3240803705        5.1902228873        2.2680369866  W2        6372            0.0000000000
     17927      5976  TIP3      H1              5.1435803705        5.0353428873        1.3408669866  W2        6372            0.0000000000
     17928      5976  TIP3      H2              6.2741303705        5.2980928873        2.3128269866  W2        6372            0.0000000000
     17929      5977  TIP3      OH2            14.7139103705        7.5446428873        1.7138469866  W2        6374            0.0000000000
     17930      5977  TIP3      H1             14.4403903705        7.1201928873        0.9006769866  W2        6374            0.0000000000
     17931      5977  TIP3      H2             14.7533203705        8.4760928873        1.4968869866  W2        6374            0.0000000000
     17932      5978  TIP3      OH2             3.8813403705        2.1948328873       17.4439869866  W2        6375            0.0000000000
     17933      5978  TIP3      H1              4.0314303705        1.4659628873       16.8419569866  W2        6375            0.0000000000
     17934      5978  TIP3      H2              3.8835803705        2.9720028873       16.8852069866  W2        6375            0.0000000000
     17935      5979  TIP3      OH2             4.2939103705        0.5644128873       14.9367269866  W2        6376            0.0000000000
     17936      5979  TIP3      H1              4.8296603705        1.0160828873       14.2846569866  W2        6376            0.0000000000
     17937      5979  TIP3      H2              3.4418703705        0.4563928873       14.5141369866  W2        6376            0.0000000000
     17938      5980  TIP3      OH2             5.8757503705        6.0040328873       15.1762469866  W2        6377            0.0000000000
     17939      5980  TIP3      H1              6.6262303705        5.8477828873       14.6030269866  W2        6377            0.0000000000
     17940      5980  TIP3      H2              5.5365803705        6.8556928873       14.9007969866  W2        6377            0.0000000000
     17941      5981  TIP3      OH2             5.0994603705       -1.9790171127       15.3680869866  W2        6381            0.0000000000
     17942      5981  TIP3      H1              5.0014203705       -1.0326971127       15.2627069866  W2        6381            0.0000000000
     17943      5981  TIP3      H2              4.3570803705       -2.3516371127       14.8924369866  W2        6381            0.0000000000
     17944      5982  TIP3      OH2             5.2212503705       15.8805928873        3.2693969866  W2        6388            0.0000000000
     17945      5982  TIP3      H1              6.1543203705       16.0384628873        3.4132369866  W2        6388            0.0000000000
     17946      5982  TIP3      H2              4.9571303705       16.5558928873        2.6445469866  W2        6388            0.0000000000
     17947      5983  TIP3      OH2            -1.2102596295       10.5169728873        2.7522069866  W2        6389            0.0000000000
     17948      5983  TIP3      H1             -0.2963396295       10.5958628873        3.0255969866  W2        6389            0.0000000000
     17949      5983  TIP3      H2             -1.2029496295        9.8299328873        2.0857669866  W2        6389            0.0000000000
     17950      5984  TIP3      OH2            -2.5611996295       15.9098228873        7.8295969866  W2        6390            0.0000000000
     17951      5984  TIP3      H1             -3.2084896295       15.4479928873        7.2967169866  W2        6390            0.0000000000
     17952      5984  TIP3      H2             -2.2067396295       15.2381528873        8.4122169866  W2        6390            0.0000000000
     17953      5985  TIP3      OH2            -1.6912796295       13.9905228873        9.6342169866  W2        6391            0.0000000000
     17954      5985  TIP3      H1             -2.0255996295       13.1102528873        9.8062369866  W2        6391            0.0000000000
     17955      5985  TIP3      H2             -1.4690396295       14.3360228873       10.4987769866  W2        6391            0.0000000000
     17956      5986  TIP3      OH2            15.8572003705       14.8001628873       12.6146969866  W2        6392            0.0000000000
     17957      5986  TIP3      H1             15.8358703705       14.9850028873       13.5536369866  W2        6392            0.0000000000
     17958      5986  TIP3      H2             16.5478203705       15.3685628873       12.2738369866  W2        6392            0.0000000000
     17959      5987  TIP3      OH2            15.4204903705       14.3672728873       15.5366069866  W2        6393            0.0000000000
     17960      5987  TIP3      H1             14.9333603705       13.6316828873       15.1653469866  W2        6393            0.0000000000
     17961      5987  TIP3      H2             15.9697603705       13.9736628873       16.2145469866  W2        6393            0.0000000000
     17962      5988  TIP3      OH2            15.1721903705        8.4134528873        5.6888869866  W2        6395            0.0000000000
     17963      5988  TIP3      H1             16.0223303705        8.8345428873        5.8160469866  W2        6395            0.0000000000
     17964      5988  TIP3      H2             15.1777003705        7.6734628873        6.2960269866  W2        6395            0.0000000000
     17965      5989  TIP3      OH2            15.5667503705        6.4671928873        7.5124569866  W2        6396            0.0000000000
     17966      5989  TIP3      H1             14.8402103705        5.9874528873        7.9102169866  W2        6396            0.0000000000
     17967      5989  TIP3      H2             16.1480803705        6.6726628873        8.2446169866  W2        6396            0.0000000000
     17968      5990  TIP3      OH2            15.3258703705        9.2519428873       12.4602169866  W2        6397            0.0000000000
     17969      5990  TIP3      H1             16.1592903705        8.8739428873       12.1795769866  W2        6397            0.0000000000
     17970      5990  TIP3      H2             15.4379003705       10.1950628873       12.3411269866  W2        6397            0.0000000000
     17971      5991  TIP3      OH2            13.8121003705       12.1296928873       14.7670569866  W2        6398            0.0000000000
     17972      5991  TIP3      H1             13.1646303705       12.4548428873       15.3925769866  W2        6398            0.0000000000
     17973      5991  TIP3      H2             13.2945003705       11.6894628873       14.0928869866  W2        6398            0.0000000000
     17974      5992  TIP3      OH2            15.8350603705        6.3680428873        3.9035869866  W2        6399            0.0000000000
     17975      5992  TIP3      H1             15.3131703705        6.7244528873        3.1846769866  W2        6399            0.0000000000
     17976      5992  TIP3      H2             15.8019803705        7.0428228873        4.5816769866  W2        6399            0.0000000000
     17977      5993  TIP3      OH2            14.1839603705        3.6076028873        2.4542969866  W2        6400            0.0000000000
     17978      5993  TIP3      H1             14.2804003705        4.2743028873        1.7742669866  W2        6400            0.0000000000
     17979      5993  TIP3      H2             14.0439203705        2.7922328873        1.9728469866  W2        6400            0.0000000000
     17980      5994  TIP3      OH2            13.3534303705        4.9878428873        8.0753269866  W2        6401            0.0000000000
     17981      5994  TIP3      H1             13.2033103705        4.0427028873        8.0551069866  W2        6401            0.0000000000
     17982      5994  TIP3      H2             12.9998803705        5.2689828873        8.9192369866  W2        6401            0.0000000000
     17983      5995  TIP3      OH2            -1.6113296295        7.0660628873       12.0857069866  W2        6402            0.0000000000
     17984      5995  TIP3      H1             -1.4270396295        6.9842328873       11.1499969866  W2        6402            0.0000000000
     17985      5995  TIP3      H2             -0.7620396295        6.9417628873       12.5093469866  W2        6402            0.0000000000
     17986      5996  TIP3      OH2            13.4313403705        1.0155828873        1.5718469866  W2        6405            0.0000000000
     17987      5996  TIP3      H1             14.0419203705        0.6442628873        2.2086669866  W2        6405            0.0000000000
     17988      5996  TIP3      H2             12.5944903705        0.5942728873        1.7678469866  W2        6405            0.0000000000
     17989      5997  TIP3      OH2            13.0639103705        2.5704228873        6.5378369866  W2        6406            0.0000000000
     17990      5997  TIP3      H1             13.3436203705        1.6634628873        6.6620069866  W2        6406            0.0000000000
     17991      5997  TIP3      H2             13.8230803705        3.0045728873        6.1487569866  W2        6406            0.0000000000
     17992      5998  TIP3      OH2            13.6757403705        3.1521628873       11.9737269866  W2        6407            0.0000000000
     17993      5998  TIP3      H1             14.6085403705        3.3641528873       11.9393269866  W2        6407            0.0000000000
     17994      5998  TIP3      H2             13.4404903705        3.2533728873       12.8960269866  W2        6407            0.0000000000
     17995      5999  TIP3      OH2            13.7049303705        3.8886928873       14.7496669866  W2        6408            0.0000000000
     17996      5999  TIP3      H1             12.8620603705        4.1567328873       15.1156469866  W2        6408            0.0000000000
     17997      5999  TIP3      H2             14.1473603705        4.7108828873       14.5387769866  W2        6408            0.0000000000
     17998      6000  TIP3      OH2            13.6773903705       -0.1666471127        6.5860369866  W2        6411            0.0000000000
     17999      6000  TIP3      H1             13.8598903705       -0.6154971127        7.4115369866  W2        6411            0.0000000000
     18000      6000  TIP3      H2             13.0776803705       -0.7512071127        6.1224969866  W2        6411            0.0000000000
     18001      6001  TIP3      OH2            -0.7925996295        0.6487228873       11.1178769866  W2        6412            0.0000000000
     18002      6001  TIP3      H1             -0.3474396295       -0.1430271127       11.4198469866  W2        6412            0.0000000000
     18003      6001  TIP3      H2             -0.3262996295        1.3652428873       11.5484369866  W2        6412            0.0000000000
     18004      6002  TIP3      OH2            -2.4885696295        3.6480228873       12.1868969866  W2        6413            0.0000000000
     18005      6002  TIP3      H1             -1.9965896295        3.4270728873       11.3960969866  W2        6413            0.0000000000
     18006      6002  TIP3      H2             -2.1264796295        4.4883628873       12.4678469866  W2        6413            0.0000000000
     18007      6003  TIP3      OH2            15.5440103705       -0.0988371127        3.1140669866  W2        6415            0.0000000000
     18008      6003  TIP3      H1             15.9562703705       -0.8202671127        2.6388669866  W2        6415            0.0000000000
     18009      6003  TIP3      H2             16.2256603705        0.5706228873        3.1724969866  W2        6415            0.0000000000
     18010      6004  TIP3      OH2            -2.1749196295       -0.0940671127        6.2411369866  W2        6416            0.0000000000
     18011      6004  TIP3      H1             -3.1000796295        0.1145928873        6.1116869866  W2        6416            0.0000000000
     18012      6004  TIP3      H2             -1.7209296295        0.3900128873        5.5513669866  W2        6416            0.0000000000
     18013      6005  TIP3      OH2            12.5958003705       14.8901028873        8.1868769866  W2        6417            0.0000000000
     18014      6005  TIP3      H1             13.2480903705       14.5423128873        7.5787869866  W2        6417            0.0000000000
     18015      6005  TIP3      H2             13.1061803705       15.3784228873        8.8328469866  W2        6417            0.0000000000
     18016      6006  TIP3      OH2            -2.2113796295       -1.3561671127       14.5853869866  W2        6418            0.0000000000
     18017      6006  TIP3      H1             -2.8763296295       -1.6021371127       15.2284769866  W2        6418            0.0000000000
     18018      6006  TIP3      H2             -2.6542496295       -0.7341271127       14.0081869866  W2        6418            0.0000000000
     18019      6007  TIP3      OH2             2.9348403705       12.7933628873       14.9883669866  W2        6420            0.0000000000
     18020      6007  TIP3      H1              2.5099503705       13.6032128873       14.7058269866  W2        6420            0.0000000000
     18021      6007  TIP3      H2              3.8391203705       12.8787728873       14.6863469866  W2        6420            0.0000000000
     18022      6008  TIP3      OH2             9.5910203705       15.4782528873       17.1918769866  W2        6422            0.0000000000
     18023      6008  TIP3      H1             10.2679103705       14.8454828873       16.9517969866  W2        6422            0.0000000000
     18024      6008  TIP3      H2              9.9129003705       15.8793028873       17.9992069866  W2        6422            0.0000000000
     18025      6009  TIP3      OH2            14.5084003705       -1.9321971127       16.2713769866  W2        6423            0.0000000000
     18026      6009  TIP3      H1             13.6957503705       -1.6071671127       15.8838469866  W2        6423            0.0000000000
     18027      6009  TIP3      H2             14.7412503705       -2.6923471127       15.7382869866  W2        6423            0.0000000000
     18028      6010  TIP3      OH2             0.3365103705       16.0497528873       15.0358969866  W2        6424            0.0000000000
     18029      6010  TIP3      H1             -0.3838496295       16.4898528873       14.5846669866  W2        6424            0.0000000000
     18030      6010  TIP3      H2             -0.0290896295       15.7992228873       15.8842969866  W2        6424            0.0000000000
     18031      6011  TIP3      OH2             2.8037703705       15.6501428873       14.0656169866  W2        6425            0.0000000000
     18032      6011  TIP3      H1              1.9389903705       15.7219928873       14.4696269866  W2        6425            0.0000000000
     18033      6011  TIP3      H2              2.7486703705       16.1968728873       13.2818669866  W2        6425            0.0000000000
     18034      6012  TIP3      OH2             7.5143303705       15.5380328873       13.2412169866  W2        6426            0.0000000000
     18035      6012  TIP3      H1              7.0577303705       16.0670028873       12.5870569866  W2        6426            0.0000000000
     18036      6012  TIP3      H2              7.6771303705       16.1411728873       13.9664469866  W2        6426            0.0000000000
     18037      6013  TIP3      OH2             9.8419603705       14.4159928873       14.1862469866  W2        6427            0.0000000000
     18038      6013  TIP3      H1              8.9373303705       14.5810128873       13.9204569866  W2        6427            0.0000000000
     18039      6013  TIP3      H2             10.2708203705       15.2692128873       14.1205869866  W2        6427            0.0000000000
     18040      6014  TIP3      OH2            12.4461503705       15.9859028873       14.4810269866  W2        6428            0.0000000000
     18041      6014  TIP3      H1             12.2643503705       16.9017928873       14.2705169866  W2        6428            0.0000000000
     18042      6014  TIP3      H2             12.6229303705       15.5756128873       13.6344869866  W2        6428            0.0000000000
     18043      6015  TIP3      OH2            -0.2486796295       14.6730028873       11.9460769866  W2        6429            0.0000000000
     18044      6015  TIP3      H1             -0.2670796295       14.2475128873       12.8033069866  W2        6429            0.0000000000
     18045      6015  TIP3      H2              0.5561103705       14.3545028873       11.5372969866  W2        6429            0.0000000000
     18046      6016  TIP3      OH2             1.8926303705       13.3828728873       10.6010669866  W2        6430            0.0000000000
     18047      6016  TIP3      H1              1.6737003705       12.4666128873       10.7706669866  W2        6430            0.0000000000
     18048      6016  TIP3      H2              2.7168503705       13.5229128873       11.0672069866  W2        6430            0.0000000000
     18049      6017  TIP3      OH2             4.4298803705       13.8528028873       11.4498669866  W2        6431            0.0000000000
     18050      6017  TIP3      H1              4.6424503705       12.9647028873       11.1629569866  W2        6431            0.0000000000
     18051      6017  TIP3      H2              4.4943903705       13.8185728873       12.4042669866  W2        6431            0.0000000000
     18052      6018  TIP3      OH2             7.9382503705       -0.4831371127       10.5941969866  W2        6432            0.0000000000
     18053      6018  TIP3      H1              7.2639303705       -1.1125771127       10.8497769866  W2        6432            0.0000000000
     18054      6018  TIP3      H2              8.5021703705       -0.9672471127        9.9909869866  W2        6432            0.0000000000
     18055      6019  TIP3      OH2            13.0809703705       -2.3757371127       10.7069069866  W2        6433            0.0000000000
     18056      6019  TIP3      H1             13.6847303705       -1.8281971127       10.2050069866  W2        6433            0.0000000000
     18057      6019  TIP3      H2             12.2111703705       -2.0566971127       10.4663169866  W2        6433            0.0000000000
     18058      6020  TIP3      OH2            14.8080103705       -1.2368671127        9.0399969866  W2        6434            0.0000000000
     18059      6020  TIP3      H1             15.4197603705       -1.7512971127        8.5133569866  W2        6434            0.0000000000
     18060      6020  TIP3      H2             15.1903503705       -0.3596571127        9.0634369866  W2        6434            0.0000000000
     18061      6021  TIP3      OH2             0.2650003705       -1.8491071127        8.4161869866  W2        6435            0.0000000000
     18062      6021  TIP3      H1             -0.5120196295       -2.0836171127        7.9087769866  W2        6435            0.0000000000
     18063      6021  TIP3      H2              0.7953603705       -2.6458971127        8.4249869866  W2        6435            0.0000000000
     18064      6022  TIP3      OH2            -0.8986596295       -2.0512971127        4.2197969866  W2        6436            0.0000000000
     18065      6022  TIP3      H1             -0.4595896295       -1.4402471127        3.6281469866  W2        6436            0.0000000000
     18066      6022  TIP3      H2             -1.5324196295       -1.5128871127        4.6937969866  W2        6436            0.0000000000
     18067      6023  TIP3      OH2             4.8442603705       -1.9223971127        8.2294969866  W2        6437            0.0000000000
     18068      6023  TIP3      H1              5.7186003705       -1.5339671127        8.1999269866  W2        6437            0.0000000000
     18069      6023  TIP3      H2              4.7083403705       -2.1376171127        9.1522169866  W2        6437            0.0000000000
     18070      6024  TIP3      OH2            10.4011003705       -1.8924171127        9.8786669866  W2        6438            0.0000000000
     18071      6024  TIP3      H1             10.4772603705       -1.7972571127        8.9292669866  W2        6438            0.0000000000
     18072      6024  TIP3      H2             10.1260203705       -2.8001271127       10.0075769866  W2        6438            0.0000000000
     18073      6025  TIP3      OH2            11.7543603705       -1.8666371127        5.5711669866  W2        6439            0.0000000000
     18074      6025  TIP3      H1             11.0514703705       -1.2517171127        5.3613069866  W2        6439            0.0000000000
     18075      6025  TIP3      H2             11.3095003705       -2.7039671127        5.7022569866  W2        6439            0.0000000000
     18076      6026  TIP3      OH2            -0.9977096295       13.8969228873        5.1173069866  W2        6440            0.0000000000
     18077      6026  TIP3      H1             -1.6827196295       13.8588128873        4.4498169866  W2        6440            0.0000000000
     18078      6026  TIP3      H2             -0.9939896295       14.8096828873        5.4055169866  W2        6440            0.0000000000
     18079      6027  TIP3      OH2             0.9622503705       -0.1351471127        2.6622069866  W2        6441            0.0000000000
     18080      6027  TIP3      H1              1.4535903705       -0.7649071127        2.1347569866  W2        6441            0.0000000000
     18081      6027  TIP3      H2              1.5858803705        0.1607928873        3.3253269866  W2        6441            0.0000000000
     18082      6028  TIP3      OH2             5.9882603705        0.1580028873        5.1192569866  W2        6442            0.0000000000
     18083      6028  TIP3      H1              6.1663903705       -0.4886771127        5.8021169866  W2        6442            0.0000000000
     18084      6028  TIP3      H2              5.9348803705        0.9917728873        5.5863669866  W2        6442            0.0000000000
     18085      6029  TIP3      OH2             7.8666403705       15.1064128873        3.5149269866  W2        6443            0.0000000000
     18086      6029  TIP3      H1              8.7326603705       15.4731528873        3.3367469866  W2        6443            0.0000000000
     18087      6029  TIP3      H2              7.6199203705       14.6672128873        2.7010069866  W2        6443            0.0000000000
     18088      6030  TIP3      OH2            14.5756003705       14.6694428873        6.1940369866  W2        6444            0.0000000000
     18089      6030  TIP3      H1             14.3813103705       13.9216528873        5.6289969866  W2        6444            0.0000000000
     18090      6030  TIP3      H2             14.5366103705       15.4274528873        5.6108269866  W2        6444            0.0000000000
     18091      6031  TIP3      OH2             0.8204103705       14.8170028873        2.1425169866  W2        6447            0.0000000000
     18092      6031  TIP3      H1              0.5528703705       15.1032928873        3.0158269866  W2        6447            0.0000000000
     18093      6031  TIP3      H2              1.5916703705       14.2709228873        2.2947669866  W2        6447            0.0000000000
     18094      6032  TIP3      OH2            28.1992603705        7.3071228873        8.3749369866  W2        6450            0.0000000000
     18095      6032  TIP3      H1             28.2883703705        8.2509428873        8.2426469866  W2        6450            0.0000000000
     18096      6032  TIP3      H2             27.5610203705        7.0317628873        7.7168769866  W2        6450            0.0000000000
     18097      6033  TIP3      OH2            27.1323903705        6.5621928873       11.7937569866  W2        6451            0.0000000000
     18098      6033  TIP3      H1             27.0941403705        5.9158228873       12.4987169866  W2        6451            0.0000000000
     18099      6033  TIP3      H2             26.8100403705        6.0956328873       11.0226269866  W2        6451            0.0000000000
     18100      6034  TIP3      OH2            19.5008903705        6.1764028873       13.3867469866  W2        6452            0.0000000000
     18101      6034  TIP3      H1             19.5421003705        5.5507328873       14.1099869866  W2        6452            0.0000000000
     18102      6034  TIP3      H2             20.2036603705        6.8002628873       13.5687869866  W2        6452            0.0000000000
     18103      6035  TIP3      OH2            30.8384103705        9.5012328873       10.0952669866  W2        6453            0.0000000000
     18104      6035  TIP3      H1             30.3976803705        8.7808328873       10.5458269866  W2        6453            0.0000000000
     18105      6035  TIP3      H2             30.8253803705       10.2219528873       10.7250369866  W2        6453            0.0000000000
     18106      6036  TIP3      OH2            20.4242003705       10.6262928873       11.9216569866  W2        6454            0.0000000000
     18107      6036  TIP3      H1             20.0547203705        9.8243428873       11.5520869866  W2        6454            0.0000000000
     18108      6036  TIP3      H2             21.3653103705       10.4577828873       11.9679969866  W2        6454            0.0000000000
     18109      6037  TIP3      OH2            17.0342503705        4.2865528873        7.3145369866  W2        6455            0.0000000000
     18110      6037  TIP3      H1             16.5865903705        5.1324228873        7.2961869866  W2        6455            0.0000000000
     18111      6037  TIP3      H2             16.4733703705        3.7069728873        6.7990469866  W2        6455            0.0000000000
     18112      6038  TIP3      OH2            17.7448603705        6.4485128873        9.4403369866  W2        6456            0.0000000000
     18113      6038  TIP3      H1             17.9582103705        5.6786728873        9.9676369866  W2        6456            0.0000000000
     18114      6038  TIP3      H2             18.4826203705        6.5381828873        8.8370969866  W2        6456            0.0000000000
     18115      6039  TIP3      OH2            27.9499603705       14.6054028873       10.3073069866  W2        6457            0.0000000000
     18116      6039  TIP3      H1             28.5696003705       13.9288728873       10.0342269866  W2        6457            0.0000000000
     18117      6039  TIP3      H2             27.7417003705       14.3874828873       11.2157969866  W2        6457            0.0000000000
     18118      6040  TIP3      OH2            25.5218303705        8.9943328873       12.1998569866  W2        6458            0.0000000000
     18119      6040  TIP3      H1             25.8256203705        8.3084728873       11.6052669866  W2        6458            0.0000000000
     18120      6040  TIP3      H2             26.2432303705        9.1132028873       12.8176569866  W2        6458            0.0000000000
     18121      6041  TIP3      OH2            34.1848103705        0.5958628873       13.0604769866  W2        6459            0.0000000000
     18122      6041  TIP3      H1             34.2340303705        1.2059828873       13.7963869866  W2        6459            0.0000000000
     18123      6041  TIP3      H2             34.6103203705        1.0569528873       12.3375869866  W2        6459            0.0000000000
     18124      6042  TIP3      OH2            28.6625303705        3.3885728873       12.5273369866  W2        6460            0.0000000000
     18125      6042  TIP3      H1             28.8051203705        2.4422728873       12.5474969866  W2        6460            0.0000000000
     18126      6042  TIP3      H2             28.5564303705        3.5955528873       11.5988269866  W2        6460            0.0000000000
     18127      6043  TIP3      OH2            21.8173603705        1.4902128873        9.7998169866  W2        6461            0.0000000000
     18128      6043  TIP3      H1             21.8604703705        2.3500628873        9.3814469866  W2        6461            0.0000000000
     18129      6043  TIP3      H2             21.3597703705        0.9376828873        9.1661369866  W2        6461            0.0000000000
     18130      6044  TIP3      OH2            29.5396303705        1.6207728873        8.2006469866  W2        6462            0.0000000000
     18131      6044  TIP3      H1             30.1860603705        1.2920928873        8.8254069866  W2        6462            0.0000000000
     18132      6044  TIP3      H2             30.0495703705        2.1386728873        7.5777869866  W2        6462            0.0000000000
     18133      6045  TIP3      OH2            18.4375103705        3.8867928873       10.5619569866  W2        6463            0.0000000000
     18134      6045  TIP3      H1             19.0911703705        3.3369628873       10.9939669866  W2        6463            0.0000000000
     18135      6045  TIP3      H2             18.4614403705        3.6126928873        9.6451569866  W2        6463            0.0000000000
     18136      6046  TIP3      OH2            23.5939603705        5.4369228873        9.7771069866  W2        6464            0.0000000000
     18137      6046  TIP3      H1             24.2100603705        4.9104628873       10.2865069866  W2        6464            0.0000000000
     18138      6046  TIP3      H2             23.0078403705        4.7967928873        9.3734669866  W2        6464            0.0000000000
     18139      6047  TIP3      OH2            34.5762703705        2.0737828873       15.2964569866  W2        6465            0.0000000000
     18140      6047  TIP3      H1             33.8877303705        2.7318528873       15.2011169866  W2        6465            0.0000000000
     18141      6047  TIP3      H2             34.5917303705        1.8765728873       16.2329969866  W2        6465            0.0000000000
     18142      6048  TIP3      OH2            20.6275503705        0.4080528873       13.8738969866  W2        6466            0.0000000000
     18143      6048  TIP3      H1             20.4087203705        0.9381128873       13.1074969866  W2        6466            0.0000000000
     18144      6048  TIP3      H2             19.9596403705        0.6346028873       14.5210369866  W2        6466            0.0000000000
     18145      6049  TIP3      OH2            27.9965303705        9.9081628873        7.4178069866  W2        6467            0.0000000000
     18146      6049  TIP3      H1             27.7010403705        9.5853928873        6.5664969866  W2        6467            0.0000000000
     18147      6049  TIP3      H2             27.6723103705       10.8078328873        7.4590669866  W2        6467            0.0000000000
     18148      6050  TIP3      OH2            23.1966903705        8.0836228873       14.1612669866  W2        6468            0.0000000000
     18149      6050  TIP3      H1             22.4566003705        8.6817728873       14.2647869866  W2        6468            0.0000000000
     18150      6050  TIP3      H2             23.9106403705        8.6375828873       13.8456269866  W2        6468            0.0000000000
     18151      6051  TIP3      OH2            31.3034703705        0.9117028873       10.1812369866  W2        6469            0.0000000000
     18152      6051  TIP3      H1             31.0882703705        0.1460428873       10.7138369866  W2        6469            0.0000000000
     18153      6051  TIP3      H2             31.9592103705        1.3841628873       10.6940869866  W2        6469            0.0000000000
     18154      6052  TIP3      OH2            20.2212803705        2.3002328873       11.8261169866  W2        6470            0.0000000000
     18155      6052  TIP3      H1             20.8349103705        2.9329928873       12.1993569866  W2        6470            0.0000000000
     18156      6052  TIP3      H2             20.7333503705        1.8277328873       11.1698069866  W2        6470            0.0000000000
     18157      6053  TIP3      OH2            21.6041203705       10.0479228873       14.9484169866  W2        6471            0.0000000000
     18158      6053  TIP3      H1             21.5988803705       10.9272728873       14.5703469866  W2        6471            0.0000000000
     18159      6053  TIP3      H2             20.7505303705        9.9643328873       15.3734069866  W2        6471            0.0000000000
     18160      6054  TIP3      OH2            17.7252103705        9.7187128873        5.7303469866  W2        6472            0.0000000000
     18161      6054  TIP3      H1             17.4533003705        9.9478128873        4.8416369866  W2        6472            0.0000000000
     18162      6054  TIP3      H2             17.7707803705       10.5565928873        6.1908769866  W2        6472            0.0000000000
     18163      6055  TIP3      OH2            31.3501803705       11.3403028873       12.4431969866  W2        6473            0.0000000000
     18164      6055  TIP3      H1             30.4085503705       11.3986928873       12.6048869866  W2        6473            0.0000000000
     18165      6055  TIP3      H2             31.6267903705       12.2463528873       12.3061669866  W2        6473            0.0000000000
     18166      6056  TIP3      OH2            31.6508803705       -0.3731671127       13.8605869866  W2        6474            0.0000000000
     18167      6056  TIP3      H1             30.9148003705        0.2375428873       13.8227169866  W2        6474            0.0000000000
     18168      6056  TIP3      H2             32.3342803705        0.0417328873       13.3342269866  W2        6474            0.0000000000
     18169      6057  TIP3      OH2            24.6540203705       -2.2864371127       11.3263869866  W2        6475            0.0000000000
     18170      6057  TIP3      H1             24.5364403705       -3.2348371127       11.2722169866  W2        6475            0.0000000000
     18171      6057  TIP3      H2             23.7990303705       -1.9538271127       11.5994969866  W2        6475            0.0000000000
     18172      6058  TIP3      OH2            29.6023003705       13.1216528873        9.0683569866  W2        6476            0.0000000000
     18173      6058  TIP3      H1             30.0275303705       12.4144428873        8.5833169866  W2        6476            0.0000000000
     18174      6058  TIP3      H2             29.9193003705       13.9229228873        8.6515769866  W2        6476            0.0000000000
     18175      6059  TIP3      OH2            30.7619503705       11.0225028873        7.5770169866  W2        6477            0.0000000000
     18176      6059  TIP3      H1             30.5044303705       10.3325128873        6.9656069866  W2        6477            0.0000000000
     18177      6059  TIP3      H2             30.8330303705       10.5796228873        8.4226069866  W2        6477            0.0000000000
     18178      6060  TIP3      OH2            32.4479703705        9.5891728873       16.0543669866  W2        6478            0.0000000000
     18179      6060  TIP3      H1             32.5876003705        8.9974228873       15.3150669866  W2        6478            0.0000000000
     18180      6060  TIP3      H2             32.6152503705       10.4617628873       15.6982469866  W2        6478            0.0000000000
     18181      6061  TIP3      OH2            26.9205103705        6.5511228873        5.8269669866  W2        6479            0.0000000000
     18182      6061  TIP3      H1             26.2090603705        7.0860928873        5.4750169866  W2        6479            0.0000000000
     18183      6061  TIP3      H2             27.6114703705        6.6063328873        5.1668569866  W2        6479            0.0000000000
     18184      6062  TIP3      OH2            26.9744303705        5.0085528873        2.8654669866  W2        6480            0.0000000000
     18185      6062  TIP3      H1             27.6754203705        5.0312428873        3.5168669866  W2        6480            0.0000000000
     18186      6062  TIP3      H2             27.2767203705        4.3805228873        2.2093969866  W2        6480            0.0000000000
     18187      6063  TIP3      OH2            34.2899003705        5.9289728873       14.1204069866  W2        6481            0.0000000000
     18188      6063  TIP3      H1             33.6373103705        6.6235328873       14.2094969866  W2        6481            0.0000000000
     18189      6063  TIP3      H2             34.7549303705        6.1390628873       13.3105669866  W2        6481            0.0000000000
     18190      6064  TIP3      OH2            30.3262803705        6.7604528873        6.7785569866  W2        6482            0.0000000000
     18191      6064  TIP3      H1             29.5943803705        6.9888228873        7.3516169866  W2        6482            0.0000000000
     18192      6064  TIP3      H2             30.7735003705        6.0467228873        7.2333069866  W2        6482            0.0000000000
     18193      6065  TIP3      OH2            30.2236303705        4.9347128873       15.8462569866  W2        6483            0.0000000000
     18194      6065  TIP3      H1             30.3035403705        5.6981528873       16.4181069866  W2        6483            0.0000000000
     18195      6065  TIP3      H2             29.6224003705        5.2139528873       15.1557669866  W2        6483            0.0000000000
     18196      6066  TIP3      OH2            21.9716503705        7.3910728873        8.6610569866  W2        6484            0.0000000000
     18197      6066  TIP3      H1             21.6411703705        7.0204128873        7.8427569866  W2        6484            0.0000000000
     18198      6066  TIP3      H2             22.5600603705        6.7204728873        9.0078869866  W2        6484            0.0000000000
     18199      6067  TIP3      OH2            23.3384003705       10.8191328873       11.3422769866  W2        6485            0.0000000000
     18200      6067  TIP3      H1             23.2435303705       10.2404428873       10.5857369866  W2        6485            0.0000000000
     18201      6067  TIP3      H2             24.0677603705       10.4477028873       11.8385569866  W2        6485            0.0000000000
     18202      6068  TIP3      OH2            22.3382003705        6.1596328873       12.2945569866  W2        6486            0.0000000000
     18203      6068  TIP3      H1             22.9034503705        6.2810528873       11.5316769866  W2        6486            0.0000000000
     18204      6068  TIP3      H2             22.6570903705        6.7971328873       12.9334069866  W2        6486            0.0000000000
     18205      6069  TIP3      OH2            28.6474203705       11.6628228873       13.0286069866  W2        6487            0.0000000000
     18206      6069  TIP3      H1             28.4070803705       12.3251328873       13.6765269866  W2        6487            0.0000000000
     18207      6069  TIP3      H2             28.4492403705       10.8283428873       13.4535669866  W2        6487            0.0000000000
     18208      6070  TIP3      OH2            23.2182703705       10.5589028873       17.0117469866  W2        6488            0.0000000000
     18209      6070  TIP3      H1             22.9070203705       11.3412228873       17.4670669866  W2        6488            0.0000000000
     18210      6070  TIP3      H2             22.5682903705       10.4058128873       16.3259469866  W2        6488            0.0000000000
     18211      6071  TIP3      OH2            29.1972303705        5.9227428873        4.4636769866  W2        6489            0.0000000000
     18212      6071  TIP3      H1             29.7767803705        6.0727728873        5.2105669866  W2        6489            0.0000000000
     18213      6071  TIP3      H2             29.6112303705        6.3934828873        3.7403169866  W2        6489            0.0000000000
     18214      6072  TIP3      OH2            20.1382603705        6.7570128873       16.2403169866  W2        6490            0.0000000000
     18215      6072  TIP3      H1             20.2085803705        7.4076928873       16.9388169866  W2        6490            0.0000000000
     18216      6072  TIP3      H2             19.2474803705        6.8597628873       15.9054069866  W2        6490            0.0000000000
     18217      6073  TIP3      OH2            26.9237203705       12.6595928873        7.8989869866  W2        6491            0.0000000000
     18218      6073  TIP3      H1             27.3974803705       12.9552228873        8.6764069866  W2        6491            0.0000000000
     18219      6073  TIP3      H2             26.3606503705       13.3977528873        7.6659469866  W2        6491            0.0000000000
     18220      6074  TIP3      OH2            32.8960703705       -2.3272171127        4.2766469866  W2        6493            0.0000000000
     18221      6074  TIP3      H1             31.9961403705       -2.1883171127        4.5717069866  W2        6493            0.0000000000
     18222      6074  TIP3      H2             33.1479103705       -1.4957571127        3.8748169866  W2        6493            0.0000000000
     18223      6075  TIP3      OH2            20.9619203705        6.4605028873        6.2503369866  W2        6494            0.0000000000
     18224      6075  TIP3      H1             20.6700503705        7.2286728873        5.7594669866  W2        6494            0.0000000000
     18225      6075  TIP3      H2             20.2874403705        5.8011228873        6.0874769866  W2        6494            0.0000000000
     18226      6076  TIP3      OH2            34.0852103705       12.0390228873        2.6530369866  W2        6495            0.0000000000
     18227      6076  TIP3      H1             34.1585603705       12.9780428873        2.8235669866  W2        6495            0.0000000000
     18228      6076  TIP3      H2             34.9907203705       11.7338828873        2.5967669866  W2        6495            0.0000000000
     18229      6077  TIP3      OH2            17.0549303705        8.8234228873       15.0653169866  W2        6496            0.0000000000
     18230      6077  TIP3      H1             16.5537703705        8.7953628873       14.2502869866  W2        6496            0.0000000000
     18231      6077  TIP3      H2             17.0603003705        7.9177428873       15.3750469866  W2        6496            0.0000000000
     18232      6078  TIP3      OH2            16.8052003705       11.6038028873       11.9493369866  W2        6497            0.0000000000
     18233      6078  TIP3      H1             17.7512603705       11.4595028873       11.9302869866  W2        6497            0.0000000000
     18234      6078  TIP3      H2             16.6928303705       12.3880828873       12.4864569866  W2        6497            0.0000000000
     18235      6079  TIP3      OH2            25.9814503705       11.8436928873       16.5078469866  W2        6499            0.0000000000
     18236      6079  TIP3      H1             26.0689103705       12.6701528873       16.9827569866  W2        6499            0.0000000000
     18237      6079  TIP3      H2             25.1179603705       11.5140728873       16.7567769866  W2        6499            0.0000000000
     18238      6080  TIP3      OH2            26.3960303705       15.6160628873        6.3139069866  W2        6500            0.0000000000
     18239      6080  TIP3      H1             26.3206303705       15.4947828873        5.3674269866  W2        6500            0.0000000000
     18240      6080  TIP3      H2             26.4289003705       16.5653328873        6.4323669866  W2        6500            0.0000000000
     18241      6081  TIP3      OH2            20.0494103705       14.4047628873        8.0948069866  W2        6501            0.0000000000
     18242      6081  TIP3      H1             20.2014503705       14.0568028873        8.9734569866  W2        6501            0.0000000000
     18243      6081  TIP3      H2             19.1984503705       14.0484928873        7.8395269866  W2        6501            0.0000000000
     18244      6082  TIP3      OH2            29.4976303705       14.7700828873        3.3161469866  W2        6502            0.0000000000
     18245      6082  TIP3      H1             29.8724703705       14.0256928873        2.8454069866  W2        6502            0.0000000000
     18246      6082  TIP3      H2             29.5020003705       14.5001428873        4.2344769866  W2        6502            0.0000000000
     18247      6083  TIP3      OH2            29.1664403705       14.6957928873        6.0653669866  W2        6503            0.0000000000
     18248      6083  TIP3      H1             28.2314203705       14.7959828873        6.2440669866  W2        6503            0.0000000000
     18249      6083  TIP3      H2             29.4466303705       13.9863928873        6.6436869866  W2        6503            0.0000000000
     18250      6084  TIP3      OH2            19.3039803705       10.1469628873       16.1085969866  W2        6505            0.0000000000
     18251      6084  TIP3      H1             19.5201103705        9.7855228873       16.9681769866  W2        6505            0.0000000000
     18252      6084  TIP3      H2             18.4484503705        9.7723428873       15.8989469866  W2        6505            0.0000000000
     18253      6085  TIP3      OH2            21.9227803705       -1.3829871127       12.1040169866  W2        6506            0.0000000000
     18254      6085  TIP3      H1             21.0611503705       -1.4701671127       11.6963069866  W2        6506            0.0000000000
     18255      6085  TIP3      H2             21.9003503705       -0.5269771127       12.5317769866  W2        6506            0.0000000000
     18256      6086  TIP3      OH2            26.5855603705       -1.6609471127       15.4787169866  W2        6507            0.0000000000
     18257      6086  TIP3      H1             27.0058703705       -2.0762371127       16.2317769866  W2        6507            0.0000000000
     18258      6086  TIP3      H2             25.6525203705       -1.8396171127       15.5959169866  W2        6507            0.0000000000
     18259      6087  TIP3      OH2            29.9120503705        2.0945728873       16.3321669866  W2        6508            0.0000000000
     18260      6087  TIP3      H1             29.3980003705        1.9687928873       17.1297669866  W2        6508            0.0000000000
     18261      6087  TIP3      H2             29.7565203705        3.0068828873       16.0877869866  W2        6508            0.0000000000
     18262      6088  TIP3      OH2            30.6745403705        6.9555728873        2.0934669866  W2        6509            0.0000000000
     18263      6088  TIP3      H1             30.7166203705        6.7329628873        1.1634669866  W2        6509            0.0000000000
     18264      6088  TIP3      H2             31.5237503705        7.3542828873        2.2834569866  W2        6509            0.0000000000
     18265      6089  TIP3      OH2            26.2472903705        0.8313928873        2.7637969866  W2        6510            0.0000000000
     18266      6089  TIP3      H1             25.9937703705        0.8505528873        3.6866069866  W2        6510            0.0000000000
     18267      6089  TIP3      H2             25.9905003705       -0.0400671127        2.4624169866  W2        6510            0.0000000000
     18268      6090  TIP3      OH2            22.0137903705        3.5824628873       13.1990369866  W2        6511            0.0000000000
     18269      6090  TIP3      H1             21.3720003705        3.5421928873       13.9080469866  W2        6511            0.0000000000
     18270      6090  TIP3      H2             22.0509903705        4.5089328873       12.9613369866  W2        6511            0.0000000000
     18271      6091  TIP3      OH2            22.0107003705        3.8034728873        8.1110369866  W2        6512            0.0000000000
     18272      6091  TIP3      H1             21.1179903705        3.4630828873        8.0524169866  W2        6512            0.0000000000
     18273      6091  TIP3      H2             22.4613603705        3.4265628873        7.3553569866  W2        6512            0.0000000000
     18274      6092  TIP3      OH2            27.5462503705        4.2195028873        6.9281169866  W2        6513            0.0000000000
     18275      6092  TIP3      H1             27.1372803705        5.0343628873        6.6365969866  W2        6513            0.0000000000
     18276      6092  TIP3      H2             28.2668703705        4.0795128873        6.3138269866  W2        6513            0.0000000000
     18277      6093  TIP3      OH2            28.5510203705        3.6655428873        9.7420869866  W2        6515            0.0000000000
     18278      6093  TIP3      H1             28.3554703705        4.2712228873        9.0271469866  W2        6515            0.0000000000
     18279      6093  TIP3      H2             28.7322803705        2.8320628873        9.3077169866  W2        6515            0.0000000000
     18280      6094  TIP3      OH2            19.7638403705        3.9028128873       15.0662369866  W2        6516            0.0000000000
     18281      6094  TIP3      H1             19.7257803705        4.3029728873       15.9349469866  W2        6516            0.0000000000
     18282      6094  TIP3      H2             19.2729503705        3.0860528873       15.1565269866  W2        6516            0.0000000000
     18283      6095  TIP3      OH2            23.1295803705        1.2770428873        1.8648369866  W2        6517            0.0000000000
     18284      6095  TIP3      H1             22.6986503705        0.8320528873        2.5945769866  W2        6517            0.0000000000
     18285      6095  TIP3      H2             22.4114503705        1.6486728873        1.3525869866  W2        6517            0.0000000000
     18286      6096  TIP3      OH2            16.3719203705        1.0189928873        8.9167069866  W2        6518            0.0000000000
     18287      6096  TIP3      H1             17.0026903705        0.9902028873        9.6360969866  W2        6518            0.0000000000
     18288      6096  TIP3      H2             16.8213503705        0.5938628873        8.1862969866  W2        6518            0.0000000000
     18289      6097  TIP3      OH2            17.6461303705        1.7651928873        4.3407469866  W2        6519            0.0000000000
     18290      6097  TIP3      H1             18.1203003705        2.3561828873        3.7558369866  W2        6519            0.0000000000
     18291      6097  TIP3      H2             16.9287703705        2.2954828873        4.6877569866  W2        6519            0.0000000000
     18292      6098  TIP3      OH2            27.8149403705        5.3036728873       14.4133269866  W2        6520            0.0000000000
     18293      6098  TIP3      H1             28.1384203705        4.6726428873       13.7703769866  W2        6520            0.0000000000
     18294      6098  TIP3      H2             27.3748703705        4.7688928873       15.0740669866  W2        6520            0.0000000000
     18295      6099  TIP3      OH2            24.5922303705        1.2312228873        9.1974469866  W2        6521            0.0000000000
     18296      6099  TIP3      H1             23.6813403705        1.2879028873        9.4860469866  W2        6521            0.0000000000
     18297      6099  TIP3      H2             25.0975203705        1.1707728873       10.0081669866  W2        6521            0.0000000000
     18298      6100  TIP3      OH2            19.4205703705        2.8598528873        8.0242069866  W2        6522            0.0000000000
     18299      6100  TIP3      H1             18.5313703705        2.9594028873        7.6841669866  W2        6522            0.0000000000
     18300      6100  TIP3      H2             19.7170603705        2.0181528873        7.6779969866  W2        6522            0.0000000000
     18301      6101  TIP3      OH2            23.0737503705        2.8601128873        5.6806669866  W2        6523            0.0000000000
     18302      6101  TIP3      H1             24.0053003705        2.9891128873        5.8589769866  W2        6523            0.0000000000
     18303      6101  TIP3      H2             22.8587803705        3.5295428873        5.0311369866  W2        6523            0.0000000000
     18304      6102  TIP3      OH2            28.9974203705        0.4658528873       12.4616269866  W2        6524            0.0000000000
     18305      6102  TIP3      H1             28.3205803705        0.5971628873       13.1255969866  W2        6524            0.0000000000
     18306      6102  TIP3      H2             28.5119103705        0.3108028873       11.6513969866  W2        6524            0.0000000000
     18307      6103  TIP3      OH2            21.7477703705        4.0543328873        3.2472769866  W2        6525            0.0000000000
     18308      6103  TIP3      H1             21.2052803705        3.6747128873        2.5560369866  W2        6525            0.0000000000
     18309      6103  TIP3      H2             22.5812603705        4.2488028873        2.8186869866  W2        6525            0.0000000000
     18310      6104  TIP3      OH2            25.9122003705        4.0185228873       11.0844069866  W2        6528            0.0000000000
     18311      6104  TIP3      H1             26.4765403705        3.4721828873       10.5373669866  W2        6528            0.0000000000
     18312      6104  TIP3      H2             25.7645403705        3.4967128873       11.8731669866  W2        6528            0.0000000000
     18313      6105  TIP3      OH2            20.9141703705        0.1551328873        7.5028869866  W2        6529            0.0000000000
     18314      6105  TIP3      H1             20.5971203705       -0.7473371127        7.4674269866  W2        6529            0.0000000000
     18315      6105  TIP3      H2             21.6955803705        0.1568728873        6.9500469866  W2        6529            0.0000000000
     18316      6106  TIP3      OH2            24.5387903705        2.4071328873       13.4984469866  W2        6530            0.0000000000
     18317      6106  TIP3      H1             23.7033203705        2.8610828873       13.6086869866  W2        6530            0.0000000000
     18318      6106  TIP3      H2             25.0628503705        2.6829828873       14.2504369866  W2        6530            0.0000000000
     18319      6107  TIP3      OH2            25.0830503705        8.6199028873        5.1830869866  W2        6531            0.0000000000
     18320      6107  TIP3      H1             24.3381503705        8.1124328873        4.8608769866  W2        6531            0.0000000000
     18321      6107  TIP3      H2             24.9487703705        8.6687028873        6.1295669866  W2        6531            0.0000000000
     18322      6108  TIP3      OH2            32.2329403705        7.7527228873       13.9698469866  W2        6532            0.0000000000
     18323      6108  TIP3      H1             32.8748203705        8.2093528873       13.4260669866  W2        6532            0.0000000000
     18324      6108  TIP3      H2             31.4026303705        7.8659628873       13.5072569866  W2        6532            0.0000000000
     18325      6109  TIP3      OH2            28.9807303705        1.4338928873        3.3823469866  W2        6533            0.0000000000
     18326      6109  TIP3      H1             28.0421503705        1.5454528873        3.2312269866  W2        6533            0.0000000000
     18327      6109  TIP3      H2             29.2779403705        2.2905828873        3.6889169866  W2        6533            0.0000000000
     18328      6110  TIP3      OH2            26.6022603705        8.8042328873       16.4199969866  W2        6534            0.0000000000
     18329      6110  TIP3      H1             26.2568703705        8.4224728873       17.2269569866  W2        6534            0.0000000000
     18330      6110  TIP3      H2             26.4022703705        9.7375928873       16.4912869866  W2        6534            0.0000000000
     18331      6111  TIP3      OH2            29.6990803705        3.3011628873        5.0430869866  W2        6535            0.0000000000
     18332      6111  TIP3      H1             30.5909803705        3.1636628873        5.3622069866  W2        6535            0.0000000000
     18333      6111  TIP3      H2             29.7554403705        4.0917728873        4.5064369866  W2        6535            0.0000000000
     18334      6112  TIP3      OH2            20.2078803705        7.9149028873       10.9528769866  W2        6536            0.0000000000
     18335      6112  TIP3      H1             20.9526003705        7.9124728873       10.3515269866  W2        6536            0.0000000000
     18336      6112  TIP3      H2             20.2855403705        7.0912828873       11.4343869866  W2        6536            0.0000000000
     18337      6113  TIP3      OH2            27.2084603705       10.0783328873        4.2085469866  W2        6537            0.0000000000
     18338      6113  TIP3      H1             26.9133003705       10.9051228873        4.5900269866  W2        6537            0.0000000000
     18339      6113  TIP3      H2             26.5054603705        9.4590228873        4.4046869866  W2        6537            0.0000000000
     18340      6114  TIP3      OH2            17.2158503705        6.3755928873       16.2677269866  W2        6538            0.0000000000
     18341      6114  TIP3      H1             17.4387103705        5.9575528873       17.0994769866  W2        6538            0.0000000000
     18342      6114  TIP3      H2             16.6138603705        5.7630928873       15.8450069866  W2        6538            0.0000000000
     18343      6115  TIP3      OH2            28.8526203705       11.2657828873       16.3704969866  W2        6540            0.0000000000
     18344      6115  TIP3      H1             27.9520503705       11.4490428873       16.1028869866  W2        6540            0.0000000000
     18345      6115  TIP3      H2             28.8867303705       11.5247128873       17.2913769866  W2        6540            0.0000000000
     18346      6116  TIP3      OH2            34.5839503705        3.5105728873        4.7377569866  W2        6541            0.0000000000
     18347      6116  TIP3      H1             34.0295803705        3.1143728873        4.0655069866  W2        6541            0.0000000000
     18348      6116  TIP3      H2             34.6843103705        4.4210928873        4.4600869866  W2        6541            0.0000000000
     18349      6117  TIP3      OH2            32.8791203705       12.2966128873        5.2029669866  W2        6543            0.0000000000
     18350      6117  TIP3      H1             32.5062303705       11.4709928873        5.5120269866  W2        6543            0.0000000000
     18351      6117  TIP3      H2             33.1564703705       12.1135528873        4.3053069866  W2        6543            0.0000000000
     18352      6118  TIP3      OH2            30.0395103705        7.1045628873       12.2241569866  W2        6544            0.0000000000
     18353      6118  TIP3      H1             29.1112003705        6.8727528873       12.1970869866  W2        6544            0.0000000000
     18354      6118  TIP3      H2             30.4906203705        6.3275428873       11.8940369866  W2        6544            0.0000000000
     18355      6119  TIP3      OH2            22.5828203705       11.4327228873        8.3570269866  W2        6545            0.0000000000
     18356      6119  TIP3      H1             23.1100403705       12.2061628873        8.1569069866  W2        6545            0.0000000000
     18357      6119  TIP3      H2             21.7026703705       11.6576428873        8.0554269866  W2        6545            0.0000000000
     18358      6120  TIP3      OH2            18.3375903705        6.2951328873        2.9442669866  W2        6546            0.0000000000
     18359      6120  TIP3      H1             18.9535803705        6.9218528873        3.3237469866  W2        6546            0.0000000000
     18360      6120  TIP3      H2             17.4758503705        6.6111128873        3.2159169866  W2        6546            0.0000000000
     18361      6121  TIP3      OH2            24.0100503705        9.0957128873        7.9334569866  W2        6547            0.0000000000
     18362      6121  TIP3      H1             23.7690503705       10.0211528873        7.9749869866  W2        6547            0.0000000000
     18363      6121  TIP3      H2             23.2694103705        8.6368428873        8.3298469866  W2        6547            0.0000000000
     18364      6122  TIP3      OH2            24.5247103705       13.2450728873       14.2485669866  W2        6548            0.0000000000
     18365      6122  TIP3      H1             24.8871803705       14.0996328873       14.0150069866  W2        6548            0.0000000000
     18366      6122  TIP3      H2             25.0562303705       12.9532328873       14.9891969866  W2        6548            0.0000000000
     18367      6123  TIP3      OH2            22.6931303705       14.1174728873        7.4786769866  W2        6549            0.0000000000
     18368      6123  TIP3      H1             21.7431803705       14.2232128873        7.5300069866  W2        6549            0.0000000000
     18369      6123  TIP3      H2             23.0449403705       14.9382128873        7.8234269866  W2        6549            0.0000000000
     18370      6124  TIP3      OH2            28.0687903705        9.3441428873       13.9491269866  W2        6550            0.0000000000
     18371      6124  TIP3      H1             27.6429203705        9.1163128873       14.7755269866  W2        6550            0.0000000000
     18372      6124  TIP3      H2             28.6493703705        8.6053228873       13.7666569866  W2        6550            0.0000000000
     18373      6125  TIP3      OH2            30.2716803705       10.2731928873        3.0230269866  W2        6551            0.0000000000
     18374      6125  TIP3      H1             30.6249903705        9.8931728873        3.8273769866  W2        6551            0.0000000000
     18375      6125  TIP3      H2             29.3230303705       10.1796728873        3.1099569866  W2        6551            0.0000000000
     18376      6126  TIP3      OH2            30.7272103705       13.8960928873       16.4186069866  W2        6552            0.0000000000
     18377      6126  TIP3      H1             30.1255303705       13.3403828873       15.9232369866  W2        6552            0.0000000000
     18378      6126  TIP3      H2             31.0085803705       14.5630728873       15.7923469866  W2        6552            0.0000000000
     18379      6127  TIP3      OH2            34.7751203705       14.7524428873        3.2240469866  W2        6553            0.0000000000
     18380      6127  TIP3      H1             35.5189103705       15.3384928873        3.0842069866  W2        6553            0.0000000000
     18381      6127  TIP3      H2             34.0809303705       15.3210228873        3.5572869866  W2        6553            0.0000000000
     18382      6128  TIP3      OH2            18.8498003705        1.1288628873       15.8258669866  W2        6554            0.0000000000
     18383      6128  TIP3      H1             17.9570303705        1.4674028873       15.7582669866  W2        6554            0.0000000000
     18384      6128  TIP3      H2             18.7510803705        0.2734728873       16.2439469866  W2        6554            0.0000000000
     18385      6129  TIP3      OH2            31.1376103705        8.9453928873        5.2498169866  W2        6555            0.0000000000
     18386      6129  TIP3      H1             30.8603703705        8.2173228873        5.8059269866  W2        6555            0.0000000000
     18387      6129  TIP3      H2             32.0649103705        9.0645928873        5.4550769866  W2        6555            0.0000000000
     18388      6130  TIP3      OH2            18.5010003705       12.9333028873       14.2608069866  W2        6556            0.0000000000
     18389      6130  TIP3      H1             18.7180303705       12.0015428873       14.2297769866  W2        6556            0.0000000000
     18390      6130  TIP3      H2             18.7473503705       13.2078028873       15.1440869866  W2        6556            0.0000000000
     18391      6131  TIP3      OH2            24.3624603705       11.3848028873        1.4700269866  W2        6557            0.0000000000
     18392      6131  TIP3      H1             24.6014403705       10.6366128873        0.9229169866  W2        6557            0.0000000000
     18393      6131  TIP3      H2             24.0935903705       10.9969728873        2.3028069866  W2        6557            0.0000000000
     18394      6132  TIP3      OH2            23.2995203705       10.9551828873        3.9262869866  W2        6558            0.0000000000
     18395      6132  TIP3      H1             23.4463203705       10.4351628873        4.7163769866  W2        6558            0.0000000000
     18396      6132  TIP3      H2             23.2966903705       11.8619428873        4.2328769866  W2        6558            0.0000000000
     18397      6133  TIP3      OH2            19.7526303705        8.2075128873        4.4368269866  W2        6559            0.0000000000
     18398      6133  TIP3      H1             19.0665603705        8.5597628873        5.0037969866  W2        6559            0.0000000000
     18399      6133  TIP3      H2             20.2754203705        8.9704728873        4.1902569866  W2        6559            0.0000000000
     18400      6134  TIP3      OH2            27.5841403705        0.8698928873       14.7157269866  W2        6560            0.0000000000
     18401      6134  TIP3      H1             28.2829303705        0.9437628873       15.3656969866  W2        6560            0.0000000000
     18402      6134  TIP3      H2             27.2032803705        0.0053928873       14.8700169866  W2        6560            0.0000000000
     18403      6135  TIP3      OH2            28.3686303705        0.5220628873        5.8129569866  W2        6561            0.0000000000
     18404      6135  TIP3      H1             28.5884603705        0.9936028873        5.0094969866  W2        6561            0.0000000000
     18405      6135  TIP3      H2             28.9270303705        0.9163228873        6.4830169866  W2        6561            0.0000000000
     18406      6136  TIP3      OH2            26.0372403705       12.6525428873        4.6757069866  W2        6562            0.0000000000
     18407      6136  TIP3      H1             25.2208503705       13.1495128873        4.7281369866  W2        6562            0.0000000000
     18408      6136  TIP3      H2             26.5668703705       13.1278928873        4.0355869866  W2        6562            0.0000000000
     18409      6137  TIP3      OH2            25.5686203705        2.2499428873        6.6477969866  W2        6563            0.0000000000
     18410      6137  TIP3      H1             26.3808803705        2.7542628873        6.6939669866  W2        6563            0.0000000000
     18411      6137  TIP3      H2             25.3239203705        2.1049128873        7.5617569866  W2        6563            0.0000000000
     18412      6138  TIP3      OH2            26.1042603705        3.2362128873       15.8324569866  W2        6564            0.0000000000
     18413      6138  TIP3      H1             26.2232903705        3.8097528873       16.5894969866  W2        6564            0.0000000000
     18414      6138  TIP3      H2             26.7597203705        2.5481528873       15.9472369866  W2        6564            0.0000000000
     18415      6139  TIP3      OH2            26.4522903705       -0.6687571127        7.5859069866  W2        6565            0.0000000000
     18416      6139  TIP3      H1             26.1056403705       -0.0516971127        8.2303369866  W2        6565            0.0000000000
     18417      6139  TIP3      H2             27.1109803705       -0.1681871127        7.1044569866  W2        6565            0.0000000000
     18418      6140  TIP3      OH2            23.3755503705       13.6962628873        4.6573969866  W2        6566            0.0000000000
     18419      6140  TIP3      H1             23.5364203705       14.4960128873        4.1566569866  W2        6566            0.0000000000
     18420      6140  TIP3      H2             23.1783303705       14.0028628873        5.5424569866  W2        6566            0.0000000000
     18421      6141  TIP3      OH2            22.1099903705        0.3941828873        4.2731569866  W2        6567            0.0000000000
     18422      6141  TIP3      H1             22.0264703705        1.2824928873        4.6197969866  W2        6567            0.0000000000
     18423      6141  TIP3      H2             23.0000203705        0.1288528873        4.5048369866  W2        6567            0.0000000000
     18424      6142  TIP3      OH2            32.3088403705        1.1432428873       16.6674269866  W2        6568            0.0000000000
     18425      6142  TIP3      H1             31.3924203705        1.4054128873       16.5797969866  W2        6568            0.0000000000
     18426      6142  TIP3      H2             32.6443403705        1.1401428873       15.7709569866  W2        6568            0.0000000000
     18427      6143  TIP3      OH2            30.9109403705        4.8933428873       10.7631569866  W2        6569            0.0000000000
     18428      6143  TIP3      H1             30.1133803705        4.4783628873       10.4346569866  W2        6569            0.0000000000
     18429      6143  TIP3      H2             31.3560503705        4.2027128873       11.2542069866  W2        6569            0.0000000000
     18430      6144  TIP3      OH2            20.3685203705       10.8214028873        3.3336069866  W2        6570            0.0000000000
     18431      6144  TIP3      H1             20.9606703705       11.5208828873        3.6098469866  W2        6570            0.0000000000
     18432      6144  TIP3      H2             20.8278203705       10.3883528873        2.6140669866  W2        6570            0.0000000000
     18433      6145  TIP3      OH2            18.6844403705        3.4857028873        2.4495469866  W2        6571            0.0000000000
     18434      6145  TIP3      H1             18.6397003705        4.4250128873        2.6282469866  W2        6571            0.0000000000
     18435      6145  TIP3      H2             17.7967603705        3.2501928873        2.1797569866  W2        6571            0.0000000000
     18436      6146  TIP3      OH2            31.9974003705       14.1495928873       12.3855069866  W2        6572            0.0000000000
     18437      6146  TIP3      H1             31.8418303705       14.8280328873       11.7284369866  W2        6572            0.0000000000
     18438      6146  TIP3      H2             32.9300403705       14.2215228873       12.5885669866  W2        6572            0.0000000000
     18439      6147  TIP3      OH2            19.4926403705       -1.7326371127       11.1226469866  W2        6573            0.0000000000
     18440      6147  TIP3      H1             19.2636203705       -1.6733871127       10.1951469866  W2        6573            0.0000000000
     18441      6147  TIP3      H2             19.0499803705       -2.5240871127       11.4290569866  W2        6573            0.0000000000
     18442      6148  TIP3      OH2            18.4229703705       12.2080728873        7.2832269866  W2        6574            0.0000000000
     18443      6148  TIP3      H1             17.5908303705       12.6803428873        7.3103669866  W2        6574            0.0000000000
     18444      6148  TIP3      H2             18.9688003705       12.7178328873        6.6845369866  W2        6574            0.0000000000
     18445      6149  TIP3      OH2            26.4006403705       13.2479428873        1.6086269866  W2        6577            0.0000000000
     18446      6149  TIP3      H1             25.7567403705       12.6168028873        1.9299969866  W2        6577            0.0000000000
     18447      6149  TIP3      H2             27.1624703705       12.7167428873        1.3769769866  W2        6577            0.0000000000
     18448      6150  TIP3      OH2            31.0049303705       13.0649328873        1.8424269866  W2        6579            0.0000000000
     18449      6150  TIP3      H1             31.2879703705       12.2704528873        2.2951169866  W2        6579            0.0000000000
     18450      6150  TIP3      H2             31.7447203705       13.2980328873        1.2815369866  W2        6579            0.0000000000
     18451      6151  TIP3      OH2            21.9596603705        8.9744228873        1.6999169866  W2        6581            0.0000000000
     18452      6151  TIP3      H1             22.0240703705        8.1803828873        2.2305569866  W2        6581            0.0000000000
     18453      6151  TIP3      H2             22.6125803705        8.8557028873        1.0101169866  W2        6581            0.0000000000
     18454      6152  TIP3      OH2            27.3120003705       10.0215928873        1.4357169866  W2        6583            0.0000000000
     18455      6152  TIP3      H1             27.0434103705       10.2018028873        2.3366069866  W2        6583            0.0000000000
     18456      6152  TIP3      H2             27.1055603705        9.0962128873        1.3042969866  W2        6583            0.0000000000
     18457      6153  TIP3      OH2            30.0084203705        8.5163928873       16.3833269866  W2        6584            0.0000000000
     18458      6153  TIP3      H1             30.7539003705        9.1047628873       16.2637269866  W2        6584            0.0000000000
     18459      6153  TIP3      H2             29.2511003705        9.0983628873       16.4466369866  W2        6584            0.0000000000
     18460      6154  TIP3      OH2            23.1090403705        6.9470428873        4.0057169866  W2        6586            0.0000000000
     18461      6154  TIP3      H1             22.6492403705        6.4628728873        4.6915669866  W2        6586            0.0000000000
     18462      6154  TIP3      H2             23.3639103705        6.2785828873        3.3697669866  W2        6586            0.0000000000
     18463      6155  TIP3      OH2            22.3979703705        4.8397528873       16.3616769866  W2        6587            0.0000000000
     18464      6155  TIP3      H1             21.7795803705        5.5144128873       16.6421469866  W2        6587            0.0000000000
     18465      6155  TIP3      H2             22.7420903705        5.1611428873       15.5282969866  W2        6587            0.0000000000
     18466      6156  TIP3      OH2            24.1800803705        5.1902228873        2.2680369866  W2        6588            0.0000000000
     18467      6156  TIP3      H1             23.9995803705        5.0353428873        1.3408669866  W2        6588            0.0000000000
     18468      6156  TIP3      H2             25.1301303705        5.2980928873        2.3128269866  W2        6588            0.0000000000
     18469      6157  TIP3      OH2            33.5699103705        7.5446428873        1.7138469866  W2        6590            0.0000000000
     18470      6157  TIP3      H1             33.2963903705        7.1201928873        0.9006769866  W2        6590            0.0000000000
     18471      6157  TIP3      H2             33.6093203705        8.4760928873        1.4968869866  W2        6590            0.0000000000
     18472      6158  TIP3      OH2            22.7373403705        2.1948328873       17.4439869866  W2        6591            0.0000000000
     18473      6158  TIP3      H1             22.8874303705        1.4659628873       16.8419569866  W2        6591            0.0000000000
     18474      6158  TIP3      H2             22.7395803705        2.9720028873       16.8852069866  W2        6591            0.0000000000
     18475      6159  TIP3      OH2            23.1499103705        0.5644128873       14.9367269866  W2        6592            0.0000000000
     18476      6159  TIP3      H1             23.6856603705        1.0160828873       14.2846569866  W2        6592            0.0000000000
     18477      6159  TIP3      H2             22.2978703705        0.4563928873       14.5141369866  W2        6592            0.0000000000
     18478      6160  TIP3      OH2            24.7317503705        6.0040328873       15.1762469866  W2        6593            0.0000000000
     18479      6160  TIP3      H1             25.4822303705        5.8477828873       14.6030269866  W2        6593            0.0000000000
     18480      6160  TIP3      H2             24.3925803705        6.8556928873       14.9007969866  W2        6593            0.0000000000
     18481      6161  TIP3      OH2            23.9554603705       -1.9790171127       15.3680869866  W2        6597            0.0000000000
     18482      6161  TIP3      H1             23.8574203705       -1.0326971127       15.2627069866  W2        6597            0.0000000000
     18483      6161  TIP3      H2             23.2130803705       -2.3516371127       14.8924369866  W2        6597            0.0000000000
     18484      6162  TIP3      OH2            24.0772503705       15.8805928873        3.2693969866  W2        6604            0.0000000000
     18485      6162  TIP3      H1             25.0103203705       16.0384628873        3.4132369866  W2        6604            0.0000000000
     18486      6162  TIP3      H2             23.8131303705       16.5558928873        2.6445469866  W2        6604            0.0000000000
     18487      6163  TIP3      OH2            17.6457403705       10.5169728873        2.7522069866  W2        6605            0.0000000000
     18488      6163  TIP3      H1             18.5596603705       10.5958628873        3.0255969866  W2        6605            0.0000000000
     18489      6163  TIP3      H2             17.6530503705        9.8299328873        2.0857669866  W2        6605            0.0000000000
     18490      6164  TIP3      OH2            16.2948003705       15.9098228873        7.8295969866  W2        6606            0.0000000000
     18491      6164  TIP3      H1             15.6475103705       15.4479928873        7.2967169866  W2        6606            0.0000000000
     18492      6164  TIP3      H2             16.6492603705       15.2381528873        8.4122169866  W2        6606            0.0000000000
     18493      6165  TIP3      OH2            17.1647203705       13.9905228873        9.6342169866  W2        6607            0.0000000000
     18494      6165  TIP3      H1             16.8304003705       13.1102528873        9.8062369866  W2        6607            0.0000000000
     18495      6165  TIP3      H2             17.3869603705       14.3360228873       10.4987769866  W2        6607            0.0000000000
     18496      6166  TIP3      OH2            34.7132003705       14.8001628873       12.6146969866  W2        6608            0.0000000000
     18497      6166  TIP3      H1             34.6918703705       14.9850028873       13.5536369866  W2        6608            0.0000000000
     18498      6166  TIP3      H2             35.4038203705       15.3685628873       12.2738369866  W2        6608            0.0000000000
     18499      6167  TIP3      OH2            34.2764903705       14.3672728873       15.5366069866  W2        6609            0.0000000000
     18500      6167  TIP3      H1             33.7893603705       13.6316828873       15.1653469866  W2        6609            0.0000000000
     18501      6167  TIP3      H2             34.8257603705       13.9736628873       16.2145469866  W2        6609            0.0000000000
     18502      6168  TIP3      OH2            34.0281903705        8.4134528873        5.6888869866  W2        6611            0.0000000000
     18503      6168  TIP3      H1             34.8783303705        8.8345428873        5.8160469866  W2        6611            0.0000000000
     18504      6168  TIP3      H2             34.0337003705        7.6734628873        6.2960269866  W2        6611            0.0000000000
     18505      6169  TIP3      OH2            34.4227503705        6.4671928873        7.5124569866  W2        6612            0.0000000000
     18506      6169  TIP3      H1             33.6962103705        5.9874528873        7.9102169866  W2        6612            0.0000000000
     18507      6169  TIP3      H2             35.0040803705        6.6726628873        8.2446169866  W2        6612            0.0000000000
     18508      6170  TIP3      OH2            34.1818703705        9.2519428873       12.4602169866  W2        6613            0.0000000000
     18509      6170  TIP3      H1             35.0152903705        8.8739428873       12.1795769866  W2        6613            0.0000000000
     18510      6170  TIP3      H2             34.2939003705       10.1950628873       12.3411269866  W2        6613            0.0000000000
     18511      6171  TIP3      OH2            32.6681003705       12.1296928873       14.7670569866  W2        6614            0.0000000000
     18512      6171  TIP3      H1             32.0206303705       12.4548428873       15.3925769866  W2        6614            0.0000000000
     18513      6171  TIP3      H2             32.1505003705       11.6894628873       14.0928869866  W2        6614            0.0000000000
     18514      6172  TIP3      OH2            34.6910603705        6.3680428873        3.9035869866  W2        6615            0.0000000000
     18515      6172  TIP3      H1             34.1691703705        6.7244528873        3.1846769866  W2        6615            0.0000000000
     18516      6172  TIP3      H2             34.6579803705        7.0428228873        4.5816769866  W2        6615            0.0000000000
     18517      6173  TIP3      OH2            33.0399603705        3.6076028873        2.4542969866  W2        6616            0.0000000000
     18518      6173  TIP3      H1             33.1364003705        4.2743028873        1.7742669866  W2        6616            0.0000000000
     18519      6173  TIP3      H2             32.8999203705        2.7922328873        1.9728469866  W2        6616            0.0000000000
     18520      6174  TIP3      OH2            32.2094303705        4.9878428873        8.0753269866  W2        6617            0.0000000000
     18521      6174  TIP3      H1             32.0593103705        4.0427028873        8.0551069866  W2        6617            0.0000000000
     18522      6174  TIP3      H2             31.8558803705        5.2689828873        8.9192369866  W2        6617            0.0000000000
     18523      6175  TIP3      OH2            17.2446703705        7.0660628873       12.0857069866  W2        6618            0.0000000000
     18524      6175  TIP3      H1             17.4289603705        6.9842328873       11.1499969866  W2        6618            0.0000000000
     18525      6175  TIP3      H2             18.0939603705        6.9417628873       12.5093469866  W2        6618            0.0000000000
     18526      6176  TIP3      OH2            32.2873403705        1.0155828873        1.5718469866  W2        6621            0.0000000000
     18527      6176  TIP3      H1             32.8979203705        0.6442628873        2.2086669866  W2        6621            0.0000000000
     18528      6176  TIP3      H2             31.4504903705        0.5942728873        1.7678469866  W2        6621            0.0000000000
     18529      6177  TIP3      OH2            31.9199103705        2.5704228873        6.5378369866  W2        6622            0.0000000000
     18530      6177  TIP3      H1             32.1996203705        1.6634628873        6.6620069866  W2        6622            0.0000000000
     18531      6177  TIP3      H2             32.6790803705        3.0045728873        6.1487569866  W2        6622            0.0000000000
     18532      6178  TIP3      OH2            32.5317403705        3.1521628873       11.9737269866  W2        6623            0.0000000000
     18533      6178  TIP3      H1             33.4645403705        3.3641528873       11.9393269866  W2        6623            0.0000000000
     18534      6178  TIP3      H2             32.2964903705        3.2533728873       12.8960269866  W2        6623            0.0000000000
     18535      6179  TIP3      OH2            32.5609303705        3.8886928873       14.7496669866  W2        6624            0.0000000000
     18536      6179  TIP3      H1             31.7180603705        4.1567328873       15.1156469866  W2        6624            0.0000000000
     18537      6179  TIP3      H2             33.0033603705        4.7108828873       14.5387769866  W2        6624            0.0000000000
     18538      6180  TIP3      OH2            32.5333903705       -0.1666471127        6.5860369866  W2        6627            0.0000000000
     18539      6180  TIP3      H1             32.7158903705       -0.6154971127        7.4115369866  W2        6627            0.0000000000
     18540      6180  TIP3      H2             31.9336803705       -0.7512071127        6.1224969866  W2        6627            0.0000000000
     18541      6181  TIP3      OH2            18.0634003705        0.6487228873       11.1178769866  W2        6628            0.0000000000
     18542      6181  TIP3      H1             18.5085603705       -0.1430271127       11.4198469866  W2        6628            0.0000000000
     18543      6181  TIP3      H2             18.5297003705        1.3652428873       11.5484369866  W2        6628            0.0000000000
     18544      6182  TIP3      OH2            16.3674303705        3.6480228873       12.1868969866  W2        6629            0.0000000000
     18545      6182  TIP3      H1             16.8594103705        3.4270728873       11.3960969866  W2        6629            0.0000000000
     18546      6182  TIP3      H2             16.7295203705        4.4883628873       12.4678469866  W2        6629            0.0000000000
     18547      6183  TIP3      OH2            34.4000103705       -0.0988371127        3.1140669866  W2        6631            0.0000000000
     18548      6183  TIP3      H1             34.8122703705       -0.8202671127        2.6388669866  W2        6631            0.0000000000
     18549      6183  TIP3      H2             35.0816603705        0.5706228873        3.1724969866  W2        6631            0.0000000000
     18550      6184  TIP3      OH2            16.6810803705       -0.0940671127        6.2411369866  W2        6632            0.0000000000
     18551      6184  TIP3      H1             15.7559203705        0.1145928873        6.1116869866  W2        6632            0.0000000000
     18552      6184  TIP3      H2             17.1350703705        0.3900128873        5.5513669866  W2        6632            0.0000000000
     18553      6185  TIP3      OH2            31.4518003705       14.8901028873        8.1868769866  W2        6633            0.0000000000
     18554      6185  TIP3      H1             32.1040903705       14.5423128873        7.5787869866  W2        6633            0.0000000000
     18555      6185  TIP3      H2             31.9621803705       15.3784228873        8.8328469866  W2        6633            0.0000000000
     18556      6186  TIP3      OH2            16.6446203705       -1.3561671127       14.5853869866  W2        6634            0.0000000000
     18557      6186  TIP3      H1             15.9796703705       -1.6021371127       15.2284769866  W2        6634            0.0000000000
     18558      6186  TIP3      H2             16.2017503705       -0.7341271127       14.0081869866  W2        6634            0.0000000000
     18559      6187  TIP3      OH2            21.7908403705       12.7933628873       14.9883669866  W2        6636            0.0000000000
     18560      6187  TIP3      H1             21.3659503705       13.6032128873       14.7058269866  W2        6636            0.0000000000
     18561      6187  TIP3      H2             22.6951203705       12.8787728873       14.6863469866  W2        6636            0.0000000000
     18562      6188  TIP3      OH2            28.4470203705       15.4782528873       17.1918769866  W2        6638            0.0000000000
     18563      6188  TIP3      H1             29.1239103705       14.8454828873       16.9517969866  W2        6638            0.0000000000
     18564      6188  TIP3      H2             28.7689003705       15.8793028873       17.9992069866  W2        6638            0.0000000000
     18565      6189  TIP3      OH2            33.3644003705       -1.9321971127       16.2713769866  W2        6639            0.0000000000
     18566      6189  TIP3      H1             32.5517503705       -1.6071671127       15.8838469866  W2        6639            0.0000000000
     18567      6189  TIP3      H2             33.5972503705       -2.6923471127       15.7382869866  W2        6639            0.0000000000
     18568      6190  TIP3      OH2            19.1925103705       16.0497528873       15.0358969866  W2        6640            0.0000000000
     18569      6190  TIP3      H1             18.4721503705       16.4898528873       14.5846669866  W2        6640            0.0000000000
     18570      6190  TIP3      H2             18.8269103705       15.7992228873       15.8842969866  W2        6640            0.0000000000
     18571      6191  TIP3      OH2            21.6597703705       15.6501428873       14.0656169866  W2        6641            0.0000000000
     18572      6191  TIP3      H1             20.7949903705       15.7219928873       14.4696269866  W2        6641            0.0000000000
     18573      6191  TIP3      H2             21.6046703705       16.1968728873       13.2818669866  W2        6641            0.0000000000
     18574      6192  TIP3      OH2            26.3703303705       15.5380328873       13.2412169866  W2        6642            0.0000000000
     18575      6192  TIP3      H1             25.9137303705       16.0670028873       12.5870569866  W2        6642            0.0000000000
     18576      6192  TIP3      H2             26.5331303705       16.1411728873       13.9664469866  W2        6642            0.0000000000
     18577      6193  TIP3      OH2            28.6979603705       14.4159928873       14.1862469866  W2        6643            0.0000000000
     18578      6193  TIP3      H1             27.7933303705       14.5810128873       13.9204569866  W2        6643            0.0000000000
     18579      6193  TIP3      H2             29.1268203705       15.2692128873       14.1205869866  W2        6643            0.0000000000
     18580      6194  TIP3      OH2            31.3021503705       15.9859028873       14.4810269866  W2        6644            0.0000000000
     18581      6194  TIP3      H1             31.1203503705       16.9017928873       14.2705169866  W2        6644            0.0000000000
     18582      6194  TIP3      H2             31.4789303705       15.5756128873       13.6344869866  W2        6644            0.0000000000
     18583      6195  TIP3      OH2            18.6073203705       14.6730028873       11.9460769866  W2        6645            0.0000000000
     18584      6195  TIP3      H1             18.5889203705       14.2475128873       12.8033069866  W2        6645            0.0000000000
     18585      6195  TIP3      H2             19.4121103705       14.3545028873       11.5372969866  W2        6645            0.0000000000
     18586      6196  TIP3      OH2            20.7486303705       13.3828728873       10.6010669866  W2        6646            0.0000000000
     18587      6196  TIP3      H1             20.5297003705       12.4666128873       10.7706669866  W2        6646            0.0000000000
     18588      6196  TIP3      H2             21.5728503705       13.5229128873       11.0672069866  W2        6646            0.0000000000
     18589      6197  TIP3      OH2            23.2858803705       13.8528028873       11.4498669866  W2        6647            0.0000000000
     18590      6197  TIP3      H1             23.4984503705       12.9647028873       11.1629569866  W2        6647            0.0000000000
     18591      6197  TIP3      H2             23.3503903705       13.8185728873       12.4042669866  W2        6647            0.0000000000
     18592      6198  TIP3      OH2            26.7942503705       -0.4831371127       10.5941969866  W2        6648            0.0000000000
     18593      6198  TIP3      H1             26.1199303705       -1.1125771127       10.8497769866  W2        6648            0.0000000000
     18594      6198  TIP3      H2             27.3581703705       -0.9672471127        9.9909869866  W2        6648            0.0000000000
     18595      6199  TIP3      OH2            31.9369703705       -2.3757371127       10.7069069866  W2        6649            0.0000000000
     18596      6199  TIP3      H1             32.5407303705       -1.8281971127       10.2050069866  W2        6649            0.0000000000
     18597      6199  TIP3      H2             31.0671703705       -2.0566971127       10.4663169866  W2        6649            0.0000000000
     18598      6200  TIP3      OH2            33.6640103705       -1.2368671127        9.0399969866  W2        6650            0.0000000000
     18599      6200  TIP3      H1             34.2757603705       -1.7512971127        8.5133569866  W2        6650            0.0000000000
     18600      6200  TIP3      H2             34.0463503705       -0.3596571127        9.0634369866  W2        6650            0.0000000000
     18601      6201  TIP3      OH2            19.1210003705       -1.8491071127        8.4161869866  W2        6651            0.0000000000
     18602      6201  TIP3      H1             18.3439803705       -2.0836171127        7.9087769866  W2        6651            0.0000000000
     18603      6201  TIP3      H2             19.6513603705       -2.6458971127        8.4249869866  W2        6651            0.0000000000
     18604      6202  TIP3      OH2            17.9573403705       -2.0512971127        4.2197969866  W2        6652            0.0000000000
     18605      6202  TIP3      H1             18.3964103705       -1.4402471127        3.6281469866  W2        6652            0.0000000000
     18606      6202  TIP3      H2             17.3235803705       -1.5128871127        4.6937969866  W2        6652            0.0000000000
     18607      6203  TIP3      OH2            23.7002603705       -1.9223971127        8.2294969866  W2        6653            0.0000000000
     18608      6203  TIP3      H1             24.5746003705       -1.5339671127        8.1999269866  W2        6653            0.0000000000
     18609      6203  TIP3      H2             23.5643403705       -2.1376171127        9.1522169866  W2        6653            0.0000000000
     18610      6204  TIP3      OH2            29.2571003705       -1.8924171127        9.8786669866  W2        6654            0.0000000000
     18611      6204  TIP3      H1             29.3332603705       -1.7972571127        8.9292669866  W2        6654            0.0000000000
     18612      6204  TIP3      H2             28.9820203705       -2.8001271127       10.0075769866  W2        6654            0.0000000000
     18613      6205  TIP3      OH2            30.6103603705       -1.8666371127        5.5711669866  W2        6655            0.0000000000
     18614      6205  TIP3      H1             29.9074703705       -1.2517171127        5.3613069866  W2        6655            0.0000000000
     18615      6205  TIP3      H2             30.1655003705       -2.7039671127        5.7022569866  W2        6655            0.0000000000
     18616      6206  TIP3      OH2            17.8582903705       13.8969228873        5.1173069866  W2        6656            0.0000000000
     18617      6206  TIP3      H1             17.1732803705       13.8588128873        4.4498169866  W2        6656            0.0000000000
     18618      6206  TIP3      H2             17.8620103705       14.8096828873        5.4055169866  W2        6656            0.0000000000
     18619      6207  TIP3      OH2            19.8182503705       -0.1351471127        2.6622069866  W2        6657            0.0000000000
     18620      6207  TIP3      H1             20.3095903705       -0.7649071127        2.1347569866  W2        6657            0.0000000000
     18621      6207  TIP3      H2             20.4418803705        0.1607928873        3.3253269866  W2        6657            0.0000000000
     18622      6208  TIP3      OH2            24.8442603705        0.1580028873        5.1192569866  W2        6658            0.0000000000
     18623      6208  TIP3      H1             25.0223903705       -0.4886771127        5.8021169866  W2        6658            0.0000000000
     18624      6208  TIP3      H2             24.7908803705        0.9917728873        5.5863669866  W2        6658            0.0000000000
     18625      6209  TIP3      OH2            26.7226403705       15.1064128873        3.5149269866  W2        6659            0.0000000000
     18626      6209  TIP3      H1             27.5886603705       15.4731528873        3.3367469866  W2        6659            0.0000000000
     18627      6209  TIP3      H2             26.4759203705       14.6672128873        2.7010069866  W2        6659            0.0000000000
     18628      6210  TIP3      OH2            33.4316003705       14.6694428873        6.1940369866  W2        6660            0.0000000000
     18629      6210  TIP3      H1             33.2373103705       13.9216528873        5.6289969866  W2        6660            0.0000000000
     18630      6210  TIP3      H2             33.3926103705       15.4274528873        5.6108269866  W2        6660            0.0000000000
     18631      6211  TIP3      OH2            19.6764103705       14.8170028873        2.1425169866  W2        6663            0.0000000000
     18632      6211  TIP3      H1             19.4088703705       15.1032928873        3.0158269866  W2        6663            0.0000000000
     18633      6211  TIP3      H2             20.4476703705       14.2709228873        2.2947669866  W2        6663            0.0000000000
     18634      6212  TIP3      OH2            38.3568903705        6.1764028873       13.3867469866  W2        6666            0.0000000000
     18635      6212  TIP3      H1             38.3981003705        5.5507328873       14.1099869866  W2        6666            0.0000000000
     18636      6212  TIP3      H2             39.0596603705        6.8002628873       13.5687869866  W2        6666            0.0000000000
     18637      6213  TIP3      OH2            39.2802003705       10.6262928873       11.9216569866  W2        6667            0.0000000000
     18638      6213  TIP3      H1             38.9107203705        9.8243428873       11.5520869866  W2        6667            0.0000000000
     18639      6213  TIP3      H2             40.2213103705       10.4577828873       11.9679969866  W2        6667            0.0000000000
     18640      6214  TIP3      OH2            35.8902503705        4.2865528873        7.3145369866  W2        6668            0.0000000000
     18641      6214  TIP3      H1             35.4425903705        5.1324228873        7.2961869866  W2        6668            0.0000000000
     18642      6214  TIP3      H2             35.3293703705        3.7069728873        6.7990469866  W2        6668            0.0000000000
     18643      6215  TIP3      OH2            36.6008603705        6.4485128873        9.4403369866  W2        6669            0.0000000000
     18644      6215  TIP3      H1             36.8142103705        5.6786728873        9.9676369866  W2        6669            0.0000000000
     18645      6215  TIP3      H2             37.3386203705        6.5381828873        8.8370969866  W2        6669            0.0000000000
     18646      6216  TIP3      OH2            37.2935103705        3.8867928873       10.5619569866  W2        6670            0.0000000000
     18647      6216  TIP3      H1             37.9471703705        3.3369628873       10.9939669866  W2        6670            0.0000000000
     18648      6216  TIP3      H2             37.3174403705        3.6126928873        9.6451569866  W2        6670            0.0000000000
     18649      6217  TIP3      OH2            39.4835503705        0.4080528873       13.8738969866  W2        6671            0.0000000000
     18650      6217  TIP3      H1             39.2647203705        0.9381128873       13.1074969866  W2        6671            0.0000000000
     18651      6217  TIP3      H2             38.8156403705        0.6346028873       14.5210369866  W2        6671            0.0000000000
     18652      6218  TIP3      OH2            39.0772803705        2.3002328873       11.8261169866  W2        6672            0.0000000000
     18653      6218  TIP3      H1             39.6909103705        2.9329928873       12.1993569866  W2        6672            0.0000000000
     18654      6218  TIP3      H2             39.5893503705        1.8277328873       11.1698069866  W2        6672            0.0000000000
     18655      6219  TIP3      OH2            40.4601203705       10.0479228873       14.9484169866  W2        6673            0.0000000000
     18656      6219  TIP3      H1             40.4548803705       10.9272728873       14.5703469866  W2        6673            0.0000000000
     18657      6219  TIP3      H2             39.6065303705        9.9643328873       15.3734069866  W2        6673            0.0000000000
     18658      6220  TIP3      OH2            36.5812103705        9.7187128873        5.7303469866  W2        6674            0.0000000000
     18659      6220  TIP3      H1             36.3093003705        9.9478128873        4.8416369866  W2        6674            0.0000000000
     18660      6220  TIP3      H2             36.6267803705       10.5565928873        6.1908769866  W2        6674            0.0000000000
     18661      6221  TIP3      OH2            38.9942603705        6.7570128873       16.2403169866  W2        6675            0.0000000000
     18662      6221  TIP3      H1             39.0645803705        7.4076928873       16.9388169866  W2        6675            0.0000000000
     18663      6221  TIP3      H2             38.1034803705        6.8597628873       15.9054069866  W2        6675            0.0000000000
     18664      6222  TIP3      OH2            39.8179203705        6.4605028873        6.2503369866  W2        6677            0.0000000000
     18665      6222  TIP3      H1             39.5260503705        7.2286728873        5.7594669866  W2        6677            0.0000000000
     18666      6222  TIP3      H2             39.1434403705        5.8011228873        6.0874769866  W2        6677            0.0000000000
     18667      6223  TIP3      OH2            35.9109303705        8.8234228873       15.0653169866  W2        6678            0.0000000000
     18668      6223  TIP3      H1             35.4097703705        8.7953628873       14.2502869866  W2        6678            0.0000000000
     18669      6223  TIP3      H2             35.9163003705        7.9177428873       15.3750469866  W2        6678            0.0000000000
     18670      6224  TIP3      OH2            35.6612003705       11.6038028873       11.9493369866  W2        6679            0.0000000000
     18671      6224  TIP3      H1             36.6072603705       11.4595028873       11.9302869866  W2        6679            0.0000000000
     18672      6224  TIP3      H2             35.5488303705       12.3880828873       12.4864569866  W2        6679            0.0000000000
     18673      6225  TIP3      OH2            38.9054103705       14.4047628873        8.0948069866  W2        6680            0.0000000000
     18674      6225  TIP3      H1             39.0574503705       14.0568028873        8.9734569866  W2        6680            0.0000000000
     18675      6225  TIP3      H2             38.0544503705       14.0484928873        7.8395269866  W2        6680            0.0000000000
     18676      6226  TIP3      OH2            38.1599803705       10.1469628873       16.1085969866  W2        6681            0.0000000000
     18677      6226  TIP3      H1             38.3761103705        9.7855228873       16.9681769866  W2        6681            0.0000000000
     18678      6226  TIP3      H2             37.3044503705        9.7723428873       15.8989469866  W2        6681            0.0000000000
     18679      6227  TIP3      OH2            38.6198403705        3.9028128873       15.0662369866  W2        6682            0.0000000000
     18680      6227  TIP3      H1             38.5817803705        4.3029728873       15.9349469866  W2        6682            0.0000000000
     18681      6227  TIP3      H2             38.1289503705        3.0860528873       15.1565269866  W2        6682            0.0000000000
     18682      6228  TIP3      OH2            35.2279203705        1.0189928873        8.9167069866  W2        6683            0.0000000000
     18683      6228  TIP3      H1             35.8586903705        0.9902028873        9.6360969866  W2        6683            0.0000000000
     18684      6228  TIP3      H2             35.6773503705        0.5938628873        8.1862969866  W2        6683            0.0000000000
     18685      6229  TIP3      OH2            36.5021303705        1.7651928873        4.3407469866  W2        6684            0.0000000000
     18686      6229  TIP3      H1             36.9763003705        2.3561828873        3.7558369866  W2        6684            0.0000000000
     18687      6229  TIP3      H2             35.7847703705        2.2954828873        4.6877569866  W2        6684            0.0000000000
     18688      6230  TIP3      OH2            38.2765703705        2.8598528873        8.0242069866  W2        6685            0.0000000000
     18689      6230  TIP3      H1             37.3873703705        2.9594028873        7.6841669866  W2        6685            0.0000000000
     18690      6230  TIP3      H2             38.5730603705        2.0181528873        7.6779969866  W2        6685            0.0000000000
     18691      6231  TIP3      OH2            39.7701703705        0.1551328873        7.5028869866  W2        6687            0.0000000000
     18692      6231  TIP3      H1             39.4531203705       -0.7473371127        7.4674269866  W2        6687            0.0000000000
     18693      6231  TIP3      H2             40.5515803705        0.1568728873        6.9500469866  W2        6687            0.0000000000
     18694      6232  TIP3      OH2            39.0638803705        7.9149028873       10.9528769866  W2        6688            0.0000000000
     18695      6232  TIP3      H1             39.8086003705        7.9124728873       10.3515269866  W2        6688            0.0000000000
     18696      6232  TIP3      H2             39.1415403705        7.0912828873       11.4343869866  W2        6688            0.0000000000
     18697      6233  TIP3      OH2            36.0718503705        6.3755928873       16.2677269866  W2        6689            0.0000000000
     18698      6233  TIP3      H1             36.2947103705        5.9575528873       17.0994769866  W2        6689            0.0000000000
     18699      6233  TIP3      H2             35.4698603705        5.7630928873       15.8450069866  W2        6689            0.0000000000
     18700      6234  TIP3      OH2            37.1935903705        6.2951328873        2.9442669866  W2        6690            0.0000000000
     18701      6234  TIP3      H1             37.8095803705        6.9218528873        3.3237469866  W2        6690            0.0000000000
     18702      6234  TIP3      H2             36.3318503705        6.6111128873        3.2159169866  W2        6690            0.0000000000
     18703      6235  TIP3      OH2            37.7058003705        1.1288628873       15.8258669866  W2        6691            0.0000000000
     18704      6235  TIP3      H1             36.8130303705        1.4674028873       15.7582669866  W2        6691            0.0000000000
     18705      6235  TIP3      H2             37.6070803705        0.2734728873       16.2439469866  W2        6691            0.0000000000
     18706      6236  TIP3      OH2            37.3570003705       12.9333028873       14.2608069866  W2        6692            0.0000000000
     18707      6236  TIP3      H1             37.5740303705       12.0015428873       14.2297769866  W2        6692            0.0000000000
     18708      6236  TIP3      H2             37.6033503705       13.2078028873       15.1440869866  W2        6692            0.0000000000
     18709      6237  TIP3      OH2            38.6086303705        8.2075128873        4.4368269866  W2        6693            0.0000000000
     18710      6237  TIP3      H1             37.9225603705        8.5597628873        5.0037969866  W2        6693            0.0000000000
     18711      6237  TIP3      H2             39.1314203705        8.9704728873        4.1902569866  W2        6693            0.0000000000
     18712      6238  TIP3      OH2            39.2245203705       10.8214028873        3.3336069866  W2        6694            0.0000000000
     18713      6238  TIP3      H1             39.8166703705       11.5208828873        3.6098469866  W2        6694            0.0000000000
     18714      6238  TIP3      H2             39.6838203705       10.3883528873        2.6140669866  W2        6694            0.0000000000
     18715      6239  TIP3      OH2            37.5404403705        3.4857028873        2.4495469866  W2        6695            0.0000000000
     18716      6239  TIP3      H1             37.4957003705        4.4250128873        2.6282469866  W2        6695            0.0000000000
     18717      6239  TIP3      H2             36.6527603705        3.2501928873        2.1797569866  W2        6695            0.0000000000
     18718      6240  TIP3      OH2            38.3486403705       -1.7326371127       11.1226469866  W2        6696            0.0000000000
     18719      6240  TIP3      H1             38.1196203705       -1.6733871127       10.1951469866  W2        6696            0.0000000000
     18720      6240  TIP3      H2             37.9059803705       -2.5240871127       11.4290569866  W2        6696            0.0000000000
     18721      6241  TIP3      OH2            37.2789703705       12.2080728873        7.2832269866  W2        6697            0.0000000000
     18722      6241  TIP3      H1             36.4468303705       12.6803428873        7.3103669866  W2        6697            0.0000000000
     18723      6241  TIP3      H2             37.8248003705       12.7178328873        6.6845369866  W2        6697            0.0000000000
     18724      6242  TIP3      OH2            36.5017403705       10.5169728873        2.7522069866  W2        6703            0.0000000000
     18725      6242  TIP3      H1             37.4156603705       10.5958628873        3.0255969866  W2        6703            0.0000000000
     18726      6242  TIP3      H2             36.5090503705        9.8299328873        2.0857669866  W2        6703            0.0000000000
     18727      6243  TIP3      OH2            35.1508003705       15.9098228873        7.8295969866  W2        6704            0.0000000000
     18728      6243  TIP3      H1             34.5035103705       15.4479928873        7.2967169866  W2        6704            0.0000000000
     18729      6243  TIP3      H2             35.5052603705       15.2381528873        8.4122169866  W2        6704            0.0000000000
     18730      6244  TIP3      OH2            36.0207203705       13.9905228873        9.6342169866  W2        6705            0.0000000000
     18731      6244  TIP3      H1             35.6864003705       13.1102528873        9.8062369866  W2        6705            0.0000000000
     18732      6244  TIP3      H2             36.2429603705       14.3360228873       10.4987769866  W2        6705            0.0000000000
     18733      6245  TIP3      OH2            36.1006703705        7.0660628873       12.0857069866  W2        6706            0.0000000000
     18734      6245  TIP3      H1             36.2849603705        6.9842328873       11.1499969866  W2        6706            0.0000000000
     18735      6245  TIP3      H2             36.9499603705        6.9417628873       12.5093469866  W2        6706            0.0000000000
     18736      6246  TIP3      OH2            36.9194003705        0.6487228873       11.1178769866  W2        6708            0.0000000000
     18737      6246  TIP3      H1             37.3645603705       -0.1430271127       11.4198469866  W2        6708            0.0000000000
     18738      6246  TIP3      H2             37.3857003705        1.3652428873       11.5484369866  W2        6708            0.0000000000
     18739      6247  TIP3      OH2            35.2234303705        3.6480228873       12.1868969866  W2        6709            0.0000000000
     18740      6247  TIP3      H1             35.7154103705        3.4270728873       11.3960969866  W2        6709            0.0000000000
     18741      6247  TIP3      H2             35.5855203705        4.4883628873       12.4678469866  W2        6709            0.0000000000
     18742      6248  TIP3      OH2            35.5370803705       -0.0940671127        6.2411369866  W2        6710            0.0000000000
     18743      6248  TIP3      H1             34.6119203705        0.1145928873        6.1116869866  W2        6710            0.0000000000
     18744      6248  TIP3      H2             35.9910703705        0.3900128873        5.5513669866  W2        6710            0.0000000000
     18745      6249  TIP3      OH2            35.5006203705       -1.3561671127       14.5853869866  W2        6711            0.0000000000
     18746      6249  TIP3      H1             34.8356703705       -1.6021371127       15.2284769866  W2        6711            0.0000000000
     18747      6249  TIP3      H2             35.0577503705       -0.7341271127       14.0081869866  W2        6711            0.0000000000
     18748      6250  TIP3      OH2            38.0485103705       16.0497528873       15.0358969866  W2        6713            0.0000000000
     18749      6250  TIP3      H1             37.3281503705       16.4898528873       14.5846669866  W2        6713            0.0000000000
     18750      6250  TIP3      H2             37.6829103705       15.7992228873       15.8842969866  W2        6713            0.0000000000
     18751      6251  TIP3      OH2            40.5157703705       15.6501428873       14.0656169866  W2        6714            0.0000000000
     18752      6251  TIP3      H1             39.6509903705       15.7219928873       14.4696269866  W2        6714            0.0000000000
     18753      6251  TIP3      H2             40.4606703705       16.1968728873       13.2818669866  W2        6714            0.0000000000
     18754      6252  TIP3      OH2            37.4633203705       14.6730028873       11.9460769866  W2        6715            0.0000000000
     18755      6252  TIP3      H1             37.4449203705       14.2475128873       12.8033069866  W2        6715            0.0000000000
     18756      6252  TIP3      H2             38.2681103705       14.3545028873       11.5372969866  W2        6715            0.0000000000
     18757      6253  TIP3      OH2            39.6046303705       13.3828728873       10.6010669866  W2        6716            0.0000000000
     18758      6253  TIP3      H1             39.3857003705       12.4666128873       10.7706669866  W2        6716            0.0000000000
     18759      6253  TIP3      H2             40.4288503705       13.5229128873       11.0672069866  W2        6716            0.0000000000
     18760      6254  TIP3      OH2            37.9770003705       -1.8491071127        8.4161869866  W2        6717            0.0000000000
     18761      6254  TIP3      H1             37.1999803705       -2.0836171127        7.9087769866  W2        6717            0.0000000000
     18762      6254  TIP3      H2             38.5073603705       -2.6458971127        8.4249869866  W2        6717            0.0000000000
     18763      6255  TIP3      OH2            36.8133403705       -2.0512971127        4.2197969866  W2        6718            0.0000000000
     18764      6255  TIP3      H1             37.2524103705       -1.4402471127        3.6281469866  W2        6718            0.0000000000
     18765      6255  TIP3      H2             36.1795803705       -1.5128871127        4.6937969866  W2        6718            0.0000000000
     18766      6256  TIP3      OH2            36.7142903705       13.8969228873        5.1173069866  W2        6719            0.0000000000
     18767      6256  TIP3      H1             36.0292803705       13.8588128873        4.4498169866  W2        6719            0.0000000000
     18768      6256  TIP3      H2             36.7180103705       14.8096828873        5.4055169866  W2        6719            0.0000000000
     18769      6257  TIP3      OH2            38.6742503705       -0.1351471127        2.6622069866  W2        6720            0.0000000000
     18770      6257  TIP3      H1             39.1655903705       -0.7649071127        2.1347569866  W2        6720            0.0000000000
     18771      6257  TIP3      H2             39.2978803705        0.1607928873        3.3253269866  W2        6720            0.0000000000
     18772      6258  TIP3      OH2            38.5324103705       14.8170028873        2.1425169866  W2        6723            0.0000000000
     18773      6258  TIP3      H1             38.2648703705       15.1032928873        3.0158269866  W2        6723            0.0000000000
     18774      6258  TIP3      H2             39.3036703705       14.2709228873        2.2947669866  W2        6723            0.0000000000
     18775      6259  TIP3      OH2           -28.3687396295       26.1631228873        8.3749369866  W2        6724            0.0000000000
     18776      6259  TIP3      H1            -28.2796296295       27.1069428873        8.2426469866  W2        6724            0.0000000000
     18777      6259  TIP3      H2            -29.0069796295       25.8877628873        7.7168769866  W2        6724            0.0000000000
     18778      6260  TIP3      OH2           -29.4356096295       25.4181928873       11.7937569866  W2        6725            0.0000000000
     18779      6260  TIP3      H1            -29.4738596295       24.7718228873       12.4987169866  W2        6725            0.0000000000
     18780      6260  TIP3      H2            -29.7579596295       24.9516328873       11.0226269866  W2        6725            0.0000000000
     18781      6261  TIP3      OH2           -37.0671096295       25.0324028873       13.3867469866  W2        6726            0.0000000000
     18782      6261  TIP3      H1            -37.0258996295       24.4067328873       14.1099869866  W2        6726            0.0000000000
     18783      6261  TIP3      H2            -36.3643396295       25.6562628873       13.5687869866  W2        6726            0.0000000000
     18784      6262  TIP3      OH2           -25.7295896295       28.3572328873       10.0952669866  W2        6727            0.0000000000
     18785      6262  TIP3      H1            -26.1703196295       27.6368328873       10.5458269866  W2        6727            0.0000000000
     18786      6262  TIP3      H2            -25.7426196295       29.0779528873       10.7250369866  W2        6727            0.0000000000
     18787      6263  TIP3      OH2           -36.1437996295       29.4822928873       11.9216569866  W2        6728            0.0000000000
     18788      6263  TIP3      H1            -36.5132796295       28.6803428873       11.5520869866  W2        6728            0.0000000000
     18789      6263  TIP3      H2            -35.2026896295       29.3137828873       11.9679969866  W2        6728            0.0000000000
     18790      6264  TIP3      OH2           -39.5337496295       23.1425528873        7.3145369866  W2        6729            0.0000000000
     18791      6264  TIP3      H1            -39.9814096295       23.9884228873        7.2961869866  W2        6729            0.0000000000
     18792      6264  TIP3      H2            -40.0946296295       22.5629728873        6.7990469866  W2        6729            0.0000000000
     18793      6265  TIP3      OH2           -38.8231396295       25.3045128873        9.4403369866  W2        6730            0.0000000000
     18794      6265  TIP3      H1            -38.6097896295       24.5346728873        9.9676369866  W2        6730            0.0000000000
     18795      6265  TIP3      H2            -38.0853796295       25.3941828873        8.8370969866  W2        6730            0.0000000000
     18796      6266  TIP3      OH2           -28.6180396295       33.4614028873       10.3073069866  W2        6731            0.0000000000
     18797      6266  TIP3      H1            -27.9983996295       32.7848728873       10.0342269866  W2        6731            0.0000000000
     18798      6266  TIP3      H2            -28.8262996295       33.2434828873       11.2157969866  W2        6731            0.0000000000
     18799      6267  TIP3      OH2           -31.0461696295       27.8503328873       12.1998569866  W2        6732            0.0000000000
     18800      6267  TIP3      H1            -30.7423796295       27.1644728873       11.6052669866  W2        6732            0.0000000000
     18801      6267  TIP3      H2            -30.3247696295       27.9692028873       12.8176569866  W2        6732            0.0000000000
     18802      6268  TIP3      OH2           -22.3831896295       19.4518628873       13.0604769866  W2        6733            0.0000000000
     18803      6268  TIP3      H1            -22.3339696295       20.0619828873       13.7963869866  W2        6733            0.0000000000
     18804      6268  TIP3      H2            -21.9576796295       19.9129528873       12.3375869866  W2        6733            0.0000000000
     18805      6269  TIP3      OH2           -27.9054696295       22.2445728873       12.5273369866  W2        6734            0.0000000000
     18806      6269  TIP3      H1            -27.7628796295       21.2982728873       12.5474969866  W2        6734            0.0000000000
     18807      6269  TIP3      H2            -28.0115696295       22.4515528873       11.5988269866  W2        6734            0.0000000000
     18808      6270  TIP3      OH2           -34.7506396295       20.3462128873        9.7998169866  W2        6735            0.0000000000
     18809      6270  TIP3      H1            -34.7075296295       21.2060628873        9.3814469866  W2        6735            0.0000000000
     18810      6270  TIP3      H2            -35.2082296295       19.7936828873        9.1661369866  W2        6735            0.0000000000
     18811      6271  TIP3      OH2           -27.0283696295       20.4767728873        8.2006469866  W2        6736            0.0000000000
     18812      6271  TIP3      H1            -26.3819396295       20.1480928873        8.8254069866  W2        6736            0.0000000000
     18813      6271  TIP3      H2            -26.5184296295       20.9946728873        7.5777869866  W2        6736            0.0000000000
     18814      6272  TIP3      OH2           -38.1304896295       22.7427928873       10.5619569866  W2        6737            0.0000000000
     18815      6272  TIP3      H1            -37.4768296295       22.1929628873       10.9939669866  W2        6737            0.0000000000
     18816      6272  TIP3      H2            -38.1065596295       22.4686928873        9.6451569866  W2        6737            0.0000000000
     18817      6273  TIP3      OH2           -32.9740396295       24.2929228873        9.7771069866  W2        6738            0.0000000000
     18818      6273  TIP3      H1            -32.3579396295       23.7664628873       10.2865069866  W2        6738            0.0000000000
     18819      6273  TIP3      H2            -33.5601596295       23.6527928873        9.3734669866  W2        6738            0.0000000000
     18820      6274  TIP3      OH2           -21.9917296295       20.9297828873       15.2964569866  W2        6739            0.0000000000
     18821      6274  TIP3      H1            -22.6802696295       21.5878528873       15.2011169866  W2        6739            0.0000000000
     18822      6274  TIP3      H2            -21.9762696295       20.7325728873       16.2329969866  W2        6739            0.0000000000
     18823      6275  TIP3      OH2           -35.9404496295       19.2640528873       13.8738969866  W2        6740            0.0000000000
     18824      6275  TIP3      H1            -36.1592796295       19.7941128873       13.1074969866  W2        6740            0.0000000000
     18825      6275  TIP3      H2            -36.6083596295       19.4906028873       14.5210369866  W2        6740            0.0000000000
     18826      6276  TIP3      OH2           -28.5714696295       28.7641628873        7.4178069866  W2        6741            0.0000000000
     18827      6276  TIP3      H1            -28.8669596295       28.4413928873        6.5664969866  W2        6741            0.0000000000
     18828      6276  TIP3      H2            -28.8956896295       29.6638328873        7.4590669866  W2        6741            0.0000000000
     18829      6277  TIP3      OH2           -33.3713096295       26.9396228873       14.1612669866  W2        6742            0.0000000000
     18830      6277  TIP3      H1            -34.1113996295       27.5377728873       14.2647869866  W2        6742            0.0000000000
     18831      6277  TIP3      H2            -32.6573596295       27.4935828873       13.8456269866  W2        6742            0.0000000000
     18832      6278  TIP3      OH2           -25.2645296295       19.7677028873       10.1812369866  W2        6743            0.0000000000
     18833      6278  TIP3      H1            -25.4797296295       19.0020428873       10.7138369866  W2        6743            0.0000000000
     18834      6278  TIP3      H2            -24.6087896295       20.2401628873       10.6940869866  W2        6743            0.0000000000
     18835      6279  TIP3      OH2           -36.3467196295       21.1562328873       11.8261169866  W2        6744            0.0000000000
     18836      6279  TIP3      H1            -35.7330896295       21.7889928873       12.1993569866  W2        6744            0.0000000000
     18837      6279  TIP3      H2            -35.8346496295       20.6837328873       11.1698069866  W2        6744            0.0000000000
     18838      6280  TIP3      OH2           -34.9638796295       28.9039228873       14.9484169866  W2        6745            0.0000000000
     18839      6280  TIP3      H1            -34.9691196295       29.7832728873       14.5703469866  W2        6745            0.0000000000
     18840      6280  TIP3      H2            -35.8174696295       28.8203328873       15.3734069866  W2        6745            0.0000000000
     18841      6281  TIP3      OH2           -38.8427896295       28.5747128873        5.7303469866  W2        6746            0.0000000000
     18842      6281  TIP3      H1            -39.1146996295       28.8038128873        4.8416369866  W2        6746            0.0000000000
     18843      6281  TIP3      H2            -38.7972196295       29.4125928873        6.1908769866  W2        6746            0.0000000000
     18844      6282  TIP3      OH2           -25.2178196295       30.1963028873       12.4431969866  W2        6747            0.0000000000
     18845      6282  TIP3      H1            -26.1594496295       30.2546928873       12.6048869866  W2        6747            0.0000000000
     18846      6282  TIP3      H2            -24.9412096295       31.1023528873       12.3061669866  W2        6747            0.0000000000
     18847      6283  TIP3      OH2           -24.9171196295       18.4828328873       13.8605869866  W2        6748            0.0000000000
     18848      6283  TIP3      H1            -25.6531996295       19.0935428873       13.8227169866  W2        6748            0.0000000000
     18849      6283  TIP3      H2            -24.2337196295       18.8977328873       13.3342269866  W2        6748            0.0000000000
     18850      6284  TIP3      OH2           -31.9139796295       16.5695628873       11.3263869866  W2        6749            0.0000000000
     18851      6284  TIP3      H1            -32.0315596295       15.6211628873       11.2722169866  W2        6749            0.0000000000
     18852      6284  TIP3      H2            -32.7689696295       16.9021728873       11.5994969866  W2        6749            0.0000000000
     18853      6285  TIP3      OH2           -26.9656996295       31.9776528873        9.0683569866  W2        6750            0.0000000000
     18854      6285  TIP3      H1            -26.5404696295       31.2704428873        8.5833169866  W2        6750            0.0000000000
     18855      6285  TIP3      H2            -26.6486996295       32.7789228873        8.6515769866  W2        6750            0.0000000000
     18856      6286  TIP3      OH2           -25.8060496295       29.8785028873        7.5770169866  W2        6751            0.0000000000
     18857      6286  TIP3      H1            -26.0635696295       29.1885128873        6.9656069866  W2        6751            0.0000000000
     18858      6286  TIP3      H2            -25.7349696295       29.4356228873        8.4226069866  W2        6751            0.0000000000
     18859      6287  TIP3      OH2           -24.1200296295       28.4451728873       16.0543669866  W2        6752            0.0000000000
     18860      6287  TIP3      H1            -23.9803996295       27.8534228873       15.3150669866  W2        6752            0.0000000000
     18861      6287  TIP3      H2            -23.9527496295       29.3177628873       15.6982469866  W2        6752            0.0000000000
     18862      6288  TIP3      OH2           -29.6474896295       25.4071228873        5.8269669866  W2        6753            0.0000000000
     18863      6288  TIP3      H1            -30.3589396295       25.9420928873        5.4750169866  W2        6753            0.0000000000
     18864      6288  TIP3      H2            -28.9565296295       25.4623328873        5.1668569866  W2        6753            0.0000000000
     18865      6289  TIP3      OH2           -29.5935696295       23.8645528873        2.8654669866  W2        6754            0.0000000000
     18866      6289  TIP3      H1            -28.8925796295       23.8872428873        3.5168669866  W2        6754            0.0000000000
     18867      6289  TIP3      H2            -29.2912796295       23.2365228873        2.2093969866  W2        6754            0.0000000000
     18868      6290  TIP3      OH2           -22.2780996295       24.7849728873       14.1204069866  W2        6755            0.0000000000
     18869      6290  TIP3      H1            -22.9306896295       25.4795328873       14.2094969866  W2        6755            0.0000000000
     18870      6290  TIP3      H2            -21.8130696295       24.9950628873       13.3105669866  W2        6755            0.0000000000
     18871      6291  TIP3      OH2           -26.2417196295       25.6164528873        6.7785569866  W2        6756            0.0000000000
     18872      6291  TIP3      H1            -26.9736196295       25.8448228873        7.3516169866  W2        6756            0.0000000000
     18873      6291  TIP3      H2            -25.7944996295       24.9027228873        7.2333069866  W2        6756            0.0000000000
     18874      6292  TIP3      OH2           -26.3443696295       23.7907128873       15.8462569866  W2        6757            0.0000000000
     18875      6292  TIP3      H1            -26.2644596295       24.5541528873       16.4181069866  W2        6757            0.0000000000
     18876      6292  TIP3      H2            -26.9455996295       24.0699528873       15.1557669866  W2        6757            0.0000000000
     18877      6293  TIP3      OH2           -34.5963496295       26.2470728873        8.6610569866  W2        6758            0.0000000000
     18878      6293  TIP3      H1            -34.9268296295       25.8764128873        7.8427569866  W2        6758            0.0000000000
     18879      6293  TIP3      H2            -34.0079396295       25.5764728873        9.0078869866  W2        6758            0.0000000000
     18880      6294  TIP3      OH2           -33.2295996295       29.6751328873       11.3422769866  W2        6759            0.0000000000
     18881      6294  TIP3      H1            -33.3244696295       29.0964428873       10.5857369866  W2        6759            0.0000000000
     18882      6294  TIP3      H2            -32.5002396295       29.3037028873       11.8385569866  W2        6759            0.0000000000
     18883      6295  TIP3      OH2           -34.2297996295       25.0156328873       12.2945569866  W2        6760            0.0000000000
     18884      6295  TIP3      H1            -33.6645496295       25.1370528873       11.5316769866  W2        6760            0.0000000000
     18885      6295  TIP3      H2            -33.9109096295       25.6531328873       12.9334069866  W2        6760            0.0000000000
     18886      6296  TIP3      OH2           -27.9205796295       30.5188228873       13.0286069866  W2        6761            0.0000000000
     18887      6296  TIP3      H1            -28.1609196295       31.1811328873       13.6765269866  W2        6761            0.0000000000
     18888      6296  TIP3      H2            -28.1187596295       29.6843428873       13.4535669866  W2        6761            0.0000000000
     18889      6297  TIP3      OH2           -33.3497296295       29.4149028873       17.0117469866  W2        6762            0.0000000000
     18890      6297  TIP3      H1            -33.6609796295       30.1972228873       17.4670669866  W2        6762            0.0000000000
     18891      6297  TIP3      H2            -33.9997096295       29.2618128873       16.3259469866  W2        6762            0.0000000000
     18892      6298  TIP3      OH2           -27.3707696295       24.7787428873        4.4636769866  W2        6763            0.0000000000
     18893      6298  TIP3      H1            -26.7912196295       24.9287728873        5.2105669866  W2        6763            0.0000000000
     18894      6298  TIP3      H2            -26.9567696295       25.2494828873        3.7403169866  W2        6763            0.0000000000
     18895      6299  TIP3      OH2           -36.4297396295       25.6130128873       16.2403169866  W2        6764            0.0000000000
     18896      6299  TIP3      H1            -36.3594196295       26.2636928873       16.9388169866  W2        6764            0.0000000000
     18897      6299  TIP3      H2            -37.3205196295       25.7157628873       15.9054069866  W2        6764            0.0000000000
     18898      6300  TIP3      OH2           -29.6442796295       31.5155928873        7.8989869866  W2        6765            0.0000000000
     18899      6300  TIP3      H1            -29.1705196295       31.8112228873        8.6764069866  W2        6765            0.0000000000
     18900      6300  TIP3      H2            -30.2073496295       32.2537528873        7.6659469866  W2        6765            0.0000000000
     18901      6301  TIP3      OH2           -23.6719296295       16.5287828873        4.2766469866  W2        6767            0.0000000000
     18902      6301  TIP3      H1            -24.5718596295       16.6676828873        4.5717069866  W2        6767            0.0000000000
     18903      6301  TIP3      H2            -23.4200896295       17.3602428873        3.8748169866  W2        6767            0.0000000000
     18904      6302  TIP3      OH2           -35.6060796295       25.3165028873        6.2503369866  W2        6768            0.0000000000
     18905      6302  TIP3      H1            -35.8979496295       26.0846728873        5.7594669866  W2        6768            0.0000000000
     18906      6302  TIP3      H2            -36.2805596295       24.6571228873        6.0874769866  W2        6768            0.0000000000
     18907      6303  TIP3      OH2           -22.4827896295       30.8950228873        2.6530369866  W2        6769            0.0000000000
     18908      6303  TIP3      H1            -22.4094396295       31.8340428873        2.8235669866  W2        6769            0.0000000000
     18909      6303  TIP3      H2            -21.5772796295       30.5898828873        2.5967669866  W2        6769            0.0000000000
     18910      6304  TIP3      OH2           -39.5130696295       27.6794228873       15.0653169866  W2        6770            0.0000000000
     18911      6304  TIP3      H1            -40.0142296295       27.6513628873       14.2502869866  W2        6770            0.0000000000
     18912      6304  TIP3      H2            -39.5076996295       26.7737428873       15.3750469866  W2        6770            0.0000000000
     18913      6305  TIP3      OH2           -39.7627996295       30.4598028873       11.9493369866  W2        6771            0.0000000000
     18914      6305  TIP3      H1            -38.8167396295       30.3155028873       11.9302869866  W2        6771            0.0000000000
     18915      6305  TIP3      H2            -39.8751696295       31.2440828873       12.4864569866  W2        6771            0.0000000000
     18916      6306  TIP3      OH2           -30.5865496295       30.6996928873       16.5078469866  W2        6773            0.0000000000
     18917      6306  TIP3      H1            -30.4990896295       31.5261528873       16.9827569866  W2        6773            0.0000000000
     18918      6306  TIP3      H2            -31.4500396295       30.3700728873       16.7567769866  W2        6773            0.0000000000
     18919      6307  TIP3      OH2           -30.1719696295       34.4720628873        6.3139069866  W2        6774            0.0000000000
     18920      6307  TIP3      H1            -30.2473696295       34.3507828873        5.3674269866  W2        6774            0.0000000000
     18921      6307  TIP3      H2            -30.1390996295       35.4213328873        6.4323669866  W2        6774            0.0000000000
     18922      6308  TIP3      OH2           -36.5185896295       33.2607628873        8.0948069866  W2        6775            0.0000000000
     18923      6308  TIP3      H1            -36.3665496295       32.9128028873        8.9734569866  W2        6775            0.0000000000
     18924      6308  TIP3      H2            -37.3695496295       32.9044928873        7.8395269866  W2        6775            0.0000000000
     18925      6309  TIP3      OH2           -27.0703696295       33.6260828873        3.3161469866  W2        6776            0.0000000000
     18926      6309  TIP3      H1            -26.6955296295       32.8816928873        2.8454069866  W2        6776            0.0000000000
     18927      6309  TIP3      H2            -27.0659996295       33.3561428873        4.2344769866  W2        6776            0.0000000000
     18928      6310  TIP3      OH2           -27.4015596295       33.5517928873        6.0653669866  W2        6777            0.0000000000
     18929      6310  TIP3      H1            -28.3365796295       33.6519828873        6.2440669866  W2        6777            0.0000000000
     18930      6310  TIP3      H2            -27.1213696295       32.8423928873        6.6436869866  W2        6777            0.0000000000
     18931      6311  TIP3      OH2           -37.2640196295       29.0029628873       16.1085969866  W2        6779            0.0000000000
     18932      6311  TIP3      H1            -37.0478896295       28.6415228873       16.9681769866  W2        6779            0.0000000000
     18933      6311  TIP3      H2            -38.1195496295       28.6283428873       15.8989469866  W2        6779            0.0000000000
     18934      6312  TIP3      OH2           -34.6452196295       17.4730128873       12.1040169866  W2        6780            0.0000000000
     18935      6312  TIP3      H1            -35.5068496295       17.3858328873       11.6963069866  W2        6780            0.0000000000
     18936      6312  TIP3      H2            -34.6676496295       18.3290228873       12.5317769866  W2        6780            0.0000000000
     18937      6313  TIP3      OH2           -29.9824396295       17.1950528873       15.4787169866  W2        6781            0.0000000000
     18938      6313  TIP3      H1            -29.5621296295       16.7797628873       16.2317769866  W2        6781            0.0000000000
     18939      6313  TIP3      H2            -30.9154796295       17.0163828873       15.5959169866  W2        6781            0.0000000000
     18940      6314  TIP3      OH2           -26.6559496295       20.9505728873       16.3321669866  W2        6782            0.0000000000
     18941      6314  TIP3      H1            -27.1699996295       20.8247928873       17.1297669866  W2        6782            0.0000000000
     18942      6314  TIP3      H2            -26.8114796295       21.8628828873       16.0877869866  W2        6782            0.0000000000
     18943      6315  TIP3      OH2           -25.8934596295       25.8115728873        2.0934669866  W2        6783            0.0000000000
     18944      6315  TIP3      H1            -25.8513796295       25.5889628873        1.1634669866  W2        6783            0.0000000000
     18945      6315  TIP3      H2            -25.0442496295       26.2102828873        2.2834569866  W2        6783            0.0000000000
     18946      6316  TIP3      OH2           -30.3207096295       19.6873928873        2.7637969866  W2        6784            0.0000000000
     18947      6316  TIP3      H1            -30.5742296295       19.7065528873        3.6866069866  W2        6784            0.0000000000
     18948      6316  TIP3      H2            -30.5774996295       18.8159328873        2.4624169866  W2        6784            0.0000000000
     18949      6317  TIP3      OH2           -34.5542096295       22.4384628873       13.1990369866  W2        6785            0.0000000000
     18950      6317  TIP3      H1            -35.1959996295       22.3981928873       13.9080469866  W2        6785            0.0000000000
     18951      6317  TIP3      H2            -34.5170096295       23.3649328873       12.9613369866  W2        6785            0.0000000000
     18952      6318  TIP3      OH2           -34.5572996295       22.6594728873        8.1110369866  W2        6786            0.0000000000
     18953      6318  TIP3      H1            -35.4500096295       22.3190828873        8.0524169866  W2        6786            0.0000000000
     18954      6318  TIP3      H2            -34.1066396295       22.2825628873        7.3553569866  W2        6786            0.0000000000
     18955      6319  TIP3      OH2           -29.0217496295       23.0755028873        6.9281169866  W2        6787            0.0000000000
     18956      6319  TIP3      H1            -29.4307196295       23.8903628873        6.6365969866  W2        6787            0.0000000000
     18957      6319  TIP3      H2            -28.3011296295       22.9355128873        6.3138269866  W2        6787            0.0000000000
     18958      6320  TIP3      OH2           -28.0169796295       22.5215428873        9.7420869866  W2        6789            0.0000000000
     18959      6320  TIP3      H1            -28.2125296295       23.1272228873        9.0271469866  W2        6789            0.0000000000
     18960      6320  TIP3      H2            -27.8357196295       21.6880628873        9.3077169866  W2        6789            0.0000000000
     18961      6321  TIP3      OH2           -36.8041596295       22.7588128873       15.0662369866  W2        6790            0.0000000000
     18962      6321  TIP3      H1            -36.8422196295       23.1589728873       15.9349469866  W2        6790            0.0000000000
     18963      6321  TIP3      H2            -37.2950496295       21.9420528873       15.1565269866  W2        6790            0.0000000000
     18964      6322  TIP3      OH2           -33.4384196295       20.1330428873        1.8648369866  W2        6791            0.0000000000
     18965      6322  TIP3      H1            -33.8693496295       19.6880528873        2.5945769866  W2        6791            0.0000000000
     18966      6322  TIP3      H2            -34.1565496295       20.5046728873        1.3525869866  W2        6791            0.0000000000
     18967      6323  TIP3      OH2           -40.1960796295       19.8749928873        8.9167069866  W2        6792            0.0000000000
     18968      6323  TIP3      H1            -39.5653096295       19.8462028873        9.6360969866  W2        6792            0.0000000000
     18969      6323  TIP3      H2            -39.7466496295       19.4498628873        8.1862969866  W2        6792            0.0000000000
     18970      6324  TIP3      OH2           -38.9218696295       20.6211928873        4.3407469866  W2        6793            0.0000000000
     18971      6324  TIP3      H1            -38.4476996295       21.2121828873        3.7558369866  W2        6793            0.0000000000
     18972      6324  TIP3      H2            -39.6392296295       21.1514828873        4.6877569866  W2        6793            0.0000000000
     18973      6325  TIP3      OH2           -28.7530596295       24.1596728873       14.4133269866  W2        6794            0.0000000000
     18974      6325  TIP3      H1            -28.4295796295       23.5286428873       13.7703769866  W2        6794            0.0000000000
     18975      6325  TIP3      H2            -29.1931296295       23.6248928873       15.0740669866  W2        6794            0.0000000000
     18976      6326  TIP3      OH2           -31.9757696295       20.0872228873        9.1974469866  W2        6795            0.0000000000
     18977      6326  TIP3      H1            -32.8866596295       20.1439028873        9.4860469866  W2        6795            0.0000000000
     18978      6326  TIP3      H2            -31.4704796295       20.0267728873       10.0081669866  W2        6795            0.0000000000
     18979      6327  TIP3      OH2           -37.1474296295       21.7158528873        8.0242069866  W2        6796            0.0000000000
     18980      6327  TIP3      H1            -38.0366296295       21.8154028873        7.6841669866  W2        6796            0.0000000000
     18981      6327  TIP3      H2            -36.8509396295       20.8741528873        7.6779969866  W2        6796            0.0000000000
     18982      6328  TIP3      OH2           -33.4942496295       21.7161128873        5.6806669866  W2        6797            0.0000000000
     18983      6328  TIP3      H1            -32.5626996295       21.8451128873        5.8589769866  W2        6797            0.0000000000
     18984      6328  TIP3      H2            -33.7092196295       22.3855428873        5.0311369866  W2        6797            0.0000000000
     18985      6329  TIP3      OH2           -27.5705796295       19.3218528873       12.4616269866  W2        6798            0.0000000000
     18986      6329  TIP3      H1            -28.2474196295       19.4531628873       13.1255969866  W2        6798            0.0000000000
     18987      6329  TIP3      H2            -28.0560896295       19.1668028873       11.6513969866  W2        6798            0.0000000000
     18988      6330  TIP3      OH2           -34.8202296295       22.9103328873        3.2472769866  W2        6799            0.0000000000
     18989      6330  TIP3      H1            -35.3627196295       22.5307128873        2.5560369866  W2        6799            0.0000000000
     18990      6330  TIP3      H2            -33.9867396295       23.1048028873        2.8186869866  W2        6799            0.0000000000
     18991      6331  TIP3      OH2           -30.6557996295       22.8745228873       11.0844069866  W2        6802            0.0000000000
     18992      6331  TIP3      H1            -30.0914596295       22.3281828873       10.5373669866  W2        6802            0.0000000000
     18993      6331  TIP3      H2            -30.8034596295       22.3527128873       11.8731669866  W2        6802            0.0000000000
     18994      6332  TIP3      OH2           -35.6538296295       19.0111328873        7.5028869866  W2        6803            0.0000000000
     18995      6332  TIP3      H1            -35.9708796295       18.1086628873        7.4674269866  W2        6803            0.0000000000
     18996      6332  TIP3      H2            -34.8724196295       19.0128728873        6.9500469866  W2        6803            0.0000000000
     18997      6333  TIP3      OH2           -32.0292096295       21.2631328873       13.4984469866  W2        6804            0.0000000000
     18998      6333  TIP3      H1            -32.8646796295       21.7170828873       13.6086869866  W2        6804            0.0000000000
     18999      6333  TIP3      H2            -31.5051496295       21.5389828873       14.2504369866  W2        6804            0.0000000000
     19000      6334  TIP3      OH2           -31.4849496295       27.4759028873        5.1830869866  W2        6805            0.0000000000
     19001      6334  TIP3      H1            -32.2298496295       26.9684328873        4.8608769866  W2        6805            0.0000000000
     19002      6334  TIP3      H2            -31.6192296295       27.5247028873        6.1295669866  W2        6805            0.0000000000
     19003      6335  TIP3      OH2           -24.3350596295       26.6087228873       13.9698469866  W2        6806            0.0000000000
     19004      6335  TIP3      H1            -23.6931796295       27.0653528873       13.4260669866  W2        6806            0.0000000000
     19005      6335  TIP3      H2            -25.1653696295       26.7219628873       13.5072569866  W2        6806            0.0000000000
     19006      6336  TIP3      OH2           -27.5872696295       20.2898928873        3.3823469866  W2        6807            0.0000000000
     19007      6336  TIP3      H1            -28.5258496295       20.4014528873        3.2312269866  W2        6807            0.0000000000
     19008      6336  TIP3      H2            -27.2900596295       21.1465828873        3.6889169866  W2        6807            0.0000000000
     19009      6337  TIP3      OH2           -29.9657396295       27.6602328873       16.4199969866  W2        6808            0.0000000000
     19010      6337  TIP3      H1            -30.3111296295       27.2784728873       17.2269569866  W2        6808            0.0000000000
     19011      6337  TIP3      H2            -30.1657296295       28.5935928873       16.4912869866  W2        6808            0.0000000000
     19012      6338  TIP3      OH2           -26.8689196295       22.1571628873        5.0430869866  W2        6809            0.0000000000
     19013      6338  TIP3      H1            -25.9770196295       22.0196628873        5.3622069866  W2        6809            0.0000000000
     19014      6338  TIP3      H2            -26.8125596295       22.9477728873        4.5064369866  W2        6809            0.0000000000
     19015      6339  TIP3      OH2           -36.3601196295       26.7709028873       10.9528769866  W2        6810            0.0000000000
     19016      6339  TIP3      H1            -35.6153996295       26.7684728873       10.3515269866  W2        6810            0.0000000000
     19017      6339  TIP3      H2            -36.2824596295       25.9472828873       11.4343869866  W2        6810            0.0000000000
     19018      6340  TIP3      OH2           -29.3595396295       28.9343328873        4.2085469866  W2        6811            0.0000000000
     19019      6340  TIP3      H1            -29.6546996295       29.7611228873        4.5900269866  W2        6811            0.0000000000
     19020      6340  TIP3      H2            -30.0625396295       28.3150228873        4.4046869866  W2        6811            0.0000000000
     19021      6341  TIP3      OH2           -39.3521496295       25.2315928873       16.2677269866  W2        6812            0.0000000000
     19022      6341  TIP3      H1            -39.1292896295       24.8135528873       17.0994769866  W2        6812            0.0000000000
     19023      6341  TIP3      H2            -39.9541396295       24.6190928873       15.8450069866  W2        6812            0.0000000000
     19024      6342  TIP3      OH2           -27.7153796295       30.1217828873       16.3704969866  W2        6814            0.0000000000
     19025      6342  TIP3      H1            -28.6159496295       30.3050428873       16.1028869866  W2        6814            0.0000000000
     19026      6342  TIP3      H2            -27.6812696295       30.3807128873       17.2913769866  W2        6814            0.0000000000
     19027      6343  TIP3      OH2           -21.9840496295       22.3665728873        4.7377569866  W2        6815            0.0000000000
     19028      6343  TIP3      H1            -22.5384196295       21.9703728873        4.0655069866  W2        6815            0.0000000000
     19029      6343  TIP3      H2            -21.8836896295       23.2770928873        4.4600869866  W2        6815            0.0000000000
     19030      6344  TIP3      OH2           -23.6888796295       31.1526128873        5.2029669866  W2        6817            0.0000000000
     19031      6344  TIP3      H1            -24.0617696295       30.3269928873        5.5120269866  W2        6817            0.0000000000
     19032      6344  TIP3      H2            -23.4115296295       30.9695528873        4.3053069866  W2        6817            0.0000000000
     19033      6345  TIP3      OH2           -26.5284896295       25.9605628873       12.2241569866  W2        6818            0.0000000000
     19034      6345  TIP3      H1            -27.4567996295       25.7287528873       12.1970869866  W2        6818            0.0000000000
     19035      6345  TIP3      H2            -26.0773796295       25.1835428873       11.8940369866  W2        6818            0.0000000000
     19036      6346  TIP3      OH2           -33.9851796295       30.2887228873        8.3570269866  W2        6819            0.0000000000
     19037      6346  TIP3      H1            -33.4579596295       31.0621628873        8.1569069866  W2        6819            0.0000000000
     19038      6346  TIP3      H2            -34.8653296295       30.5136428873        8.0554269866  W2        6819            0.0000000000
     19039      6347  TIP3      OH2           -38.2304096295       25.1511328873        2.9442669866  W2        6820            0.0000000000
     19040      6347  TIP3      H1            -37.6144196295       25.7778528873        3.3237469866  W2        6820            0.0000000000
     19041      6347  TIP3      H2            -39.0921496295       25.4671128873        3.2159169866  W2        6820            0.0000000000
     19042      6348  TIP3      OH2           -32.5579496295       27.9517128873        7.9334569866  W2        6821            0.0000000000
     19043      6348  TIP3      H1            -32.7989496295       28.8771528873        7.9749869866  W2        6821            0.0000000000
     19044      6348  TIP3      H2            -33.2985896295       27.4928428873        8.3298469866  W2        6821            0.0000000000
     19045      6349  TIP3      OH2           -32.0432896295       32.1010728873       14.2485669866  W2        6822            0.0000000000
     19046      6349  TIP3      H1            -31.6808196295       32.9556328873       14.0150069866  W2        6822            0.0000000000
     19047      6349  TIP3      H2            -31.5117696295       31.8092328873       14.9891969866  W2        6822            0.0000000000
     19048      6350  TIP3      OH2           -33.8748696295       32.9734728873        7.4786769866  W2        6823            0.0000000000
     19049      6350  TIP3      H1            -34.8248196295       33.0792128873        7.5300069866  W2        6823            0.0000000000
     19050      6350  TIP3      H2            -33.5230596295       33.7942128873        7.8234269866  W2        6823            0.0000000000
     19051      6351  TIP3      OH2           -28.4992096295       28.2001428873       13.9491269866  W2        6824            0.0000000000
     19052      6351  TIP3      H1            -28.9250796295       27.9723128873       14.7755269866  W2        6824            0.0000000000
     19053      6351  TIP3      H2            -27.9186296295       27.4613228873       13.7666569866  W2        6824            0.0000000000
     19054      6352  TIP3      OH2           -26.2963196295       29.1291928873        3.0230269866  W2        6825            0.0000000000
     19055      6352  TIP3      H1            -25.9430096295       28.7491728873        3.8273769866  W2        6825            0.0000000000
     19056      6352  TIP3      H2            -27.2449696295       29.0356728873        3.1099569866  W2        6825            0.0000000000
     19057      6353  TIP3      OH2           -25.8407896295       32.7520928873       16.4186069866  W2        6826            0.0000000000
     19058      6353  TIP3      H1            -26.4424696295       32.1963828873       15.9232369866  W2        6826            0.0000000000
     19059      6353  TIP3      H2            -25.5594196295       33.4190728873       15.7923469866  W2        6826            0.0000000000
     19060      6354  TIP3      OH2           -21.7928796295       33.6084428873        3.2240469866  W2        6827            0.0000000000
     19061      6354  TIP3      H1            -21.0490896295       34.1944928873        3.0842069866  W2        6827            0.0000000000
     19062      6354  TIP3      H2            -22.4870696295       34.1770228873        3.5572869866  W2        6827            0.0000000000
     19063      6355  TIP3      OH2           -37.7181996295       19.9848628873       15.8258669866  W2        6828            0.0000000000
     19064      6355  TIP3      H1            -38.6109696295       20.3234028873       15.7582669866  W2        6828            0.0000000000
     19065      6355  TIP3      H2            -37.8169196295       19.1294728873       16.2439469866  W2        6828            0.0000000000
     19066      6356  TIP3      OH2           -25.4303896295       27.8013928873        5.2498169866  W2        6829            0.0000000000
     19067      6356  TIP3      H1            -25.7076296295       27.0733228873        5.8059269866  W2        6829            0.0000000000
     19068      6356  TIP3      H2            -24.5030896295       27.9205928873        5.4550769866  W2        6829            0.0000000000
     19069      6357  TIP3      OH2           -38.0669996295       31.7893028873       14.2608069866  W2        6830            0.0000000000
     19070      6357  TIP3      H1            -37.8499696295       30.8575428873       14.2297769866  W2        6830            0.0000000000
     19071      6357  TIP3      H2            -37.8206496295       32.0638028873       15.1440869866  W2        6830            0.0000000000
     19072      6358  TIP3      OH2           -32.2055396295       30.2408028873        1.4700269866  W2        6831            0.0000000000
     19073      6358  TIP3      H1            -31.9665596295       29.4926128873        0.9229169866  W2        6831            0.0000000000
     19074      6358  TIP3      H2            -32.4744096295       29.8529728873        2.3028069866  W2        6831            0.0000000000
     19075      6359  TIP3      OH2           -33.2684796295       29.8111828873        3.9262869866  W2        6832            0.0000000000
     19076      6359  TIP3      H1            -33.1216796295       29.2911628873        4.7163769866  W2        6832            0.0000000000
     19077      6359  TIP3      H2            -33.2713096295       30.7179428873        4.2328769866  W2        6832            0.0000000000
     19078      6360  TIP3      OH2           -36.8153696295       27.0635128873        4.4368269866  W2        6833            0.0000000000
     19079      6360  TIP3      H1            -37.5014396295       27.4157628873        5.0037969866  W2        6833            0.0000000000
     19080      6360  TIP3      H2            -36.2925796295       27.8264728873        4.1902569866  W2        6833            0.0000000000
     19081      6361  TIP3      OH2           -28.9838596295       19.7258928873       14.7157269866  W2        6834            0.0000000000
     19082      6361  TIP3      H1            -28.2850696295       19.7997628873       15.3656969866  W2        6834            0.0000000000
     19083      6361  TIP3      H2            -29.3647196295       18.8613928873       14.8700169866  W2        6834            0.0000000000
     19084      6362  TIP3      OH2           -28.1993696295       19.3780628873        5.8129569866  W2        6835            0.0000000000
     19085      6362  TIP3      H1            -27.9795396295       19.8496028873        5.0094969866  W2        6835            0.0000000000
     19086      6362  TIP3      H2            -27.6409696295       19.7723228873        6.4830169866  W2        6835            0.0000000000
     19087      6363  TIP3      OH2           -30.5307596295       31.5085428873        4.6757069866  W2        6836            0.0000000000
     19088      6363  TIP3      H1            -31.3471496295       32.0055128873        4.7281369866  W2        6836            0.0000000000
     19089      6363  TIP3      H2            -30.0011296295       31.9838928873        4.0355869866  W2        6836            0.0000000000
     19090      6364  TIP3      OH2           -30.9993796295       21.1059428873        6.6477969866  W2        6837            0.0000000000
     19091      6364  TIP3      H1            -30.1871196295       21.6102628873        6.6939669866  W2        6837            0.0000000000
     19092      6364  TIP3      H2            -31.2440796295       20.9609128873        7.5617569866  W2        6837            0.0000000000
     19093      6365  TIP3      OH2           -30.4637396295       22.0922128873       15.8324569866  W2        6838            0.0000000000
     19094      6365  TIP3      H1            -30.3447096295       22.6657528873       16.5894969866  W2        6838            0.0000000000
     19095      6365  TIP3      H2            -29.8082796295       21.4041528873       15.9472369866  W2        6838            0.0000000000
     19096      6366  TIP3      OH2           -30.1157096295       18.1872428873        7.5859069866  W2        6839            0.0000000000
     19097      6366  TIP3      H1            -30.4623596295       18.8043028873        8.2303369866  W2        6839            0.0000000000
     19098      6366  TIP3      H2            -29.4570196295       18.6878128873        7.1044569866  W2        6839            0.0000000000
     19099      6367  TIP3      OH2           -33.1924496295       32.5522628873        4.6573969866  W2        6840            0.0000000000
     19100      6367  TIP3      H1            -33.0315796295       33.3520128873        4.1566569866  W2        6840            0.0000000000
     19101      6367  TIP3      H2            -33.3896696295       32.8588628873        5.5424569866  W2        6840            0.0000000000
     19102      6368  TIP3      OH2           -34.4580096295       19.2501828873        4.2731569866  W2        6841            0.0000000000
     19103      6368  TIP3      H1            -34.5415296295       20.1384928873        4.6197969866  W2        6841            0.0000000000
     19104      6368  TIP3      H2            -33.5679796295       18.9848528873        4.5048369866  W2        6841            0.0000000000
     19105      6369  TIP3      OH2           -24.2591596295       19.9992428873       16.6674269866  W2        6842            0.0000000000
     19106      6369  TIP3      H1            -25.1755796295       20.2614128873       16.5797969866  W2        6842            0.0000000000
     19107      6369  TIP3      H2            -23.9236596295       19.9961428873       15.7709569866  W2        6842            0.0000000000
     19108      6370  TIP3      OH2           -25.6570596295       23.7493428873       10.7631569866  W2        6843            0.0000000000
     19109      6370  TIP3      H1            -26.4546196295       23.3343628873       10.4346569866  W2        6843            0.0000000000
     19110      6370  TIP3      H2            -25.2119496295       23.0587128873       11.2542069866  W2        6843            0.0000000000
     19111      6371  TIP3      OH2           -36.1994796295       29.6774028873        3.3336069866  W2        6844            0.0000000000
     19112      6371  TIP3      H1            -35.6073296295       30.3768828873        3.6098469866  W2        6844            0.0000000000
     19113      6371  TIP3      H2            -35.7401796295       29.2443528873        2.6140669866  W2        6844            0.0000000000
     19114      6372  TIP3      OH2           -37.8835596295       22.3417028873        2.4495469866  W2        6845            0.0000000000
     19115      6372  TIP3      H1            -37.9282996295       23.2810128873        2.6282469866  W2        6845            0.0000000000
     19116      6372  TIP3      H2            -38.7712396295       22.1061928873        2.1797569866  W2        6845            0.0000000000
     19117      6373  TIP3      OH2           -24.5705996295       33.0055928873       12.3855069866  W2        6846            0.0000000000
     19118      6373  TIP3      H1            -24.7261696295       33.6840328873       11.7284369866  W2        6846            0.0000000000
     19119      6373  TIP3      H2            -23.6379596295       33.0775228873       12.5885669866  W2        6846            0.0000000000
     19120      6374  TIP3      OH2           -37.0753596295       17.1233628873       11.1226469866  W2        6847            0.0000000000
     19121      6374  TIP3      H1            -37.3043796295       17.1826128873       10.1951469866  W2        6847            0.0000000000
     19122      6374  TIP3      H2            -37.5180196295       16.3319128873       11.4290569866  W2        6847            0.0000000000
     19123      6375  TIP3      OH2           -38.1450296295       31.0640728873        7.2832269866  W2        6848            0.0000000000
     19124      6375  TIP3      H1            -38.9771696295       31.5363428873        7.3103669866  W2        6848            0.0000000000
     19125      6375  TIP3      H2            -37.5991996295       31.5738328873        6.6845369866  W2        6848            0.0000000000
     19126      6376  TIP3      OH2           -30.1673596295       32.1039428873        1.6086269866  W2        6851            0.0000000000
     19127      6376  TIP3      H1            -30.8112596295       31.4728028873        1.9299969866  W2        6851            0.0000000000
     19128      6376  TIP3      H2            -29.4055296295       31.5727428873        1.3769769866  W2        6851            0.0000000000
     19129      6377  TIP3      OH2           -25.5630696295       31.9209328873        1.8424269866  W2        6853            0.0000000000
     19130      6377  TIP3      H1            -25.2800296295       31.1264528873        2.2951169866  W2        6853            0.0000000000
     19131      6377  TIP3      H2            -24.8232796295       32.1540328873        1.2815369866  W2        6853            0.0000000000
     19132      6378  TIP3      OH2           -34.6083396295       27.8304228873        1.6999169866  W2        6855            0.0000000000
     19133      6378  TIP3      H1            -34.5439296295       27.0363828873        2.2305569866  W2        6855            0.0000000000
     19134      6378  TIP3      H2            -33.9554196295       27.7117028873        1.0101169866  W2        6855            0.0000000000
     19135      6379  TIP3      OH2           -29.2559996295       28.8775928873        1.4357169866  W2        6857            0.0000000000
     19136      6379  TIP3      H1            -29.5245896295       29.0578028873        2.3366069866  W2        6857            0.0000000000
     19137      6379  TIP3      H2            -29.4624396295       27.9522128873        1.3042969866  W2        6857            0.0000000000
     19138      6380  TIP3      OH2           -26.5595796295       27.3723928873       16.3833269866  W2        6858            0.0000000000
     19139      6380  TIP3      H1            -25.8140996295       27.9607628873       16.2637269866  W2        6858            0.0000000000
     19140      6380  TIP3      H2            -27.3168996295       27.9543628873       16.4466369866  W2        6858            0.0000000000
     19141      6381  TIP3      OH2           -33.4589596295       25.8030428873        4.0057169866  W2        6860            0.0000000000
     19142      6381  TIP3      H1            -33.9187596295       25.3188728873        4.6915669866  W2        6860            0.0000000000
     19143      6381  TIP3      H2            -33.2040896295       25.1345828873        3.3697669866  W2        6860            0.0000000000
     19144      6382  TIP3      OH2           -34.1700296295       23.6957528873       16.3616769866  W2        6861            0.0000000000
     19145      6382  TIP3      H1            -34.7884196295       24.3704128873       16.6421469866  W2        6861            0.0000000000
     19146      6382  TIP3      H2            -33.8259096295       24.0171428873       15.5282969866  W2        6861            0.0000000000
     19147      6383  TIP3      OH2           -32.3879196295       24.0462228873        2.2680369866  W2        6862            0.0000000000
     19148      6383  TIP3      H1            -32.5684196295       23.8913428873        1.3408669866  W2        6862            0.0000000000
     19149      6383  TIP3      H2            -31.4378696295       24.1540928873        2.3128269866  W2        6862            0.0000000000
     19150      6384  TIP3      OH2           -22.9980896295       26.4006428873        1.7138469866  W2        6864            0.0000000000
     19151      6384  TIP3      H1            -23.2716096295       25.9761928873        0.9006769866  W2        6864            0.0000000000
     19152      6384  TIP3      H2            -22.9586796295       27.3320928873        1.4968869866  W2        6864            0.0000000000
     19153      6385  TIP3      OH2           -33.8306596295       21.0508328873       17.4439869866  W2        6865            0.0000000000
     19154      6385  TIP3      H1            -33.6805696295       20.3219628873       16.8419569866  W2        6865            0.0000000000
     19155      6385  TIP3      H2            -33.8284196295       21.8280028873       16.8852069866  W2        6865            0.0000000000
     19156      6386  TIP3      OH2           -33.4180896295       19.4204128873       14.9367269866  W2        6866            0.0000000000
     19157      6386  TIP3      H1            -32.8823396295       19.8720828873       14.2846569866  W2        6866            0.0000000000
     19158      6386  TIP3      H2            -34.2701296295       19.3123928873       14.5141369866  W2        6866            0.0000000000
     19159      6387  TIP3      OH2           -31.8362496295       24.8600328873       15.1762469866  W2        6867            0.0000000000
     19160      6387  TIP3      H1            -31.0857696295       24.7037828873       14.6030269866  W2        6867            0.0000000000
     19161      6387  TIP3      H2            -32.1754196295       25.7116928873       14.9007969866  W2        6867            0.0000000000
     19162      6388  TIP3      OH2           -32.6125396295       16.8769828873       15.3680869866  W2        6871            0.0000000000
     19163      6388  TIP3      H1            -32.7105796295       17.8233028873       15.2627069866  W2        6871            0.0000000000
     19164      6388  TIP3      H2            -33.3549196295       16.5043628873       14.8924369866  W2        6871            0.0000000000
     19165      6389  TIP3      OH2           -32.4907496295       34.7365928873        3.2693969866  W2        6878            0.0000000000
     19166      6389  TIP3      H1            -31.5576796295       34.8944628873        3.4132369866  W2        6878            0.0000000000
     19167      6389  TIP3      H2            -32.7548696295       35.4118928873        2.6445469866  W2        6878            0.0000000000
     19168      6390  TIP3      OH2           -38.9222596295       29.3729728873        2.7522069866  W2        6879            0.0000000000
     19169      6390  TIP3      H1            -38.0083396295       29.4518628873        3.0255969866  W2        6879            0.0000000000
     19170      6390  TIP3      H2            -38.9149496295       28.6859328873        2.0857669866  W2        6879            0.0000000000
     19171      6391  TIP3      OH2           -40.2731996295       34.7658228873        7.8295969866  W2        6880            0.0000000000
     19172      6391  TIP3      H1            -40.9204896295       34.3039928873        7.2967169866  W2        6880            0.0000000000
     19173      6391  TIP3      H2            -39.9187396295       34.0941528873        8.4122169866  W2        6880            0.0000000000
     19174      6392  TIP3      OH2           -39.4032796295       32.8465228873        9.6342169866  W2        6881            0.0000000000
     19175      6392  TIP3      H1            -39.7375996295       31.9662528873        9.8062369866  W2        6881            0.0000000000
     19176      6392  TIP3      H2            -39.1810396295       33.1920228873       10.4987769866  W2        6881            0.0000000000
     19177      6393  TIP3      OH2           -21.8547996295       33.6561628873       12.6146969866  W2        6882            0.0000000000
     19178      6393  TIP3      H1            -21.8761296295       33.8410028873       13.5536369866  W2        6882            0.0000000000
     19179      6393  TIP3      H2            -21.1641796295       34.2245628873       12.2738369866  W2        6882            0.0000000000
     19180      6394  TIP3      OH2           -22.2915096295       33.2232728873       15.5366069866  W2        6883            0.0000000000
     19181      6394  TIP3      H1            -22.7786396295       32.4876828873       15.1653469866  W2        6883            0.0000000000
     19182      6394  TIP3      H2            -21.7422396295       32.8296628873       16.2145469866  W2        6883            0.0000000000
     19183      6395  TIP3      OH2           -22.5398096295       27.2694528873        5.6888869866  W2        6885            0.0000000000
     19184      6395  TIP3      H1            -21.6896696295       27.6905428873        5.8160469866  W2        6885            0.0000000000
     19185      6395  TIP3      H2            -22.5342996295       26.5294628873        6.2960269866  W2        6885            0.0000000000
     19186      6396  TIP3      OH2           -22.1452496295       25.3231928873        7.5124569866  W2        6886            0.0000000000
     19187      6396  TIP3      H1            -22.8717896295       24.8434528873        7.9102169866  W2        6886            0.0000000000
     19188      6396  TIP3      H2            -21.5639196295       25.5286628873        8.2446169866  W2        6886            0.0000000000
     19189      6397  TIP3      OH2           -22.3861296295       28.1079428873       12.4602169866  W2        6887            0.0000000000
     19190      6397  TIP3      H1            -21.5527096295       27.7299428873       12.1795769866  W2        6887            0.0000000000
     19191      6397  TIP3      H2            -22.2740996295       29.0510628873       12.3411269866  W2        6887            0.0000000000
     19192      6398  TIP3      OH2           -23.8998996295       30.9856928873       14.7670569866  W2        6888            0.0000000000
     19193      6398  TIP3      H1            -24.5473696295       31.3108428873       15.3925769866  W2        6888            0.0000000000
     19194      6398  TIP3      H2            -24.4174996295       30.5454628873       14.0928869866  W2        6888            0.0000000000
     19195      6399  TIP3      OH2           -21.8769396295       25.2240428873        3.9035869866  W2        6889            0.0000000000
     19196      6399  TIP3      H1            -22.3988296295       25.5804528873        3.1846769866  W2        6889            0.0000000000
     19197      6399  TIP3      H2            -21.9100196295       25.8988228873        4.5816769866  W2        6889            0.0000000000
     19198      6400  TIP3      OH2           -23.5280396295       22.4636028873        2.4542969866  W2        6890            0.0000000000
     19199      6400  TIP3      H1            -23.4315996295       23.1303028873        1.7742669866  W2        6890            0.0000000000
     19200      6400  TIP3      H2            -23.6680796295       21.6482328873        1.9728469866  W2        6890            0.0000000000
     19201      6401  TIP3      OH2           -24.3585696295       23.8438428873        8.0753269866  W2        6891            0.0000000000
     19202      6401  TIP3      H1            -24.5086896295       22.8987028873        8.0551069866  W2        6891            0.0000000000
     19203      6401  TIP3      H2            -24.7121196295       24.1249828873        8.9192369866  W2        6891            0.0000000000
     19204      6402  TIP3      OH2           -39.3233296295       25.9220628873       12.0857069866  W2        6892            0.0000000000
     19205      6402  TIP3      H1            -39.1390396295       25.8402328873       11.1499969866  W2        6892            0.0000000000
     19206      6402  TIP3      H2            -38.4740396295       25.7977628873       12.5093469866  W2        6892            0.0000000000
     19207      6403  TIP3      OH2           -24.2806596295       19.8715828873        1.5718469866  W2        6895            0.0000000000
     19208      6403  TIP3      H1            -23.6700796295       19.5002628873        2.2086669866  W2        6895            0.0000000000
     19209      6403  TIP3      H2            -25.1175096295       19.4502728873        1.7678469866  W2        6895            0.0000000000
     19210      6404  TIP3      OH2           -24.6480896295       21.4264228873        6.5378369866  W2        6896            0.0000000000
     19211      6404  TIP3      H1            -24.3683796295       20.5194628873        6.6620069866  W2        6896            0.0000000000
     19212      6404  TIP3      H2            -23.8889196295       21.8605728873        6.1487569866  W2        6896            0.0000000000
     19213      6405  TIP3      OH2           -24.0362596295       22.0081628873       11.9737269866  W2        6897            0.0000000000
     19214      6405  TIP3      H1            -23.1034596295       22.2201528873       11.9393269866  W2        6897            0.0000000000
     19215      6405  TIP3      H2            -24.2715096295       22.1093728873       12.8960269866  W2        6897            0.0000000000
     19216      6406  TIP3      OH2           -24.0070696295       22.7446928873       14.7496669866  W2        6898            0.0000000000
     19217      6406  TIP3      H1            -24.8499396295       23.0127328873       15.1156469866  W2        6898            0.0000000000
     19218      6406  TIP3      H2            -23.5646396295       23.5668828873       14.5387769866  W2        6898            0.0000000000
     19219      6407  TIP3      OH2           -24.0346096295       18.6893528873        6.5860369866  W2        6901            0.0000000000
     19220      6407  TIP3      H1            -23.8521096295       18.2405028873        7.4115369866  W2        6901            0.0000000000
     19221      6407  TIP3      H2            -24.6343196295       18.1047928873        6.1224969866  W2        6901            0.0000000000
     19222      6408  TIP3      OH2           -38.5045996295       19.5047228873       11.1178769866  W2        6902            0.0000000000
     19223      6408  TIP3      H1            -38.0594396295       18.7129728873       11.4198469866  W2        6902            0.0000000000
     19224      6408  TIP3      H2            -38.0382996295       20.2212428873       11.5484369866  W2        6902            0.0000000000
     19225      6409  TIP3      OH2           -40.2005696295       22.5040228873       12.1868969866  W2        6903            0.0000000000
     19226      6409  TIP3      H1            -39.7085896295       22.2830728873       11.3960969866  W2        6903            0.0000000000
     19227      6409  TIP3      H2            -39.8384796295       23.3443628873       12.4678469866  W2        6903            0.0000000000
     19228      6410  TIP3      OH2           -22.1679896295       18.7571628873        3.1140669866  W2        6905            0.0000000000
     19229      6410  TIP3      H1            -21.7557296295       18.0357328873        2.6388669866  W2        6905            0.0000000000
     19230      6410  TIP3      H2            -21.4863396295       19.4266228873        3.1724969866  W2        6905            0.0000000000
     19231      6411  TIP3      OH2           -39.8869196295       18.7619328873        6.2411369866  W2        6906            0.0000000000
     19232      6411  TIP3      H1            -40.8120796295       18.9705928873        6.1116869866  W2        6906            0.0000000000
     19233      6411  TIP3      H2            -39.4329296295       19.2460128873        5.5513669866  W2        6906            0.0000000000
     19234      6412  TIP3      OH2           -25.1161996295       33.7461028873        8.1868769866  W2        6907            0.0000000000
     19235      6412  TIP3      H1            -24.4639096295       33.3983128873        7.5787869866  W2        6907            0.0000000000
     19236      6412  TIP3      H2            -24.6058196295       34.2344228873        8.8328469866  W2        6907            0.0000000000
     19237      6413  TIP3      OH2           -39.9233796295       17.4998328873       14.5853869866  W2        6908            0.0000000000
     19238      6413  TIP3      H1            -40.5883296295       17.2538628873       15.2284769866  W2        6908            0.0000000000
     19239      6413  TIP3      H2            -40.3662496295       18.1218728873       14.0081869866  W2        6908            0.0000000000
     19240      6414  TIP3      OH2           -34.7771596295       31.6493628873       14.9883669866  W2        6910            0.0000000000
     19241      6414  TIP3      H1            -35.2020496295       32.4592128873       14.7058269866  W2        6910            0.0000000000
     19242      6414  TIP3      H2            -33.8728796295       31.7347728873       14.6863469866  W2        6910            0.0000000000
     19243      6415  TIP3      OH2           -28.1209796295       34.3342528873       17.1918769866  W2        6912            0.0000000000
     19244      6415  TIP3      H1            -27.4440896295       33.7014828873       16.9517969866  W2        6912            0.0000000000
     19245      6415  TIP3      H2            -27.7990996295       34.7353028873       17.9992069866  W2        6912            0.0000000000
     19246      6416  TIP3      OH2           -23.2035996295       16.9238028873       16.2713769866  W2        6913            0.0000000000
     19247      6416  TIP3      H1            -24.0162496295       17.2488328873       15.8838469866  W2        6913            0.0000000000
     19248      6416  TIP3      H2            -22.9707496295       16.1636528873       15.7382869866  W2        6913            0.0000000000
     19249      6417  TIP3      OH2           -37.3754896295       34.9057528873       15.0358969866  W2        6914            0.0000000000
     19250      6417  TIP3      H1            -38.0958496295       35.3458528873       14.5846669866  W2        6914            0.0000000000
     19251      6417  TIP3      H2            -37.7410896295       34.6552228873       15.8842969866  W2        6914            0.0000000000
     19252      6418  TIP3      OH2           -34.9082296295       34.5061428873       14.0656169866  W2        6915            0.0000000000
     19253      6418  TIP3      H1            -35.7730096295       34.5779928873       14.4696269866  W2        6915            0.0000000000
     19254      6418  TIP3      H2            -34.9633296295       35.0528728873       13.2818669866  W2        6915            0.0000000000
     19255      6419  TIP3      OH2           -30.1976696295       34.3940328873       13.2412169866  W2        6916            0.0000000000
     19256      6419  TIP3      H1            -30.6542696295       34.9230028873       12.5870569866  W2        6916            0.0000000000
     19257      6419  TIP3      H2            -30.0348696295       34.9971728873       13.9664469866  W2        6916            0.0000000000
     19258      6420  TIP3      OH2           -27.8700396295       33.2719928873       14.1862469866  W2        6917            0.0000000000
     19259      6420  TIP3      H1            -28.7746696295       33.4370128873       13.9204569866  W2        6917            0.0000000000
     19260      6420  TIP3      H2            -27.4411796295       34.1252128873       14.1205869866  W2        6917            0.0000000000
     19261      6421  TIP3      OH2           -25.2658496295       34.8419028873       14.4810269866  W2        6918            0.0000000000
     19262      6421  TIP3      H1            -25.4476496295       35.7577928873       14.2705169866  W2        6918            0.0000000000
     19263      6421  TIP3      H2            -25.0890696295       34.4316128873       13.6344869866  W2        6918            0.0000000000
     19264      6422  TIP3      OH2           -37.9606796295       33.5290028873       11.9460769866  W2        6919            0.0000000000
     19265      6422  TIP3      H1            -37.9790796295       33.1035128873       12.8033069866  W2        6919            0.0000000000
     19266      6422  TIP3      H2            -37.1558896295       33.2105028873       11.5372969866  W2        6919            0.0000000000
     19267      6423  TIP3      OH2           -35.8193696295       32.2388728873       10.6010669866  W2        6920            0.0000000000
     19268      6423  TIP3      H1            -36.0382996295       31.3226128873       10.7706669866  W2        6920            0.0000000000
     19269      6423  TIP3      H2            -34.9951496295       32.3789128873       11.0672069866  W2        6920            0.0000000000
     19270      6424  TIP3      OH2           -33.2821196295       32.7088028873       11.4498669866  W2        6921            0.0000000000
     19271      6424  TIP3      H1            -33.0695496295       31.8207028873       11.1629569866  W2        6921            0.0000000000
     19272      6424  TIP3      H2            -33.2176096295       32.6745728873       12.4042669866  W2        6921            0.0000000000
     19273      6425  TIP3      OH2           -29.7737496295       18.3728628873       10.5941969866  W2        6922            0.0000000000
     19274      6425  TIP3      H1            -30.4480696295       17.7434228873       10.8497769866  W2        6922            0.0000000000
     19275      6425  TIP3      H2            -29.2098296295       17.8887528873        9.9909869866  W2        6922            0.0000000000
     19276      6426  TIP3      OH2           -24.6310296295       16.4802628873       10.7069069866  W2        6923            0.0000000000
     19277      6426  TIP3      H1            -24.0272696295       17.0278028873       10.2050069866  W2        6923            0.0000000000
     19278      6426  TIP3      H2            -25.5008296295       16.7993028873       10.4663169866  W2        6923            0.0000000000
     19279      6427  TIP3      OH2           -22.9039896295       17.6191328873        9.0399969866  W2        6924            0.0000000000
     19280      6427  TIP3      H1            -22.2922396295       17.1047028873        8.5133569866  W2        6924            0.0000000000
     19281      6427  TIP3      H2            -22.5216496295       18.4963428873        9.0634369866  W2        6924            0.0000000000
     19282      6428  TIP3      OH2           -37.4469996295       17.0068928873        8.4161869866  W2        6925            0.0000000000
     19283      6428  TIP3      H1            -38.2240196295       16.7723828873        7.9087769866  W2        6925            0.0000000000
     19284      6428  TIP3      H2            -36.9166396295       16.2101028873        8.4249869866  W2        6925            0.0000000000
     19285      6429  TIP3      OH2           -38.6106596295       16.8047028873        4.2197969866  W2        6926            0.0000000000
     19286      6429  TIP3      H1            -38.1715896295       17.4157528873        3.6281469866  W2        6926            0.0000000000
     19287      6429  TIP3      H2            -39.2444196295       17.3431128873        4.6937969866  W2        6926            0.0000000000
     19288      6430  TIP3      OH2           -32.8677396295       16.9336028873        8.2294969866  W2        6927            0.0000000000
     19289      6430  TIP3      H1            -31.9933996295       17.3220328873        8.1999269866  W2        6927            0.0000000000
     19290      6430  TIP3      H2            -33.0036596295       16.7183828873        9.1522169866  W2        6927            0.0000000000
     19291      6431  TIP3      OH2           -27.3108996295       16.9635828873        9.8786669866  W2        6928            0.0000000000
     19292      6431  TIP3      H1            -27.2347396295       17.0587428873        8.9292669866  W2        6928            0.0000000000
     19293      6431  TIP3      H2            -27.5859796295       16.0558728873       10.0075769866  W2        6928            0.0000000000
     19294      6432  TIP3      OH2           -25.9576396295       16.9893628873        5.5711669866  W2        6929            0.0000000000
     19295      6432  TIP3      H1            -26.6605296295       17.6042828873        5.3613069866  W2        6929            0.0000000000
     19296      6432  TIP3      H2            -26.4024996295       16.1520328873        5.7022569866  W2        6929            0.0000000000
     19297      6433  TIP3      OH2           -38.7097096295       32.7529228873        5.1173069866  W2        6930            0.0000000000
     19298      6433  TIP3      H1            -39.3947196295       32.7148128873        4.4498169866  W2        6930            0.0000000000
     19299      6433  TIP3      H2            -38.7059896295       33.6656828873        5.4055169866  W2        6930            0.0000000000
     19300      6434  TIP3      OH2           -36.7497496295       18.7208528873        2.6622069866  W2        6931            0.0000000000
     19301      6434  TIP3      H1            -36.2584096295       18.0910928873        2.1347569866  W2        6931            0.0000000000
     19302      6434  TIP3      H2            -36.1261196295       19.0167928873        3.3253269866  W2        6931            0.0000000000
     19303      6435  TIP3      OH2           -31.7237396295       19.0140028873        5.1192569866  W2        6932            0.0000000000
     19304      6435  TIP3      H1            -31.5456096295       18.3673228873        5.8021169866  W2        6932            0.0000000000
     19305      6435  TIP3      H2            -31.7771196295       19.8477728873        5.5863669866  W2        6932            0.0000000000
     19306      6436  TIP3      OH2           -29.8453596295       33.9624128873        3.5149269866  W2        6933            0.0000000000
     19307      6436  TIP3      H1            -28.9793396295       34.3291528873        3.3367469866  W2        6933            0.0000000000
     19308      6436  TIP3      H2            -30.0920796295       33.5232128873        2.7010069866  W2        6933            0.0000000000
     19309      6437  TIP3      OH2           -23.1363996295       33.5254428873        6.1940369866  W2        6934            0.0000000000
     19310      6437  TIP3      H1            -23.3306896295       32.7776528873        5.6289969866  W2        6934            0.0000000000
     19311      6437  TIP3      H2            -23.1753896295       34.2834528873        5.6108269866  W2        6934            0.0000000000
     19312      6438  TIP3      OH2           -36.8915896295       33.6730028873        2.1425169866  W2        6937            0.0000000000
     19313      6438  TIP3      H1            -37.1591296295       33.9592928873        3.0158269866  W2        6937            0.0000000000
     19314      6438  TIP3      H2            -36.1203296295       33.1269228873        2.2947669866  W2        6937            0.0000000000
     19315      6439  TIP3      OH2            -9.5127396295       26.1631228873        8.3749369866  W2        6940            0.0000000000
     19316      6439  TIP3      H1             -9.4236296295       27.1069428873        8.2426469866  W2        6940            0.0000000000
     19317      6439  TIP3      H2            -10.1509796295       25.8877628873        7.7168769866  W2        6940            0.0000000000
     19318      6440  TIP3      OH2           -10.5796096295       25.4181928873       11.7937569866  W2        6941            0.0000000000
     19319      6440  TIP3      H1            -10.6178596295       24.7718228873       12.4987169866  W2        6941            0.0000000000
     19320      6440  TIP3      H2            -10.9019596295       24.9516328873       11.0226269866  W2        6941            0.0000000000
     19321      6441  TIP3      OH2           -18.2111096295       25.0324028873       13.3867469866  W2        6942            0.0000000000
     19322      6441  TIP3      H1            -18.1698996295       24.4067328873       14.1099869866  W2        6942            0.0000000000
     19323      6441  TIP3      H2            -17.5083396295       25.6562628873       13.5687869866  W2        6942            0.0000000000
     19324      6442  TIP3      OH2            -6.8735896295       28.3572328873       10.0952669866  W2        6943            0.0000000000
     19325      6442  TIP3      H1             -7.3143196295       27.6368328873       10.5458269866  W2        6943            0.0000000000
     19326      6442  TIP3      H2             -6.8866196295       29.0779528873       10.7250369866  W2        6943            0.0000000000
     19327      6443  TIP3      OH2           -17.2877996295       29.4822928873       11.9216569866  W2        6944            0.0000000000
     19328      6443  TIP3      H1            -17.6572796295       28.6803428873       11.5520869866  W2        6944            0.0000000000
     19329      6443  TIP3      H2            -16.3466896295       29.3137828873       11.9679969866  W2        6944            0.0000000000
     19330      6444  TIP3      OH2           -20.6777496295       23.1425528873        7.3145369866  W2        6945            0.0000000000
     19331      6444  TIP3      H1            -21.1254096295       23.9884228873        7.2961869866  W2        6945            0.0000000000
     19332      6444  TIP3      H2            -21.2386296295       22.5629728873        6.7990469866  W2        6945            0.0000000000
     19333      6445  TIP3      OH2           -19.9671396295       25.3045128873        9.4403369866  W2        6946            0.0000000000
     19334      6445  TIP3      H1            -19.7537896295       24.5346728873        9.9676369866  W2        6946            0.0000000000
     19335      6445  TIP3      H2            -19.2293796295       25.3941828873        8.8370969866  W2        6946            0.0000000000
     19336      6446  TIP3      OH2            -9.7620396295       33.4614028873       10.3073069866  W2        6947            0.0000000000
     19337      6446  TIP3      H1             -9.1423996295       32.7848728873       10.0342269866  W2        6947            0.0000000000
     19338      6446  TIP3      H2             -9.9702996295       33.2434828873       11.2157969866  W2        6947            0.0000000000
     19339      6447  TIP3      OH2           -12.1901696295       27.8503328873       12.1998569866  W2        6948            0.0000000000
     19340      6447  TIP3      H1            -11.8863796295       27.1644728873       11.6052669866  W2        6948            0.0000000000
     19341      6447  TIP3      H2            -11.4687696295       27.9692028873       12.8176569866  W2        6948            0.0000000000
     19342      6448  TIP3      OH2            -3.5271896295       19.4518628873       13.0604769866  W2        6949            0.0000000000
     19343      6448  TIP3      H1             -3.4779696295       20.0619828873       13.7963869866  W2        6949            0.0000000000
     19344      6448  TIP3      H2             -3.1016796295       19.9129528873       12.3375869866  W2        6949            0.0000000000
     19345      6449  TIP3      OH2            -9.0494696295       22.2445728873       12.5273369866  W2        6950            0.0000000000
     19346      6449  TIP3      H1             -8.9068796295       21.2982728873       12.5474969866  W2        6950            0.0000000000
     19347      6449  TIP3      H2             -9.1555696295       22.4515528873       11.5988269866  W2        6950            0.0000000000
     19348      6450  TIP3      OH2           -15.8946396295       20.3462128873        9.7998169866  W2        6951            0.0000000000
     19349      6450  TIP3      H1            -15.8515296295       21.2060628873        9.3814469866  W2        6951            0.0000000000
     19350      6450  TIP3      H2            -16.3522296295       19.7936828873        9.1661369866  W2        6951            0.0000000000
     19351      6451  TIP3      OH2            -8.1723696295       20.4767728873        8.2006469866  W2        6952            0.0000000000
     19352      6451  TIP3      H1             -7.5259396295       20.1480928873        8.8254069866  W2        6952            0.0000000000
     19353      6451  TIP3      H2             -7.6624296295       20.9946728873        7.5777869866  W2        6952            0.0000000000
     19354      6452  TIP3      OH2           -19.2744896295       22.7427928873       10.5619569866  W2        6953            0.0000000000
     19355      6452  TIP3      H1            -18.6208296295       22.1929628873       10.9939669866  W2        6953            0.0000000000
     19356      6452  TIP3      H2            -19.2505596295       22.4686928873        9.6451569866  W2        6953            0.0000000000
     19357      6453  TIP3      OH2           -14.1180396295       24.2929228873        9.7771069866  W2        6954            0.0000000000
     19358      6453  TIP3      H1            -13.5019396295       23.7664628873       10.2865069866  W2        6954            0.0000000000
     19359      6453  TIP3      H2            -14.7041596295       23.6527928873        9.3734669866  W2        6954            0.0000000000
     19360      6454  TIP3      OH2            -3.1357296295       20.9297828873       15.2964569866  W2        6955            0.0000000000
     19361      6454  TIP3      H1             -3.8242696295       21.5878528873       15.2011169866  W2        6955            0.0000000000
     19362      6454  TIP3      H2             -3.1202696295       20.7325728873       16.2329969866  W2        6955            0.0000000000
     19363      6455  TIP3      OH2           -17.0844496295       19.2640528873       13.8738969866  W2        6956            0.0000000000
     19364      6455  TIP3      H1            -17.3032796295       19.7941128873       13.1074969866  W2        6956            0.0000000000
     19365      6455  TIP3      H2            -17.7523596295       19.4906028873       14.5210369866  W2        6956            0.0000000000
     19366      6456  TIP3      OH2            -9.7154696295       28.7641628873        7.4178069866  W2        6957            0.0000000000
     19367      6456  TIP3      H1            -10.0109596295       28.4413928873        6.5664969866  W2        6957            0.0000000000
     19368      6456  TIP3      H2            -10.0396896295       29.6638328873        7.4590669866  W2        6957            0.0000000000
     19369      6457  TIP3      OH2           -14.5153096295       26.9396228873       14.1612669866  W2        6958            0.0000000000
     19370      6457  TIP3      H1            -15.2553996295       27.5377728873       14.2647869866  W2        6958            0.0000000000
     19371      6457  TIP3      H2            -13.8013596295       27.4935828873       13.8456269866  W2        6958            0.0000000000
     19372      6458  TIP3      OH2            -6.4085296295       19.7677028873       10.1812369866  W2        6959            0.0000000000
     19373      6458  TIP3      H1             -6.6237296295       19.0020428873       10.7138369866  W2        6959            0.0000000000
     19374      6458  TIP3      H2             -5.7527896295       20.2401628873       10.6940869866  W2        6959            0.0000000000
     19375      6459  TIP3      OH2           -17.4907196295       21.1562328873       11.8261169866  W2        6960            0.0000000000
     19376      6459  TIP3      H1            -16.8770896295       21.7889928873       12.1993569866  W2        6960            0.0000000000
     19377      6459  TIP3      H2            -16.9786496295       20.6837328873       11.1698069866  W2        6960            0.0000000000
     19378      6460  TIP3      OH2           -16.1078796295       28.9039228873       14.9484169866  W2        6961            0.0000000000
     19379      6460  TIP3      H1            -16.1131196295       29.7832728873       14.5703469866  W2        6961            0.0000000000
     19380      6460  TIP3      H2            -16.9614696295       28.8203328873       15.3734069866  W2        6961            0.0000000000
     19381      6461  TIP3      OH2           -19.9867896295       28.5747128873        5.7303469866  W2        6962            0.0000000000
     19382      6461  TIP3      H1            -20.2586996295       28.8038128873        4.8416369866  W2        6962            0.0000000000
     19383      6461  TIP3      H2            -19.9412196295       29.4125928873        6.1908769866  W2        6962            0.0000000000
     19384      6462  TIP3      OH2            -6.3618196295       30.1963028873       12.4431969866  W2        6963            0.0000000000
     19385      6462  TIP3      H1             -7.3034496295       30.2546928873       12.6048869866  W2        6963            0.0000000000
     19386      6462  TIP3      H2             -6.0852096295       31.1023528873       12.3061669866  W2        6963            0.0000000000
     19387      6463  TIP3      OH2            -6.0611196295       18.4828328873       13.8605869866  W2        6964            0.0000000000
     19388      6463  TIP3      H1             -6.7971996295       19.0935428873       13.8227169866  W2        6964            0.0000000000
     19389      6463  TIP3      H2             -5.3777196295       18.8977328873       13.3342269866  W2        6964            0.0000000000
     19390      6464  TIP3      OH2           -13.0579796295       16.5695628873       11.3263869866  W2        6965            0.0000000000
     19391      6464  TIP3      H1            -13.1755596295       15.6211628873       11.2722169866  W2        6965            0.0000000000
     19392      6464  TIP3      H2            -13.9129696295       16.9021728873       11.5994969866  W2        6965            0.0000000000
     19393      6465  TIP3      OH2            -8.1096996295       31.9776528873        9.0683569866  W2        6966            0.0000000000
     19394      6465  TIP3      H1             -7.6844696295       31.2704428873        8.5833169866  W2        6966            0.0000000000
     19395      6465  TIP3      H2             -7.7926996295       32.7789228873        8.6515769866  W2        6966            0.0000000000
     19396      6466  TIP3      OH2            -6.9500496295       29.8785028873        7.5770169866  W2        6967            0.0000000000
     19397      6466  TIP3      H1             -7.2075696295       29.1885128873        6.9656069866  W2        6967            0.0000000000
     19398      6466  TIP3      H2             -6.8789696295       29.4356228873        8.4226069866  W2        6967            0.0000000000
     19399      6467  TIP3      OH2            -5.2640296295       28.4451728873       16.0543669866  W2        6968            0.0000000000
     19400      6467  TIP3      H1             -5.1243996295       27.8534228873       15.3150669866  W2        6968            0.0000000000
     19401      6467  TIP3      H2             -5.0967496295       29.3177628873       15.6982469866  W2        6968            0.0000000000
     19402      6468  TIP3      OH2           -10.7914896295       25.4071228873        5.8269669866  W2        6969            0.0000000000
     19403      6468  TIP3      H1            -11.5029396295       25.9420928873        5.4750169866  W2        6969            0.0000000000
     19404      6468  TIP3      H2            -10.1005296295       25.4623328873        5.1668569866  W2        6969            0.0000000000
     19405      6469  TIP3      OH2           -10.7375696295       23.8645528873        2.8654669866  W2        6970            0.0000000000
     19406      6469  TIP3      H1            -10.0365796295       23.8872428873        3.5168669866  W2        6970            0.0000000000
     19407      6469  TIP3      H2            -10.4352796295       23.2365228873        2.2093969866  W2        6970            0.0000000000
     19408      6470  TIP3      OH2            -3.4220996295       24.7849728873       14.1204069866  W2        6971            0.0000000000
     19409      6470  TIP3      H1             -4.0746896295       25.4795328873       14.2094969866  W2        6971            0.0000000000
     19410      6470  TIP3      H2             -2.9570696295       24.9950628873       13.3105669866  W2        6971            0.0000000000
     19411      6471  TIP3      OH2            -7.3857196295       25.6164528873        6.7785569866  W2        6972            0.0000000000
     19412      6471  TIP3      H1             -8.1176196295       25.8448228873        7.3516169866  W2        6972            0.0000000000
     19413      6471  TIP3      H2             -6.9384996295       24.9027228873        7.2333069866  W2        6972            0.0000000000
     19414      6472  TIP3      OH2            -7.4883696295       23.7907128873       15.8462569866  W2        6973            0.0000000000
     19415      6472  TIP3      H1             -7.4084596295       24.5541528873       16.4181069866  W2        6973            0.0000000000
     19416      6472  TIP3      H2             -8.0895996295       24.0699528873       15.1557669866  W2        6973            0.0000000000
     19417      6473  TIP3      OH2           -15.7403496295       26.2470728873        8.6610569866  W2        6974            0.0000000000
     19418      6473  TIP3      H1            -16.0708296295       25.8764128873        7.8427569866  W2        6974            0.0000000000
     19419      6473  TIP3      H2            -15.1519396295       25.5764728873        9.0078869866  W2        6974            0.0000000000
     19420      6474  TIP3      OH2           -14.3735996295       29.6751328873       11.3422769866  W2        6975            0.0000000000
     19421      6474  TIP3      H1            -14.4684696295       29.0964428873       10.5857369866  W2        6975            0.0000000000
     19422      6474  TIP3      H2            -13.6442396295       29.3037028873       11.8385569866  W2        6975            0.0000000000
     19423      6475  TIP3      OH2           -15.3737996295       25.0156328873       12.2945569866  W2        6976            0.0000000000
     19424      6475  TIP3      H1            -14.8085496295       25.1370528873       11.5316769866  W2        6976            0.0000000000
     19425      6475  TIP3      H2            -15.0549096295       25.6531328873       12.9334069866  W2        6976            0.0000000000
     19426      6476  TIP3      OH2            -9.0645796295       30.5188228873       13.0286069866  W2        6977            0.0000000000
     19427      6476  TIP3      H1             -9.3049196295       31.1811328873       13.6765269866  W2        6977            0.0000000000
     19428      6476  TIP3      H2             -9.2627596295       29.6843428873       13.4535669866  W2        6977            0.0000000000
     19429      6477  TIP3      OH2           -14.4937296295       29.4149028873       17.0117469866  W2        6978            0.0000000000
     19430      6477  TIP3      H1            -14.8049796295       30.1972228873       17.4670669866  W2        6978            0.0000000000
     19431      6477  TIP3      H2            -15.1437096295       29.2618128873       16.3259469866  W2        6978            0.0000000000
     19432      6478  TIP3      OH2            -8.5147696295       24.7787428873        4.4636769866  W2        6979            0.0000000000
     19433      6478  TIP3      H1             -7.9352196295       24.9287728873        5.2105669866  W2        6979            0.0000000000
     19434      6478  TIP3      H2             -8.1007696295       25.2494828873        3.7403169866  W2        6979            0.0000000000
     19435      6479  TIP3      OH2           -17.5737396295       25.6130128873       16.2403169866  W2        6980            0.0000000000
     19436      6479  TIP3      H1            -17.5034196295       26.2636928873       16.9388169866  W2        6980            0.0000000000
     19437      6479  TIP3      H2            -18.4645196295       25.7157628873       15.9054069866  W2        6980            0.0000000000
     19438      6480  TIP3      OH2           -10.7882796295       31.5155928873        7.8989869866  W2        6981            0.0000000000
     19439      6480  TIP3      H1            -10.3145196295       31.8112228873        8.6764069866  W2        6981            0.0000000000
     19440      6480  TIP3      H2            -11.3513496295       32.2537528873        7.6659469866  W2        6981            0.0000000000
     19441      6481  TIP3      OH2            -4.8159296295       16.5287828873        4.2766469866  W2        6983            0.0000000000
     19442      6481  TIP3      H1             -5.7158596295       16.6676828873        4.5717069866  W2        6983            0.0000000000
     19443      6481  TIP3      H2             -4.5640896295       17.3602428873        3.8748169866  W2        6983            0.0000000000
     19444      6482  TIP3      OH2           -16.7500796295       25.3165028873        6.2503369866  W2        6984            0.0000000000
     19445      6482  TIP3      H1            -17.0419496295       26.0846728873        5.7594669866  W2        6984            0.0000000000
     19446      6482  TIP3      H2            -17.4245596295       24.6571228873        6.0874769866  W2        6984            0.0000000000
     19447      6483  TIP3      OH2            -3.6267896295       30.8950228873        2.6530369866  W2        6985            0.0000000000
     19448      6483  TIP3      H1             -3.5534396295       31.8340428873        2.8235669866  W2        6985            0.0000000000
     19449      6483  TIP3      H2             -2.7212796295       30.5898828873        2.5967669866  W2        6985            0.0000000000
     19450      6484  TIP3      OH2           -20.6570696295       27.6794228873       15.0653169866  W2        6986            0.0000000000
     19451      6484  TIP3      H1            -21.1582296295       27.6513628873       14.2502869866  W2        6986            0.0000000000
     19452      6484  TIP3      H2            -20.6516996295       26.7737428873       15.3750469866  W2        6986            0.0000000000
     19453      6485  TIP3      OH2           -20.9067996295       30.4598028873       11.9493369866  W2        6987            0.0000000000
     19454      6485  TIP3      H1            -19.9607396295       30.3155028873       11.9302869866  W2        6987            0.0000000000
     19455      6485  TIP3      H2            -21.0191696295       31.2440828873       12.4864569866  W2        6987            0.0000000000
     19456      6486  TIP3      OH2           -11.7305496295       30.6996928873       16.5078469866  W2        6989            0.0000000000
     19457      6486  TIP3      H1            -11.6430896295       31.5261528873       16.9827569866  W2        6989            0.0000000000
     19458      6486  TIP3      H2            -12.5940396295       30.3700728873       16.7567769866  W2        6989            0.0000000000
     19459      6487  TIP3      OH2           -11.3159696295       34.4720628873        6.3139069866  W2        6990            0.0000000000
     19460      6487  TIP3      H1            -11.3913696295       34.3507828873        5.3674269866  W2        6990            0.0000000000
     19461      6487  TIP3      H2            -11.2830996295       35.4213328873        6.4323669866  W2        6990            0.0000000000
     19462      6488  TIP3      OH2           -17.6625896295       33.2607628873        8.0948069866  W2        6991            0.0000000000
     19463      6488  TIP3      H1            -17.5105496295       32.9128028873        8.9734569866  W2        6991            0.0000000000
     19464      6488  TIP3      H2            -18.5135496295       32.9044928873        7.8395269866  W2        6991            0.0000000000
     19465      6489  TIP3      OH2            -8.2143696295       33.6260828873        3.3161469866  W2        6992            0.0000000000
     19466      6489  TIP3      H1             -7.8395296295       32.8816928873        2.8454069866  W2        6992            0.0000000000
     19467      6489  TIP3      H2             -8.2099996295       33.3561428873        4.2344769866  W2        6992            0.0000000000
     19468      6490  TIP3      OH2            -8.5455596295       33.5517928873        6.0653669866  W2        6993            0.0000000000
     19469      6490  TIP3      H1             -9.4805796295       33.6519828873        6.2440669866  W2        6993            0.0000000000
     19470      6490  TIP3      H2             -8.2653696295       32.8423928873        6.6436869866  W2        6993            0.0000000000
     19471      6491  TIP3      OH2           -18.4080196295       29.0029628873       16.1085969866  W2        6995            0.0000000000
     19472      6491  TIP3      H1            -18.1918896295       28.6415228873       16.9681769866  W2        6995            0.0000000000
     19473      6491  TIP3      H2            -19.2635496295       28.6283428873       15.8989469866  W2        6995            0.0000000000
     19474      6492  TIP3      OH2           -15.7892196295       17.4730128873       12.1040169866  W2        6996            0.0000000000
     19475      6492  TIP3      H1            -16.6508496295       17.3858328873       11.6963069866  W2        6996            0.0000000000
     19476      6492  TIP3      H2            -15.8116496295       18.3290228873       12.5317769866  W2        6996            0.0000000000
     19477      6493  TIP3      OH2           -11.1264396295       17.1950528873       15.4787169866  W2        6997            0.0000000000
     19478      6493  TIP3      H1            -10.7061296295       16.7797628873       16.2317769866  W2        6997            0.0000000000
     19479      6493  TIP3      H2            -12.0594796295       17.0163828873       15.5959169866  W2        6997            0.0000000000
     19480      6494  TIP3      OH2            -7.7999496295       20.9505728873       16.3321669866  W2        6998            0.0000000000
     19481      6494  TIP3      H1             -8.3139996295       20.8247928873       17.1297669866  W2        6998            0.0000000000
     19482      6494  TIP3      H2             -7.9554796295       21.8628828873       16.0877869866  W2        6998            0.0000000000
     19483      6495  TIP3      OH2            -7.0374596295       25.8115728873        2.0934669866  W2        6999            0.0000000000
     19484      6495  TIP3      H1             -6.9953796295       25.5889628873        1.1634669866  W2        6999            0.0000000000
     19485      6495  TIP3      H2             -6.1882496295       26.2102828873        2.2834569866  W2        6999            0.0000000000
     19486      6496  TIP3      OH2           -11.4647096295       19.6873928873        2.7637969866  W2        7000            0.0000000000
     19487      6496  TIP3      H1            -11.7182296295       19.7065528873        3.6866069866  W2        7000            0.0000000000
     19488      6496  TIP3      H2            -11.7214996295       18.8159328873        2.4624169866  W2        7000            0.0000000000
     19489      6497  TIP3      OH2           -15.6982096295       22.4384628873       13.1990369866  W2        7001            0.0000000000
     19490      6497  TIP3      H1            -16.3399996295       22.3981928873       13.9080469866  W2        7001            0.0000000000
     19491      6497  TIP3      H2            -15.6610096295       23.3649328873       12.9613369866  W2        7001            0.0000000000
     19492      6498  TIP3      OH2           -15.7012996295       22.6594728873        8.1110369866  W2        7002            0.0000000000
     19493      6498  TIP3      H1            -16.5940096295       22.3190828873        8.0524169866  W2        7002            0.0000000000
     19494      6498  TIP3      H2            -15.2506396295       22.2825628873        7.3553569866  W2        7002            0.0000000000
     19495      6499  TIP3      OH2           -10.1657496295       23.0755028873        6.9281169866  W2        7003            0.0000000000
     19496      6499  TIP3      H1            -10.5747196295       23.8903628873        6.6365969866  W2        7003            0.0000000000
     19497      6499  TIP3      H2             -9.4451296295       22.9355128873        6.3138269866  W2        7003            0.0000000000
     19498      6500  TIP3      OH2            -9.1609796295       22.5215428873        9.7420869866  W2        7005            0.0000000000
     19499      6500  TIP3      H1             -9.3565296295       23.1272228873        9.0271469866  W2        7005            0.0000000000
     19500      6500  TIP3      H2             -8.9797196295       21.6880628873        9.3077169866  W2        7005            0.0000000000
     19501      6501  TIP3      OH2           -17.9481596295       22.7588128873       15.0662369866  W2        7006            0.0000000000
     19502      6501  TIP3      H1            -17.9862196295       23.1589728873       15.9349469866  W2        7006            0.0000000000
     19503      6501  TIP3      H2            -18.4390496295       21.9420528873       15.1565269866  W2        7006            0.0000000000
     19504      6502  TIP3      OH2           -14.5824196295       20.1330428873        1.8648369866  W2        7007            0.0000000000
     19505      6502  TIP3      H1            -15.0133496295       19.6880528873        2.5945769866  W2        7007            0.0000000000
     19506      6502  TIP3      H2            -15.3005496295       20.5046728873        1.3525869866  W2        7007            0.0000000000
     19507      6503  TIP3      OH2           -21.3400796295       19.8749928873        8.9167069866  W2        7008            0.0000000000
     19508      6503  TIP3      H1            -20.7093096295       19.8462028873        9.6360969866  W2        7008            0.0000000000
     19509      6503  TIP3      H2            -20.8906496295       19.4498628873        8.1862969866  W2        7008            0.0000000000
     19510      6504  TIP3      OH2           -20.0658696295       20.6211928873        4.3407469866  W2        7009            0.0000000000
     19511      6504  TIP3      H1            -19.5916996295       21.2121828873        3.7558369866  W2        7009            0.0000000000
     19512      6504  TIP3      H2            -20.7832296295       21.1514828873        4.6877569866  W2        7009            0.0000000000
     19513      6505  TIP3      OH2            -9.8970596295       24.1596728873       14.4133269866  W2        7010            0.0000000000
     19514      6505  TIP3      H1             -9.5735796295       23.5286428873       13.7703769866  W2        7010            0.0000000000
     19515      6505  TIP3      H2            -10.3371296295       23.6248928873       15.0740669866  W2        7010            0.0000000000
     19516      6506  TIP3      OH2           -13.1197696295       20.0872228873        9.1974469866  W2        7011            0.0000000000
     19517      6506  TIP3      H1            -14.0306596295       20.1439028873        9.4860469866  W2        7011            0.0000000000
     19518      6506  TIP3      H2            -12.6144796295       20.0267728873       10.0081669866  W2        7011            0.0000000000
     19519      6507  TIP3      OH2           -18.2914296295       21.7158528873        8.0242069866  W2        7012            0.0000000000
     19520      6507  TIP3      H1            -19.1806296295       21.8154028873        7.6841669866  W2        7012            0.0000000000
     19521      6507  TIP3      H2            -17.9949396295       20.8741528873        7.6779969866  W2        7012            0.0000000000
     19522      6508  TIP3      OH2           -14.6382496295       21.7161128873        5.6806669866  W2        7013            0.0000000000
     19523      6508  TIP3      H1            -13.7066996295       21.8451128873        5.8589769866  W2        7013            0.0000000000
     19524      6508  TIP3      H2            -14.8532196295       22.3855428873        5.0311369866  W2        7013            0.0000000000
     19525      6509  TIP3      OH2            -8.7145796295       19.3218528873       12.4616269866  W2        7014            0.0000000000
     19526      6509  TIP3      H1             -9.3914196295       19.4531628873       13.1255969866  W2        7014            0.0000000000
     19527      6509  TIP3      H2             -9.2000896295       19.1668028873       11.6513969866  W2        7014            0.0000000000
     19528      6510  TIP3      OH2           -15.9642296295       22.9103328873        3.2472769866  W2        7015            0.0000000000
     19529      6510  TIP3      H1            -16.5067196295       22.5307128873        2.5560369866  W2        7015            0.0000000000
     19530      6510  TIP3      H2            -15.1307396295       23.1048028873        2.8186869866  W2        7015            0.0000000000
     19531      6511  TIP3      OH2           -11.7997996295       22.8745228873       11.0844069866  W2        7018            0.0000000000
     19532      6511  TIP3      H1            -11.2354596295       22.3281828873       10.5373669866  W2        7018            0.0000000000
     19533      6511  TIP3      H2            -11.9474596295       22.3527128873       11.8731669866  W2        7018            0.0000000000
     19534      6512  TIP3      OH2           -16.7978296295       19.0111328873        7.5028869866  W2        7019            0.0000000000
     19535      6512  TIP3      H1            -17.1148796295       18.1086628873        7.4674269866  W2        7019            0.0000000000
     19536      6512  TIP3      H2            -16.0164196295       19.0128728873        6.9500469866  W2        7019            0.0000000000
     19537      6513  TIP3      OH2           -13.1732096295       21.2631328873       13.4984469866  W2        7020            0.0000000000
     19538      6513  TIP3      H1            -14.0086796295       21.7170828873       13.6086869866  W2        7020            0.0000000000
     19539      6513  TIP3      H2            -12.6491496295       21.5389828873       14.2504369866  W2        7020            0.0000000000
     19540      6514  TIP3      OH2           -12.6289496295       27.4759028873        5.1830869866  W2        7021            0.0000000000
     19541      6514  TIP3      H1            -13.3738496295       26.9684328873        4.8608769866  W2        7021            0.0000000000
     19542      6514  TIP3      H2            -12.7632296295       27.5247028873        6.1295669866  W2        7021            0.0000000000
     19543      6515  TIP3      OH2            -5.4790596295       26.6087228873       13.9698469866  W2        7022            0.0000000000
     19544      6515  TIP3      H1             -4.8371796295       27.0653528873       13.4260669866  W2        7022            0.0000000000
     19545      6515  TIP3      H2             -6.3093696295       26.7219628873       13.5072569866  W2        7022            0.0000000000
     19546      6516  TIP3      OH2            -8.7312696295       20.2898928873        3.3823469866  W2        7023            0.0000000000
     19547      6516  TIP3      H1             -9.6698496295       20.4014528873        3.2312269866  W2        7023            0.0000000000
     19548      6516  TIP3      H2             -8.4340596295       21.1465828873        3.6889169866  W2        7023            0.0000000000
     19549      6517  TIP3      OH2           -11.1097396295       27.6602328873       16.4199969866  W2        7024            0.0000000000
     19550      6517  TIP3      H1            -11.4551296295       27.2784728873       17.2269569866  W2        7024            0.0000000000
     19551      6517  TIP3      H2            -11.3097296295       28.5935928873       16.4912869866  W2        7024            0.0000000000
     19552      6518  TIP3      OH2            -8.0129196295       22.1571628873        5.0430869866  W2        7025            0.0000000000
     19553      6518  TIP3      H1             -7.1210196295       22.0196628873        5.3622069866  W2        7025            0.0000000000
     19554      6518  TIP3      H2             -7.9565596295       22.9477728873        4.5064369866  W2        7025            0.0000000000
     19555      6519  TIP3      OH2           -17.5041196295       26.7709028873       10.9528769866  W2        7026            0.0000000000
     19556      6519  TIP3      H1            -16.7593996295       26.7684728873       10.3515269866  W2        7026            0.0000000000
     19557      6519  TIP3      H2            -17.4264596295       25.9472828873       11.4343869866  W2        7026            0.0000000000
     19558      6520  TIP3      OH2           -10.5035396295       28.9343328873        4.2085469866  W2        7027            0.0000000000
     19559      6520  TIP3      H1            -10.7986996295       29.7611228873        4.5900269866  W2        7027            0.0000000000
     19560      6520  TIP3      H2            -11.2065396295       28.3150228873        4.4046869866  W2        7027            0.0000000000
     19561      6521  TIP3      OH2           -20.4961496295       25.2315928873       16.2677269866  W2        7028            0.0000000000
     19562      6521  TIP3      H1            -20.2732896295       24.8135528873       17.0994769866  W2        7028            0.0000000000
     19563      6521  TIP3      H2            -21.0981396295       24.6190928873       15.8450069866  W2        7028            0.0000000000
     19564      6522  TIP3      OH2            -8.8593796295       30.1217828873       16.3704969866  W2        7030            0.0000000000
     19565      6522  TIP3      H1             -9.7599496295       30.3050428873       16.1028869866  W2        7030            0.0000000000
     19566      6522  TIP3      H2             -8.8252696295       30.3807128873       17.2913769866  W2        7030            0.0000000000
     19567      6523  TIP3      OH2            -3.1280496295       22.3665728873        4.7377569866  W2        7031            0.0000000000
     19568      6523  TIP3      H1             -3.6824196295       21.9703728873        4.0655069866  W2        7031            0.0000000000
     19569      6523  TIP3      H2             -3.0276896295       23.2770928873        4.4600869866  W2        7031            0.0000000000
     19570      6524  TIP3      OH2            -4.8328796295       31.1526128873        5.2029669866  W2        7033            0.0000000000
     19571      6524  TIP3      H1             -5.2057696295       30.3269928873        5.5120269866  W2        7033            0.0000000000
     19572      6524  TIP3      H2             -4.5555296295       30.9695528873        4.3053069866  W2        7033            0.0000000000
     19573      6525  TIP3      OH2            -7.6724896295       25.9605628873       12.2241569866  W2        7034            0.0000000000
     19574      6525  TIP3      H1             -8.6007996295       25.7287528873       12.1970869866  W2        7034            0.0000000000
     19575      6525  TIP3      H2             -7.2213796295       25.1835428873       11.8940369866  W2        7034            0.0000000000
     19576      6526  TIP3      OH2           -15.1291796295       30.2887228873        8.3570269866  W2        7035            0.0000000000
     19577      6526  TIP3      H1            -14.6019596295       31.0621628873        8.1569069866  W2        7035            0.0000000000
     19578      6526  TIP3      H2            -16.0093296295       30.5136428873        8.0554269866  W2        7035            0.0000000000
     19579      6527  TIP3      OH2           -19.3744096295       25.1511328873        2.9442669866  W2        7036            0.0000000000
     19580      6527  TIP3      H1            -18.7584196295       25.7778528873        3.3237469866  W2        7036            0.0000000000
     19581      6527  TIP3      H2            -20.2361496295       25.4671128873        3.2159169866  W2        7036            0.0000000000
     19582      6528  TIP3      OH2           -13.7019496295       27.9517128873        7.9334569866  W2        7037            0.0000000000
     19583      6528  TIP3      H1            -13.9429496295       28.8771528873        7.9749869866  W2        7037            0.0000000000
     19584      6528  TIP3      H2            -14.4425896295       27.4928428873        8.3298469866  W2        7037            0.0000000000
     19585      6529  TIP3      OH2           -13.1872896295       32.1010728873       14.2485669866  W2        7038            0.0000000000
     19586      6529  TIP3      H1            -12.8248196295       32.9556328873       14.0150069866  W2        7038            0.0000000000
     19587      6529  TIP3      H2            -12.6557696295       31.8092328873       14.9891969866  W2        7038            0.0000000000
     19588      6530  TIP3      OH2           -15.0188696295       32.9734728873        7.4786769866  W2        7039            0.0000000000
     19589      6530  TIP3      H1            -15.9688196295       33.0792128873        7.5300069866  W2        7039            0.0000000000
     19590      6530  TIP3      H2            -14.6670596295       33.7942128873        7.8234269866  W2        7039            0.0000000000
     19591      6531  TIP3      OH2            -9.6432096295       28.2001428873       13.9491269866  W2        7040            0.0000000000
     19592      6531  TIP3      H1            -10.0690796295       27.9723128873       14.7755269866  W2        7040            0.0000000000
     19593      6531  TIP3      H2             -9.0626296295       27.4613228873       13.7666569866  W2        7040            0.0000000000
     19594      6532  TIP3      OH2            -7.4403196295       29.1291928873        3.0230269866  W2        7041            0.0000000000
     19595      6532  TIP3      H1             -7.0870096295       28.7491728873        3.8273769866  W2        7041            0.0000000000
     19596      6532  TIP3      H2             -8.3889696295       29.0356728873        3.1099569866  W2        7041            0.0000000000
     19597      6533  TIP3      OH2            -6.9847896295       32.7520928873       16.4186069866  W2        7042            0.0000000000
     19598      6533  TIP3      H1             -7.5864696295       32.1963828873       15.9232369866  W2        7042            0.0000000000
     19599      6533  TIP3      H2             -6.7034196295       33.4190728873       15.7923469866  W2        7042            0.0000000000
     19600      6534  TIP3      OH2            -2.9368796295       33.6084428873        3.2240469866  W2        7043            0.0000000000
     19601      6534  TIP3      H1             -2.1930896295       34.1944928873        3.0842069866  W2        7043            0.0000000000
     19602      6534  TIP3      H2             -3.6310696295       34.1770228873        3.5572869866  W2        7043            0.0000000000
     19603      6535  TIP3      OH2           -18.8621996295       19.9848628873       15.8258669866  W2        7044            0.0000000000
     19604      6535  TIP3      H1            -19.7549696295       20.3234028873       15.7582669866  W2        7044            0.0000000000
     19605      6535  TIP3      H2            -18.9609196295       19.1294728873       16.2439469866  W2        7044            0.0000000000
     19606      6536  TIP3      OH2            -6.5743896295       27.8013928873        5.2498169866  W2        7045            0.0000000000
     19607      6536  TIP3      H1             -6.8516296295       27.0733228873        5.8059269866  W2        7045            0.0000000000
     19608      6536  TIP3      H2             -5.6470896295       27.9205928873        5.4550769866  W2        7045            0.0000000000
     19609      6537  TIP3      OH2           -19.2109996295       31.7893028873       14.2608069866  W2        7046            0.0000000000
     19610      6537  TIP3      H1            -18.9939696295       30.8575428873       14.2297769866  W2        7046            0.0000000000
     19611      6537  TIP3      H2            -18.9646496295       32.0638028873       15.1440869866  W2        7046            0.0000000000
     19612      6538  TIP3      OH2           -13.3495396295       30.2408028873        1.4700269866  W2        7047            0.0000000000
     19613      6538  TIP3      H1            -13.1105596295       29.4926128873        0.9229169866  W2        7047            0.0000000000
     19614      6538  TIP3      H2            -13.6184096295       29.8529728873        2.3028069866  W2        7047            0.0000000000
     19615      6539  TIP3      OH2           -14.4124796295       29.8111828873        3.9262869866  W2        7048            0.0000000000
     19616      6539  TIP3      H1            -14.2656796295       29.2911628873        4.7163769866  W2        7048            0.0000000000
     19617      6539  TIP3      H2            -14.4153096295       30.7179428873        4.2328769866  W2        7048            0.0000000000
     19618      6540  TIP3      OH2           -17.9593696295       27.0635128873        4.4368269866  W2        7049            0.0000000000
     19619      6540  TIP3      H1            -18.6454396295       27.4157628873        5.0037969866  W2        7049            0.0000000000
     19620      6540  TIP3      H2            -17.4365796295       27.8264728873        4.1902569866  W2        7049            0.0000000000
     19621      6541  TIP3      OH2           -10.1278596295       19.7258928873       14.7157269866  W2        7050            0.0000000000
     19622      6541  TIP3      H1             -9.4290696295       19.7997628873       15.3656969866  W2        7050            0.0000000000
     19623      6541  TIP3      H2            -10.5087196295       18.8613928873       14.8700169866  W2        7050            0.0000000000
     19624      6542  TIP3      OH2            -9.3433696295       19.3780628873        5.8129569866  W2        7051            0.0000000000
     19625      6542  TIP3      H1             -9.1235396295       19.8496028873        5.0094969866  W2        7051            0.0000000000
     19626      6542  TIP3      H2             -8.7849696295       19.7723228873        6.4830169866  W2        7051            0.0000000000
     19627      6543  TIP3      OH2           -11.6747596295       31.5085428873        4.6757069866  W2        7052            0.0000000000
     19628      6543  TIP3      H1            -12.4911496295       32.0055128873        4.7281369866  W2        7052            0.0000000000
     19629      6543  TIP3      H2            -11.1451296295       31.9838928873        4.0355869866  W2        7052            0.0000000000
     19630      6544  TIP3      OH2           -12.1433796295       21.1059428873        6.6477969866  W2        7053            0.0000000000
     19631      6544  TIP3      H1            -11.3311196295       21.6102628873        6.6939669866  W2        7053            0.0000000000
     19632      6544  TIP3      H2            -12.3880796295       20.9609128873        7.5617569866  W2        7053            0.0000000000
     19633      6545  TIP3      OH2           -11.6077396295       22.0922128873       15.8324569866  W2        7054            0.0000000000
     19634      6545  TIP3      H1            -11.4887096295       22.6657528873       16.5894969866  W2        7054            0.0000000000
     19635      6545  TIP3      H2            -10.9522796295       21.4041528873       15.9472369866  W2        7054            0.0000000000
     19636      6546  TIP3      OH2           -11.2597096295       18.1872428873        7.5859069866  W2        7055            0.0000000000
     19637      6546  TIP3      H1            -11.6063596295       18.8043028873        8.2303369866  W2        7055            0.0000000000
     19638      6546  TIP3      H2            -10.6010196295       18.6878128873        7.1044569866  W2        7055            0.0000000000
     19639      6547  TIP3      OH2           -14.3364496295       32.5522628873        4.6573969866  W2        7056            0.0000000000
     19640      6547  TIP3      H1            -14.1755796295       33.3520128873        4.1566569866  W2        7056            0.0000000000
     19641      6547  TIP3      H2            -14.5336696295       32.8588628873        5.5424569866  W2        7056            0.0000000000
     19642      6548  TIP3      OH2           -15.6020096295       19.2501828873        4.2731569866  W2        7057            0.0000000000
     19643      6548  TIP3      H1            -15.6855296295       20.1384928873        4.6197969866  W2        7057            0.0000000000
     19644      6548  TIP3      H2            -14.7119796295       18.9848528873        4.5048369866  W2        7057            0.0000000000
     19645      6549  TIP3      OH2            -5.4031596295       19.9992428873       16.6674269866  W2        7058            0.0000000000
     19646      6549  TIP3      H1             -6.3195796295       20.2614128873       16.5797969866  W2        7058            0.0000000000
     19647      6549  TIP3      H2             -5.0676596295       19.9961428873       15.7709569866  W2        7058            0.0000000000
     19648      6550  TIP3      OH2            -6.8010596295       23.7493428873       10.7631569866  W2        7059            0.0000000000
     19649      6550  TIP3      H1             -7.5986196295       23.3343628873       10.4346569866  W2        7059            0.0000000000
     19650      6550  TIP3      H2             -6.3559496295       23.0587128873       11.2542069866  W2        7059            0.0000000000
     19651      6551  TIP3      OH2           -17.3434796295       29.6774028873        3.3336069866  W2        7060            0.0000000000
     19652      6551  TIP3      H1            -16.7513296295       30.3768828873        3.6098469866  W2        7060            0.0000000000
     19653      6551  TIP3      H2            -16.8841796295       29.2443528873        2.6140669866  W2        7060            0.0000000000
     19654      6552  TIP3      OH2           -19.0275596295       22.3417028873        2.4495469866  W2        7061            0.0000000000
     19655      6552  TIP3      H1            -19.0722996295       23.2810128873        2.6282469866  W2        7061            0.0000000000
     19656      6552  TIP3      H2            -19.9152396295       22.1061928873        2.1797569866  W2        7061            0.0000000000
     19657      6553  TIP3      OH2            -5.7145996295       33.0055928873       12.3855069866  W2        7062            0.0000000000
     19658      6553  TIP3      H1             -5.8701696295       33.6840328873       11.7284369866  W2        7062            0.0000000000
     19659      6553  TIP3      H2             -4.7819596295       33.0775228873       12.5885669866  W2        7062            0.0000000000
     19660      6554  TIP3      OH2           -18.2193596295       17.1233628873       11.1226469866  W2        7063            0.0000000000
     19661      6554  TIP3      H1            -18.4483796295       17.1826128873       10.1951469866  W2        7063            0.0000000000
     19662      6554  TIP3      H2            -18.6620196295       16.3319128873       11.4290569866  W2        7063            0.0000000000
     19663      6555  TIP3      OH2           -19.2890296295       31.0640728873        7.2832269866  W2        7064            0.0000000000
     19664      6555  TIP3      H1            -20.1211696295       31.5363428873        7.3103669866  W2        7064            0.0000000000
     19665      6555  TIP3      H2            -18.7431996295       31.5738328873        6.6845369866  W2        7064            0.0000000000
     19666      6556  TIP3      OH2           -11.3113596295       32.1039428873        1.6086269866  W2        7067            0.0000000000
     19667      6556  TIP3      H1            -11.9552596295       31.4728028873        1.9299969866  W2        7067            0.0000000000
     19668      6556  TIP3      H2            -10.5495296295       31.5727428873        1.3769769866  W2        7067            0.0000000000
     19669      6557  TIP3      OH2            -6.7070696295       31.9209328873        1.8424269866  W2        7069            0.0000000000
     19670      6557  TIP3      H1             -6.4240296295       31.1264528873        2.2951169866  W2        7069            0.0000000000
     19671      6557  TIP3      H2             -5.9672796295       32.1540328873        1.2815369866  W2        7069            0.0000000000
     19672      6558  TIP3      OH2           -15.7523396295       27.8304228873        1.6999169866  W2        7071            0.0000000000
     19673      6558  TIP3      H1            -15.6879296295       27.0363828873        2.2305569866  W2        7071            0.0000000000
     19674      6558  TIP3      H2            -15.0994196295       27.7117028873        1.0101169866  W2        7071            0.0000000000
     19675      6559  TIP3      OH2           -10.3999996295       28.8775928873        1.4357169866  W2        7073            0.0000000000
     19676      6559  TIP3      H1            -10.6685896295       29.0578028873        2.3366069866  W2        7073            0.0000000000
     19677      6559  TIP3      H2            -10.6064396295       27.9522128873        1.3042969866  W2        7073            0.0000000000
     19678      6560  TIP3      OH2            -7.7035796295       27.3723928873       16.3833269866  W2        7074            0.0000000000
     19679      6560  TIP3      H1             -6.9580996295       27.9607628873       16.2637269866  W2        7074            0.0000000000
     19680      6560  TIP3      H2             -8.4608996295       27.9543628873       16.4466369866  W2        7074            0.0000000000
     19681      6561  TIP3      OH2           -14.6029596295       25.8030428873        4.0057169866  W2        7076            0.0000000000
     19682      6561  TIP3      H1            -15.0627596295       25.3188728873        4.6915669866  W2        7076            0.0000000000
     19683      6561  TIP3      H2            -14.3480896295       25.1345828873        3.3697669866  W2        7076            0.0000000000
     19684      6562  TIP3      OH2           -15.3140296295       23.6957528873       16.3616769866  W2        7077            0.0000000000
     19685      6562  TIP3      H1            -15.9324196295       24.3704128873       16.6421469866  W2        7077            0.0000000000
     19686      6562  TIP3      H2            -14.9699096295       24.0171428873       15.5282969866  W2        7077            0.0000000000
     19687      6563  TIP3      OH2           -13.5319196295       24.0462228873        2.2680369866  W2        7078            0.0000000000
     19688      6563  TIP3      H1            -13.7124196295       23.8913428873        1.3408669866  W2        7078            0.0000000000
     19689      6563  TIP3      H2            -12.5818696295       24.1540928873        2.3128269866  W2        7078            0.0000000000
     19690      6564  TIP3      OH2            -4.1420896295       26.4006428873        1.7138469866  W2        7080            0.0000000000
     19691      6564  TIP3      H1             -4.4156096295       25.9761928873        0.9006769866  W2        7080            0.0000000000
     19692      6564  TIP3      H2             -4.1026796295       27.3320928873        1.4968869866  W2        7080            0.0000000000
     19693      6565  TIP3      OH2           -14.9746596295       21.0508328873       17.4439869866  W2        7081            0.0000000000
     19694      6565  TIP3      H1            -14.8245696295       20.3219628873       16.8419569866  W2        7081            0.0000000000
     19695      6565  TIP3      H2            -14.9724196295       21.8280028873       16.8852069866  W2        7081            0.0000000000
     19696      6566  TIP3      OH2           -14.5620896295       19.4204128873       14.9367269866  W2        7082            0.0000000000
     19697      6566  TIP3      H1            -14.0263396295       19.8720828873       14.2846569866  W2        7082            0.0000000000
     19698      6566  TIP3      H2            -15.4141296295       19.3123928873       14.5141369866  W2        7082            0.0000000000
     19699      6567  TIP3      OH2           -12.9802496295       24.8600328873       15.1762469866  W2        7083            0.0000000000
     19700      6567  TIP3      H1            -12.2297696295       24.7037828873       14.6030269866  W2        7083            0.0000000000
     19701      6567  TIP3      H2            -13.3194196295       25.7116928873       14.9007969866  W2        7083            0.0000000000
     19702      6568  TIP3      OH2           -13.7565396295       16.8769828873       15.3680869866  W2        7087            0.0000000000
     19703      6568  TIP3      H1            -13.8545796295       17.8233028873       15.2627069866  W2        7087            0.0000000000
     19704      6568  TIP3      H2            -14.4989196295       16.5043628873       14.8924369866  W2        7087            0.0000000000
     19705      6569  TIP3      OH2           -13.6347496295       34.7365928873        3.2693969866  W2        7094            0.0000000000
     19706      6569  TIP3      H1            -12.7016796295       34.8944628873        3.4132369866  W2        7094            0.0000000000
     19707      6569  TIP3      H2            -13.8988696295       35.4118928873        2.6445469866  W2        7094            0.0000000000
     19708      6570  TIP3      OH2           -20.0662596295       29.3729728873        2.7522069866  W2        7095            0.0000000000
     19709      6570  TIP3      H1            -19.1523396295       29.4518628873        3.0255969866  W2        7095            0.0000000000
     19710      6570  TIP3      H2            -20.0589496295       28.6859328873        2.0857669866  W2        7095            0.0000000000
     19711      6571  TIP3      OH2           -21.4171996295       34.7658228873        7.8295969866  W2        7096            0.0000000000
     19712      6571  TIP3      H1            -22.0644896295       34.3039928873        7.2967169866  W2        7096            0.0000000000
     19713      6571  TIP3      H2            -21.0627396295       34.0941528873        8.4122169866  W2        7096            0.0000000000
     19714      6572  TIP3      OH2           -20.5472796295       32.8465228873        9.6342169866  W2        7097            0.0000000000
     19715      6572  TIP3      H1            -20.8815996295       31.9662528873        9.8062369866  W2        7097            0.0000000000
     19716      6572  TIP3      H2            -20.3250396295       33.1920228873       10.4987769866  W2        7097            0.0000000000
     19717      6573  TIP3      OH2            -2.9987996295       33.6561628873       12.6146969866  W2        7098            0.0000000000
     19718      6573  TIP3      H1             -3.0201296295       33.8410028873       13.5536369866  W2        7098            0.0000000000
     19719      6573  TIP3      H2             -2.3081796295       34.2245628873       12.2738369866  W2        7098            0.0000000000
     19720      6574  TIP3      OH2            -3.4355096295       33.2232728873       15.5366069866  W2        7099            0.0000000000
     19721      6574  TIP3      H1             -3.9226396295       32.4876828873       15.1653469866  W2        7099            0.0000000000
     19722      6574  TIP3      H2             -2.8862396295       32.8296628873       16.2145469866  W2        7099            0.0000000000
     19723      6575  TIP3      OH2            -3.6838096295       27.2694528873        5.6888869866  W2        7101            0.0000000000
     19724      6575  TIP3      H1             -2.8336696295       27.6905428873        5.8160469866  W2        7101            0.0000000000
     19725      6575  TIP3      H2             -3.6782996295       26.5294628873        6.2960269866  W2        7101            0.0000000000
     19726      6576  TIP3      OH2            -3.2892496295       25.3231928873        7.5124569866  W2        7102            0.0000000000
     19727      6576  TIP3      H1             -4.0157896295       24.8434528873        7.9102169866  W2        7102            0.0000000000
     19728      6576  TIP3      H2             -2.7079196295       25.5286628873        8.2446169866  W2        7102            0.0000000000
     19729      6577  TIP3      OH2            -3.5301296295       28.1079428873       12.4602169866  W2        7103            0.0000000000
     19730      6577  TIP3      H1             -2.6967096295       27.7299428873       12.1795769866  W2        7103            0.0000000000
     19731      6577  TIP3      H2             -3.4180996295       29.0510628873       12.3411269866  W2        7103            0.0000000000
     19732      6578  TIP3      OH2            -5.0438996295       30.9856928873       14.7670569866  W2        7104            0.0000000000
     19733      6578  TIP3      H1             -5.6913696295       31.3108428873       15.3925769866  W2        7104            0.0000000000
     19734      6578  TIP3      H2             -5.5614996295       30.5454628873       14.0928869866  W2        7104            0.0000000000
     19735      6579  TIP3      OH2            -3.0209396295       25.2240428873        3.9035869866  W2        7105            0.0000000000
     19736      6579  TIP3      H1             -3.5428296295       25.5804528873        3.1846769866  W2        7105            0.0000000000
     19737      6579  TIP3      H2             -3.0540196295       25.8988228873        4.5816769866  W2        7105            0.0000000000
     19738      6580  TIP3      OH2            -4.6720396295       22.4636028873        2.4542969866  W2        7106            0.0000000000
     19739      6580  TIP3      H1             -4.5755996295       23.1303028873        1.7742669866  W2        7106            0.0000000000
     19740      6580  TIP3      H2             -4.8120796295       21.6482328873        1.9728469866  W2        7106            0.0000000000
     19741      6581  TIP3      OH2            -5.5025696295       23.8438428873        8.0753269866  W2        7107            0.0000000000
     19742      6581  TIP3      H1             -5.6526896295       22.8987028873        8.0551069866  W2        7107            0.0000000000
     19743      6581  TIP3      H2             -5.8561196295       24.1249828873        8.9192369866  W2        7107            0.0000000000
     19744      6582  TIP3      OH2           -20.4673296295       25.9220628873       12.0857069866  W2        7108            0.0000000000
     19745      6582  TIP3      H1            -20.2830396295       25.8402328873       11.1499969866  W2        7108            0.0000000000
     19746      6582  TIP3      H2            -19.6180396295       25.7977628873       12.5093469866  W2        7108            0.0000000000
     19747      6583  TIP3      OH2            -5.4246596295       19.8715828873        1.5718469866  W2        7111            0.0000000000
     19748      6583  TIP3      H1             -4.8140796295       19.5002628873        2.2086669866  W2        7111            0.0000000000
     19749      6583  TIP3      H2             -6.2615096295       19.4502728873        1.7678469866  W2        7111            0.0000000000
     19750      6584  TIP3      OH2            -5.7920896295       21.4264228873        6.5378369866  W2        7112            0.0000000000
     19751      6584  TIP3      H1             -5.5123796295       20.5194628873        6.6620069866  W2        7112            0.0000000000
     19752      6584  TIP3      H2             -5.0329196295       21.8605728873        6.1487569866  W2        7112            0.0000000000
     19753      6585  TIP3      OH2            -5.1802596295       22.0081628873       11.9737269866  W2        7113            0.0000000000
     19754      6585  TIP3      H1             -4.2474596295       22.2201528873       11.9393269866  W2        7113            0.0000000000
     19755      6585  TIP3      H2             -5.4155096295       22.1093728873       12.8960269866  W2        7113            0.0000000000
     19756      6586  TIP3      OH2            -5.1510696295       22.7446928873       14.7496669866  W2        7114            0.0000000000
     19757      6586  TIP3      H1             -5.9939396295       23.0127328873       15.1156469866  W2        7114            0.0000000000
     19758      6586  TIP3      H2             -4.7086396295       23.5668828873       14.5387769866  W2        7114            0.0000000000
     19759      6587  TIP3      OH2            -5.1786096295       18.6893528873        6.5860369866  W2        7117            0.0000000000
     19760      6587  TIP3      H1             -4.9961096295       18.2405028873        7.4115369866  W2        7117            0.0000000000
     19761      6587  TIP3      H2             -5.7783196295       18.1047928873        6.1224969866  W2        7117            0.0000000000
     19762      6588  TIP3      OH2           -19.6485996295       19.5047228873       11.1178769866  W2        7118            0.0000000000
     19763      6588  TIP3      H1            -19.2034396295       18.7129728873       11.4198469866  W2        7118            0.0000000000
     19764      6588  TIP3      H2            -19.1822996295       20.2212428873       11.5484369866  W2        7118            0.0000000000
     19765      6589  TIP3      OH2           -21.3445696295       22.5040228873       12.1868969866  W2        7119            0.0000000000
     19766      6589  TIP3      H1            -20.8525896295       22.2830728873       11.3960969866  W2        7119            0.0000000000
     19767      6589  TIP3      H2            -20.9824796295       23.3443628873       12.4678469866  W2        7119            0.0000000000
     19768      6590  TIP3      OH2            -3.3119896295       18.7571628873        3.1140669866  W2        7121            0.0000000000
     19769      6590  TIP3      H1             -2.8997296295       18.0357328873        2.6388669866  W2        7121            0.0000000000
     19770      6590  TIP3      H2             -2.6303396295       19.4266228873        3.1724969866  W2        7121            0.0000000000
     19771      6591  TIP3      OH2           -21.0309196295       18.7619328873        6.2411369866  W2        7122            0.0000000000
     19772      6591  TIP3      H1            -21.9560796295       18.9705928873        6.1116869866  W2        7122            0.0000000000
     19773      6591  TIP3      H2            -20.5769296295       19.2460128873        5.5513669866  W2        7122            0.0000000000
     19774      6592  TIP3      OH2            -6.2601996295       33.7461028873        8.1868769866  W2        7123            0.0000000000
     19775      6592  TIP3      H1             -5.6079096295       33.3983128873        7.5787869866  W2        7123            0.0000000000
     19776      6592  TIP3      H2             -5.7498196295       34.2344228873        8.8328469866  W2        7123            0.0000000000
     19777      6593  TIP3      OH2           -21.0673796295       17.4998328873       14.5853869866  W2        7124            0.0000000000
     19778      6593  TIP3      H1            -21.7323296295       17.2538628873       15.2284769866  W2        7124            0.0000000000
     19779      6593  TIP3      H2            -21.5102496295       18.1218728873       14.0081869866  W2        7124            0.0000000000
     19780      6594  TIP3      OH2           -15.9211596295       31.6493628873       14.9883669866  W2        7126            0.0000000000
     19781      6594  TIP3      H1            -16.3460496295       32.4592128873       14.7058269866  W2        7126            0.0000000000
     19782      6594  TIP3      H2            -15.0168796295       31.7347728873       14.6863469866  W2        7126            0.0000000000
     19783      6595  TIP3      OH2            -9.2649796295       34.3342528873       17.1918769866  W2        7128            0.0000000000
     19784      6595  TIP3      H1             -8.5880896295       33.7014828873       16.9517969866  W2        7128            0.0000000000
     19785      6595  TIP3      H2             -8.9430996295       34.7353028873       17.9992069866  W2        7128            0.0000000000
     19786      6596  TIP3      OH2            -4.3475996295       16.9238028873       16.2713769866  W2        7129            0.0000000000
     19787      6596  TIP3      H1             -5.1602496295       17.2488328873       15.8838469866  W2        7129            0.0000000000
     19788      6596  TIP3      H2             -4.1147496295       16.1636528873       15.7382869866  W2        7129            0.0000000000
     19789      6597  TIP3      OH2           -18.5194896295       34.9057528873       15.0358969866  W2        7130            0.0000000000
     19790      6597  TIP3      H1            -19.2398496295       35.3458528873       14.5846669866  W2        7130            0.0000000000
     19791      6597  TIP3      H2            -18.8850896295       34.6552228873       15.8842969866  W2        7130            0.0000000000
     19792      6598  TIP3      OH2           -16.0522296295       34.5061428873       14.0656169866  W2        7131            0.0000000000
     19793      6598  TIP3      H1            -16.9170096295       34.5779928873       14.4696269866  W2        7131            0.0000000000
     19794      6598  TIP3      H2            -16.1073296295       35.0528728873       13.2818669866  W2        7131            0.0000000000
     19795      6599  TIP3      OH2           -11.3416696295       34.3940328873       13.2412169866  W2        7132            0.0000000000
     19796      6599  TIP3      H1            -11.7982696295       34.9230028873       12.5870569866  W2        7132            0.0000000000
     19797      6599  TIP3      H2            -11.1788696295       34.9971728873       13.9664469866  W2        7132            0.0000000000
     19798      6600  TIP3      OH2            -9.0140396295       33.2719928873       14.1862469866  W2        7133            0.0000000000
     19799      6600  TIP3      H1             -9.9186696295       33.4370128873       13.9204569866  W2        7133            0.0000000000
     19800      6600  TIP3      H2             -8.5851796295       34.1252128873       14.1205869866  W2        7133            0.0000000000
     19801      6601  TIP3      OH2            -6.4098496295       34.8419028873       14.4810269866  W2        7134            0.0000000000
     19802      6601  TIP3      H1             -6.5916496295       35.7577928873       14.2705169866  W2        7134            0.0000000000
     19803      6601  TIP3      H2             -6.2330696295       34.4316128873       13.6344869866  W2        7134            0.0000000000
     19804      6602  TIP3      OH2           -19.1046796295       33.5290028873       11.9460769866  W2        7135            0.0000000000
     19805      6602  TIP3      H1            -19.1230796295       33.1035128873       12.8033069866  W2        7135            0.0000000000
     19806      6602  TIP3      H2            -18.2998896295       33.2105028873       11.5372969866  W2        7135            0.0000000000
     19807      6603  TIP3      OH2           -16.9633696295       32.2388728873       10.6010669866  W2        7136            0.0000000000
     19808      6603  TIP3      H1            -17.1822996295       31.3226128873       10.7706669866  W2        7136            0.0000000000
     19809      6603  TIP3      H2            -16.1391496295       32.3789128873       11.0672069866  W2        7136            0.0000000000
     19810      6604  TIP3      OH2           -14.4261196295       32.7088028873       11.4498669866  W2        7137            0.0000000000
     19811      6604  TIP3      H1            -14.2135496295       31.8207028873       11.1629569866  W2        7137            0.0000000000
     19812      6604  TIP3      H2            -14.3616096295       32.6745728873       12.4042669866  W2        7137            0.0000000000
     19813      6605  TIP3      OH2           -10.9177496295       18.3728628873       10.5941969866  W2        7138            0.0000000000
     19814      6605  TIP3      H1            -11.5920696295       17.7434228873       10.8497769866  W2        7138            0.0000000000
     19815      6605  TIP3      H2            -10.3538296295       17.8887528873        9.9909869866  W2        7138            0.0000000000
     19816      6606  TIP3      OH2            -5.7750296295       16.4802628873       10.7069069866  W2        7139            0.0000000000
     19817      6606  TIP3      H1             -5.1712696295       17.0278028873       10.2050069866  W2        7139            0.0000000000
     19818      6606  TIP3      H2             -6.6448296295       16.7993028873       10.4663169866  W2        7139            0.0000000000
     19819      6607  TIP3      OH2            -4.0479896295       17.6191328873        9.0399969866  W2        7140            0.0000000000
     19820      6607  TIP3      H1             -3.4362396295       17.1047028873        8.5133569866  W2        7140            0.0000000000
     19821      6607  TIP3      H2             -3.6656496295       18.4963428873        9.0634369866  W2        7140            0.0000000000
     19822      6608  TIP3      OH2           -18.5909996295       17.0068928873        8.4161869866  W2        7141            0.0000000000
     19823      6608  TIP3      H1            -19.3680196295       16.7723828873        7.9087769866  W2        7141            0.0000000000
     19824      6608  TIP3      H2            -18.0606396295       16.2101028873        8.4249869866  W2        7141            0.0000000000
     19825      6609  TIP3      OH2           -19.7546596295       16.8047028873        4.2197969866  W2        7142            0.0000000000
     19826      6609  TIP3      H1            -19.3155896295       17.4157528873        3.6281469866  W2        7142            0.0000000000
     19827      6609  TIP3      H2            -20.3884196295       17.3431128873        4.6937969866  W2        7142            0.0000000000
     19828      6610  TIP3      OH2           -14.0117396295       16.9336028873        8.2294969866  W2        7143            0.0000000000
     19829      6610  TIP3      H1            -13.1373996295       17.3220328873        8.1999269866  W2        7143            0.0000000000
     19830      6610  TIP3      H2            -14.1476596295       16.7183828873        9.1522169866  W2        7143            0.0000000000
     19831      6611  TIP3      OH2            -8.4548996295       16.9635828873        9.8786669866  W2        7144            0.0000000000
     19832      6611  TIP3      H1             -8.3787396295       17.0587428873        8.9292669866  W2        7144            0.0000000000
     19833      6611  TIP3      H2             -8.7299796295       16.0558728873       10.0075769866  W2        7144            0.0000000000
     19834      6612  TIP3      OH2            -7.1016396295       16.9893628873        5.5711669866  W2        7145            0.0000000000
     19835      6612  TIP3      H1             -7.8045296295       17.6042828873        5.3613069866  W2        7145            0.0000000000
     19836      6612  TIP3      H2             -7.5464996295       16.1520328873        5.7022569866  W2        7145            0.0000000000
     19837      6613  TIP3      OH2           -19.8537096295       32.7529228873        5.1173069866  W2        7146            0.0000000000
     19838      6613  TIP3      H1            -20.5387196295       32.7148128873        4.4498169866  W2        7146            0.0000000000
     19839      6613  TIP3      H2            -19.8499896295       33.6656828873        5.4055169866  W2        7146            0.0000000000
     19840      6614  TIP3      OH2           -17.8937496295       18.7208528873        2.6622069866  W2        7147            0.0000000000
     19841      6614  TIP3      H1            -17.4024096295       18.0910928873        2.1347569866  W2        7147            0.0000000000
     19842      6614  TIP3      H2            -17.2701196295       19.0167928873        3.3253269866  W2        7147            0.0000000000
     19843      6615  TIP3      OH2           -12.8677396295       19.0140028873        5.1192569866  W2        7148            0.0000000000
     19844      6615  TIP3      H1            -12.6896096295       18.3673228873        5.8021169866  W2        7148            0.0000000000
     19845      6615  TIP3      H2            -12.9211196295       19.8477728873        5.5863669866  W2        7148            0.0000000000
     19846      6616  TIP3      OH2           -10.9893596295       33.9624128873        3.5149269866  W2        7149            0.0000000000
     19847      6616  TIP3      H1            -10.1233396295       34.3291528873        3.3367469866  W2        7149            0.0000000000
     19848      6616  TIP3      H2            -11.2360796295       33.5232128873        2.7010069866  W2        7149            0.0000000000
     19849      6617  TIP3      OH2            -4.2803996295       33.5254428873        6.1940369866  W2        7150            0.0000000000
     19850      6617  TIP3      H1             -4.4746896295       32.7776528873        5.6289969866  W2        7150            0.0000000000
     19851      6617  TIP3      H2             -4.3193896295       34.2834528873        5.6108269866  W2        7150            0.0000000000
     19852      6618  TIP3      OH2           -18.0355896295       33.6730028873        2.1425169866  W2        7153            0.0000000000
     19853      6618  TIP3      H1            -18.3031296295       33.9592928873        3.0158269866  W2        7153            0.0000000000
     19854      6618  TIP3      H2            -17.2643296295       33.1269228873        2.2947669866  W2        7153            0.0000000000
     19855      6619  TIP3      OH2             9.3432603705       26.1631228873        8.3749369866  W2        7156            0.0000000000
     19856      6619  TIP3      H1              9.4323703705       27.1069428873        8.2426469866  W2        7156            0.0000000000
     19857      6619  TIP3      H2              8.7050203705       25.8877628873        7.7168769866  W2        7156            0.0000000000
     19858      6620  TIP3      OH2             8.2763903705       25.4181928873       11.7937569866  W2        7157            0.0000000000
     19859      6620  TIP3      H1              8.2381403705       24.7718228873       12.4987169866  W2        7157            0.0000000000
     19860      6620  TIP3      H2              7.9540403705       24.9516328873       11.0226269866  W2        7157            0.0000000000
     19861      6621  TIP3      OH2             0.6448903705       25.0324028873       13.3867469866  W2        7158            0.0000000000
     19862      6621  TIP3      H1              0.6861003705       24.4067328873       14.1099869866  W2        7158            0.0000000000
     19863      6621  TIP3      H2              1.3476603705       25.6562628873       13.5687869866  W2        7158            0.0000000000
     19864      6622  TIP3      OH2            11.9824103705       28.3572328873       10.0952669866  W2        7159            0.0000000000
     19865      6622  TIP3      H1             11.5416803705       27.6368328873       10.5458269866  W2        7159            0.0000000000
     19866      6622  TIP3      H2             11.9693803705       29.0779528873       10.7250369866  W2        7159            0.0000000000
     19867      6623  TIP3      OH2             1.5682003705       29.4822928873       11.9216569866  W2        7160            0.0000000000
     19868      6623  TIP3      H1              1.1987203705       28.6803428873       11.5520869866  W2        7160            0.0000000000
     19869      6623  TIP3      H2              2.5093103705       29.3137828873       11.9679969866  W2        7160            0.0000000000
     19870      6624  TIP3      OH2            -1.8217496295       23.1425528873        7.3145369866  W2        7161            0.0000000000
     19871      6624  TIP3      H1             -2.2694096295       23.9884228873        7.2961869866  W2        7161            0.0000000000
     19872      6624  TIP3      H2             -2.3826296295       22.5629728873        6.7990469866  W2        7161            0.0000000000
     19873      6625  TIP3      OH2            -1.1111396295       25.3045128873        9.4403369866  W2        7162            0.0000000000
     19874      6625  TIP3      H1             -0.8977896295       24.5346728873        9.9676369866  W2        7162            0.0000000000
     19875      6625  TIP3      H2             -0.3733796295       25.3941828873        8.8370969866  W2        7162            0.0000000000
     19876      6626  TIP3      OH2             9.0939603705       33.4614028873       10.3073069866  W2        7163            0.0000000000
     19877      6626  TIP3      H1              9.7136003705       32.7848728873       10.0342269866  W2        7163            0.0000000000
     19878      6626  TIP3      H2              8.8857003705       33.2434828873       11.2157969866  W2        7163            0.0000000000
     19879      6627  TIP3      OH2             6.6658303705       27.8503328873       12.1998569866  W2        7164            0.0000000000
     19880      6627  TIP3      H1              6.9696203705       27.1644728873       11.6052669866  W2        7164            0.0000000000
     19881      6627  TIP3      H2              7.3872303705       27.9692028873       12.8176569866  W2        7164            0.0000000000
     19882      6628  TIP3      OH2            15.3288103705       19.4518628873       13.0604769866  W2        7165            0.0000000000
     19883      6628  TIP3      H1             15.3780303705       20.0619828873       13.7963869866  W2        7165            0.0000000000
     19884      6628  TIP3      H2             15.7543203705       19.9129528873       12.3375869866  W2        7165            0.0000000000
     19885      6629  TIP3      OH2             9.8065303705       22.2445728873       12.5273369866  W2        7166            0.0000000000
     19886      6629  TIP3      H1              9.9491203705       21.2982728873       12.5474969866  W2        7166            0.0000000000
     19887      6629  TIP3      H2              9.7004303705       22.4515528873       11.5988269866  W2        7166            0.0000000000
     19888      6630  TIP3      OH2             2.9613603705       20.3462128873        9.7998169866  W2        7167            0.0000000000
     19889      6630  TIP3      H1              3.0044703705       21.2060628873        9.3814469866  W2        7167            0.0000000000
     19890      6630  TIP3      H2              2.5037703705       19.7936828873        9.1661369866  W2        7167            0.0000000000
     19891      6631  TIP3      OH2            10.6836303705       20.4767728873        8.2006469866  W2        7168            0.0000000000
     19892      6631  TIP3      H1             11.3300603705       20.1480928873        8.8254069866  W2        7168            0.0000000000
     19893      6631  TIP3      H2             11.1935703705       20.9946728873        7.5777869866  W2        7168            0.0000000000
     19894      6632  TIP3      OH2            -0.4184896295       22.7427928873       10.5619569866  W2        7169            0.0000000000
     19895      6632  TIP3      H1              0.2351703705       22.1929628873       10.9939669866  W2        7169            0.0000000000
     19896      6632  TIP3      H2             -0.3945596295       22.4686928873        9.6451569866  W2        7169            0.0000000000
     19897      6633  TIP3      OH2             4.7379603705       24.2929228873        9.7771069866  W2        7170            0.0000000000
     19898      6633  TIP3      H1              5.3540603705       23.7664628873       10.2865069866  W2        7170            0.0000000000
     19899      6633  TIP3      H2              4.1518403705       23.6527928873        9.3734669866  W2        7170            0.0000000000
     19900      6634  TIP3      OH2            15.7202703705       20.9297828873       15.2964569866  W2        7171            0.0000000000
     19901      6634  TIP3      H1             15.0317303705       21.5878528873       15.2011169866  W2        7171            0.0000000000
     19902      6634  TIP3      H2             15.7357303705       20.7325728873       16.2329969866  W2        7171            0.0000000000
     19903      6635  TIP3      OH2             1.7715503705       19.2640528873       13.8738969866  W2        7172            0.0000000000
     19904      6635  TIP3      H1              1.5527203705       19.7941128873       13.1074969866  W2        7172            0.0000000000
     19905      6635  TIP3      H2              1.1036403705       19.4906028873       14.5210369866  W2        7172            0.0000000000
     19906      6636  TIP3      OH2             9.1405303705       28.7641628873        7.4178069866  W2        7173            0.0000000000
     19907      6636  TIP3      H1              8.8450403705       28.4413928873        6.5664969866  W2        7173            0.0000000000
     19908      6636  TIP3      H2              8.8163103705       29.6638328873        7.4590669866  W2        7173            0.0000000000
     19909      6637  TIP3      OH2             4.3406903705       26.9396228873       14.1612669866  W2        7174            0.0000000000
     19910      6637  TIP3      H1              3.6006003705       27.5377728873       14.2647869866  W2        7174            0.0000000000
     19911      6637  TIP3      H2              5.0546403705       27.4935828873       13.8456269866  W2        7174            0.0000000000
     19912      6638  TIP3      OH2            12.4474703705       19.7677028873       10.1812369866  W2        7175            0.0000000000
     19913      6638  TIP3      H1             12.2322703705       19.0020428873       10.7138369866  W2        7175            0.0000000000
     19914      6638  TIP3      H2             13.1032103705       20.2401628873       10.6940869866  W2        7175            0.0000000000
     19915      6639  TIP3      OH2             1.3652803705       21.1562328873       11.8261169866  W2        7176            0.0000000000
     19916      6639  TIP3      H1              1.9789103705       21.7889928873       12.1993569866  W2        7176            0.0000000000
     19917      6639  TIP3      H2              1.8773503705       20.6837328873       11.1698069866  W2        7176            0.0000000000
     19918      6640  TIP3      OH2             2.7481203705       28.9039228873       14.9484169866  W2        7177            0.0000000000
     19919      6640  TIP3      H1              2.7428803705       29.7832728873       14.5703469866  W2        7177            0.0000000000
     19920      6640  TIP3      H2              1.8945303705       28.8203328873       15.3734069866  W2        7177            0.0000000000
     19921      6641  TIP3      OH2            -1.1307896295       28.5747128873        5.7303469866  W2        7178            0.0000000000
     19922      6641  TIP3      H1             -1.4026996295       28.8038128873        4.8416369866  W2        7178            0.0000000000
     19923      6641  TIP3      H2             -1.0852196295       29.4125928873        6.1908769866  W2        7178            0.0000000000
     19924      6642  TIP3      OH2            12.4941803705       30.1963028873       12.4431969866  W2        7179            0.0000000000
     19925      6642  TIP3      H1             11.5525503705       30.2546928873       12.6048869866  W2        7179            0.0000000000
     19926      6642  TIP3      H2             12.7707903705       31.1023528873       12.3061669866  W2        7179            0.0000000000
     19927      6643  TIP3      OH2            12.7948803705       18.4828328873       13.8605869866  W2        7180            0.0000000000
     19928      6643  TIP3      H1             12.0588003705       19.0935428873       13.8227169866  W2        7180            0.0000000000
     19929      6643  TIP3      H2             13.4782803705       18.8977328873       13.3342269866  W2        7180            0.0000000000
     19930      6644  TIP3      OH2             5.7980203705       16.5695628873       11.3263869866  W2        7181            0.0000000000
     19931      6644  TIP3      H1              5.6804403705       15.6211628873       11.2722169866  W2        7181            0.0000000000
     19932      6644  TIP3      H2              4.9430303705       16.9021728873       11.5994969866  W2        7181            0.0000000000
     19933      6645  TIP3      OH2            10.7463003705       31.9776528873        9.0683569866  W2        7182            0.0000000000
     19934      6645  TIP3      H1             11.1715303705       31.2704428873        8.5833169866  W2        7182            0.0000000000
     19935      6645  TIP3      H2             11.0633003705       32.7789228873        8.6515769866  W2        7182            0.0000000000
     19936      6646  TIP3      OH2            11.9059503705       29.8785028873        7.5770169866  W2        7183            0.0000000000
     19937      6646  TIP3      H1             11.6484303705       29.1885128873        6.9656069866  W2        7183            0.0000000000
     19938      6646  TIP3      H2             11.9770303705       29.4356228873        8.4226069866  W2        7183            0.0000000000
     19939      6647  TIP3      OH2            13.5919703705       28.4451728873       16.0543669866  W2        7184            0.0000000000
     19940      6647  TIP3      H1             13.7316003705       27.8534228873       15.3150669866  W2        7184            0.0000000000
     19941      6647  TIP3      H2             13.7592503705       29.3177628873       15.6982469866  W2        7184            0.0000000000
     19942      6648  TIP3      OH2             8.0645103705       25.4071228873        5.8269669866  W2        7185            0.0000000000
     19943      6648  TIP3      H1              7.3530603705       25.9420928873        5.4750169866  W2        7185            0.0000000000
     19944      6648  TIP3      H2              8.7554703705       25.4623328873        5.1668569866  W2        7185            0.0000000000
     19945      6649  TIP3      OH2             8.1184303705       23.8645528873        2.8654669866  W2        7186            0.0000000000
     19946      6649  TIP3      H1              8.8194203705       23.8872428873        3.5168669866  W2        7186            0.0000000000
     19947      6649  TIP3      H2              8.4207203705       23.2365228873        2.2093969866  W2        7186            0.0000000000
     19948      6650  TIP3      OH2            15.4339003705       24.7849728873       14.1204069866  W2        7187            0.0000000000
     19949      6650  TIP3      H1             14.7813103705       25.4795328873       14.2094969866  W2        7187            0.0000000000
     19950      6650  TIP3      H2             15.8989303705       24.9950628873       13.3105669866  W2        7187            0.0000000000
     19951      6651  TIP3      OH2            11.4702803705       25.6164528873        6.7785569866  W2        7188            0.0000000000
     19952      6651  TIP3      H1             10.7383803705       25.8448228873        7.3516169866  W2        7188            0.0000000000
     19953      6651  TIP3      H2             11.9175003705       24.9027228873        7.2333069866  W2        7188            0.0000000000
     19954      6652  TIP3      OH2            11.3676303705       23.7907128873       15.8462569866  W2        7189            0.0000000000
     19955      6652  TIP3      H1             11.4475403705       24.5541528873       16.4181069866  W2        7189            0.0000000000
     19956      6652  TIP3      H2             10.7664003705       24.0699528873       15.1557669866  W2        7189            0.0000000000
     19957      6653  TIP3      OH2             3.1156503705       26.2470728873        8.6610569866  W2        7190            0.0000000000
     19958      6653  TIP3      H1              2.7851703705       25.8764128873        7.8427569866  W2        7190            0.0000000000
     19959      6653  TIP3      H2              3.7040603705       25.5764728873        9.0078869866  W2        7190            0.0000000000
     19960      6654  TIP3      OH2             4.4824003705       29.6751328873       11.3422769866  W2        7191            0.0000000000
     19961      6654  TIP3      H1              4.3875303705       29.0964428873       10.5857369866  W2        7191            0.0000000000
     19962      6654  TIP3      H2              5.2117603705       29.3037028873       11.8385569866  W2        7191            0.0000000000
     19963      6655  TIP3      OH2             3.4822003705       25.0156328873       12.2945569866  W2        7192            0.0000000000
     19964      6655  TIP3      H1              4.0474503705       25.1370528873       11.5316769866  W2        7192            0.0000000000
     19965      6655  TIP3      H2              3.8010903705       25.6531328873       12.9334069866  W2        7192            0.0000000000
     19966      6656  TIP3      OH2             9.7914203705       30.5188228873       13.0286069866  W2        7193            0.0000000000
     19967      6656  TIP3      H1              9.5510803705       31.1811328873       13.6765269866  W2        7193            0.0000000000
     19968      6656  TIP3      H2              9.5932403705       29.6843428873       13.4535669866  W2        7193            0.0000000000
     19969      6657  TIP3      OH2             4.3622703705       29.4149028873       17.0117469866  W2        7194            0.0000000000
     19970      6657  TIP3      H1              4.0510203705       30.1972228873       17.4670669866  W2        7194            0.0000000000
     19971      6657  TIP3      H2              3.7122903705       29.2618128873       16.3259469866  W2        7194            0.0000000000
     19972      6658  TIP3      OH2            10.3412303705       24.7787428873        4.4636769866  W2        7195            0.0000000000
     19973      6658  TIP3      H1             10.9207803705       24.9287728873        5.2105669866  W2        7195            0.0000000000
     19974      6658  TIP3      H2             10.7552303705       25.2494828873        3.7403169866  W2        7195            0.0000000000
     19975      6659  TIP3      OH2             1.2822603705       25.6130128873       16.2403169866  W2        7196            0.0000000000
     19976      6659  TIP3      H1              1.3525803705       26.2636928873       16.9388169866  W2        7196            0.0000000000
     19977      6659  TIP3      H2              0.3914803705       25.7157628873       15.9054069866  W2        7196            0.0000000000
     19978      6660  TIP3      OH2             8.0677203705       31.5155928873        7.8989869866  W2        7197            0.0000000000
     19979      6660  TIP3      H1              8.5414803705       31.8112228873        8.6764069866  W2        7197            0.0000000000
     19980      6660  TIP3      H2              7.5046503705       32.2537528873        7.6659469866  W2        7197            0.0000000000
     19981      6661  TIP3      OH2            14.0400703705       16.5287828873        4.2766469866  W2        7199            0.0000000000
     19982      6661  TIP3      H1             13.1401403705       16.6676828873        4.5717069866  W2        7199            0.0000000000
     19983      6661  TIP3      H2             14.2919103705       17.3602428873        3.8748169866  W2        7199            0.0000000000
     19984      6662  TIP3      OH2             2.1059203705       25.3165028873        6.2503369866  W2        7200            0.0000000000
     19985      6662  TIP3      H1              1.8140503705       26.0846728873        5.7594669866  W2        7200            0.0000000000
     19986      6662  TIP3      H2              1.4314403705       24.6571228873        6.0874769866  W2        7200            0.0000000000
     19987      6663  TIP3      OH2            15.2292103705       30.8950228873        2.6530369866  W2        7201            0.0000000000
     19988      6663  TIP3      H1             15.3025603705       31.8340428873        2.8235669866  W2        7201            0.0000000000
     19989      6663  TIP3      H2             16.1347203705       30.5898828873        2.5967669866  W2        7201            0.0000000000
     19990      6664  TIP3      OH2            -1.8010696295       27.6794228873       15.0653169866  W2        7202            0.0000000000
     19991      6664  TIP3      H1             -2.3022296295       27.6513628873       14.2502869866  W2        7202            0.0000000000
     19992      6664  TIP3      H2             -1.7956996295       26.7737428873       15.3750469866  W2        7202            0.0000000000
     19993      6665  TIP3      OH2            -2.0507996295       30.4598028873       11.9493369866  W2        7203            0.0000000000
     19994      6665  TIP3      H1             -1.1047396295       30.3155028873       11.9302869866  W2        7203            0.0000000000
     19995      6665  TIP3      H2             -2.1631696295       31.2440828873       12.4864569866  W2        7203            0.0000000000
     19996      6666  TIP3      OH2             7.1254503705       30.6996928873       16.5078469866  W2        7205            0.0000000000
     19997      6666  TIP3      H1              7.2129103705       31.5261528873       16.9827569866  W2        7205            0.0000000000
     19998      6666  TIP3      H2              6.2619603705       30.3700728873       16.7567769866  W2        7205            0.0000000000
     19999      6667  TIP3      OH2             7.5400303705       34.4720628873        6.3139069866  W2        7206            0.0000000000
     20000      6667  TIP3      H1              7.4646303705       34.3507828873        5.3674269866  W2        7206            0.0000000000
     20001      6667  TIP3      H2              7.5729003705       35.4213328873        6.4323669866  W2        7206            0.0000000000
     20002      6668  TIP3      OH2             1.1934103705       33.2607628873        8.0948069866  W2        7207            0.0000000000
     20003      6668  TIP3      H1              1.3454503705       32.9128028873        8.9734569866  W2        7207            0.0000000000
     20004      6668  TIP3      H2              0.3424503705       32.9044928873        7.8395269866  W2        7207            0.0000000000
     20005      6669  TIP3      OH2            10.6416303705       33.6260828873        3.3161469866  W2        7208            0.0000000000
     20006      6669  TIP3      H1             11.0164703705       32.8816928873        2.8454069866  W2        7208            0.0000000000
     20007      6669  TIP3      H2             10.6460003705       33.3561428873        4.2344769866  W2        7208            0.0000000000
     20008      6670  TIP3      OH2            10.3104403705       33.5517928873        6.0653669866  W2        7209            0.0000000000
     20009      6670  TIP3      H1              9.3754203705       33.6519828873        6.2440669866  W2        7209            0.0000000000
     20010      6670  TIP3      H2             10.5906303705       32.8423928873        6.6436869866  W2        7209            0.0000000000
     20011      6671  TIP3      OH2             0.4479803705       29.0029628873       16.1085969866  W2        7211            0.0000000000
     20012      6671  TIP3      H1              0.6641103705       28.6415228873       16.9681769866  W2        7211            0.0000000000
     20013      6671  TIP3      H2             -0.4075496295       28.6283428873       15.8989469866  W2        7211            0.0000000000
     20014      6672  TIP3      OH2             3.0667803705       17.4730128873       12.1040169866  W2        7212            0.0000000000
     20015      6672  TIP3      H1              2.2051503705       17.3858328873       11.6963069866  W2        7212            0.0000000000
     20016      6672  TIP3      H2              3.0443503705       18.3290228873       12.5317769866  W2        7212            0.0000000000
     20017      6673  TIP3      OH2             7.7295603705       17.1950528873       15.4787169866  W2        7213            0.0000000000
     20018      6673  TIP3      H1              8.1498703705       16.7797628873       16.2317769866  W2        7213            0.0000000000
     20019      6673  TIP3      H2              6.7965203705       17.0163828873       15.5959169866  W2        7213            0.0000000000
     20020      6674  TIP3      OH2            11.0560503705       20.9505728873       16.3321669866  W2        7214            0.0000000000
     20021      6674  TIP3      H1             10.5420003705       20.8247928873       17.1297669866  W2        7214            0.0000000000
     20022      6674  TIP3      H2             10.9005203705       21.8628828873       16.0877869866  W2        7214            0.0000000000
     20023      6675  TIP3      OH2            11.8185403705       25.8115728873        2.0934669866  W2        7215            0.0000000000
     20024      6675  TIP3      H1             11.8606203705       25.5889628873        1.1634669866  W2        7215            0.0000000000
     20025      6675  TIP3      H2             12.6677503705       26.2102828873        2.2834569866  W2        7215            0.0000000000
     20026      6676  TIP3      OH2             7.3912903705       19.6873928873        2.7637969866  W2        7216            0.0000000000
     20027      6676  TIP3      H1              7.1377703705       19.7065528873        3.6866069866  W2        7216            0.0000000000
     20028      6676  TIP3      H2              7.1345003705       18.8159328873        2.4624169866  W2        7216            0.0000000000
     20029      6677  TIP3      OH2             3.1577903705       22.4384628873       13.1990369866  W2        7217            0.0000000000
     20030      6677  TIP3      H1              2.5160003705       22.3981928873       13.9080469866  W2        7217            0.0000000000
     20031      6677  TIP3      H2              3.1949903705       23.3649328873       12.9613369866  W2        7217            0.0000000000
     20032      6678  TIP3      OH2             3.1547003705       22.6594728873        8.1110369866  W2        7218            0.0000000000
     20033      6678  TIP3      H1              2.2619903705       22.3190828873        8.0524169866  W2        7218            0.0000000000
     20034      6678  TIP3      H2              3.6053603705       22.2825628873        7.3553569866  W2        7218            0.0000000000
     20035      6679  TIP3      OH2             8.6902503705       23.0755028873        6.9281169866  W2        7219            0.0000000000
     20036      6679  TIP3      H1              8.2812803705       23.8903628873        6.6365969866  W2        7219            0.0000000000
     20037      6679  TIP3      H2              9.4108703705       22.9355128873        6.3138269866  W2        7219            0.0000000000
     20038      6680  TIP3      OH2             9.6950203705       22.5215428873        9.7420869866  W2        7221            0.0000000000
     20039      6680  TIP3      H1              9.4994703705       23.1272228873        9.0271469866  W2        7221            0.0000000000
     20040      6680  TIP3      H2              9.8762803705       21.6880628873        9.3077169866  W2        7221            0.0000000000
     20041      6681  TIP3      OH2             0.9078403705       22.7588128873       15.0662369866  W2        7222            0.0000000000
     20042      6681  TIP3      H1              0.8697803705       23.1589728873       15.9349469866  W2        7222            0.0000000000
     20043      6681  TIP3      H2              0.4169503705       21.9420528873       15.1565269866  W2        7222            0.0000000000
     20044      6682  TIP3      OH2             4.2735803705       20.1330428873        1.8648369866  W2        7223            0.0000000000
     20045      6682  TIP3      H1              3.8426503705       19.6880528873        2.5945769866  W2        7223            0.0000000000
     20046      6682  TIP3      H2              3.5554503705       20.5046728873        1.3525869866  W2        7223            0.0000000000
     20047      6683  TIP3      OH2            -2.4840796295       19.8749928873        8.9167069866  W2        7224            0.0000000000
     20048      6683  TIP3      H1             -1.8533096295       19.8462028873        9.6360969866  W2        7224            0.0000000000
     20049      6683  TIP3      H2             -2.0346496295       19.4498628873        8.1862969866  W2        7224            0.0000000000
     20050      6684  TIP3      OH2            -1.2098696295       20.6211928873        4.3407469866  W2        7225            0.0000000000
     20051      6684  TIP3      H1             -0.7356996295       21.2121828873        3.7558369866  W2        7225            0.0000000000
     20052      6684  TIP3      H2             -1.9272296295       21.1514828873        4.6877569866  W2        7225            0.0000000000
     20053      6685  TIP3      OH2             8.9589403705       24.1596728873       14.4133269866  W2        7226            0.0000000000
     20054      6685  TIP3      H1              9.2824203705       23.5286428873       13.7703769866  W2        7226            0.0000000000
     20055      6685  TIP3      H2              8.5188703705       23.6248928873       15.0740669866  W2        7226            0.0000000000
     20056      6686  TIP3      OH2             5.7362303705       20.0872228873        9.1974469866  W2        7227            0.0000000000
     20057      6686  TIP3      H1              4.8253403705       20.1439028873        9.4860469866  W2        7227            0.0000000000
     20058      6686  TIP3      H2              6.2415203705       20.0267728873       10.0081669866  W2        7227            0.0000000000
     20059      6687  TIP3      OH2             0.5645703705       21.7158528873        8.0242069866  W2        7228            0.0000000000
     20060      6687  TIP3      H1             -0.3246296295       21.8154028873        7.6841669866  W2        7228            0.0000000000
     20061      6687  TIP3      H2              0.8610603705       20.8741528873        7.6779969866  W2        7228            0.0000000000
     20062      6688  TIP3      OH2             4.2177503705       21.7161128873        5.6806669866  W2        7229            0.0000000000
     20063      6688  TIP3      H1              5.1493003705       21.8451128873        5.8589769866  W2        7229            0.0000000000
     20064      6688  TIP3      H2              4.0027803705       22.3855428873        5.0311369866  W2        7229            0.0000000000
     20065      6689  TIP3      OH2            10.1414203705       19.3218528873       12.4616269866  W2        7230            0.0000000000
     20066      6689  TIP3      H1              9.4645803705       19.4531628873       13.1255969866  W2        7230            0.0000000000
     20067      6689  TIP3      H2              9.6559103705       19.1668028873       11.6513969866  W2        7230            0.0000000000
     20068      6690  TIP3      OH2             2.8917703705       22.9103328873        3.2472769866  W2        7231            0.0000000000
     20069      6690  TIP3      H1              2.3492803705       22.5307128873        2.5560369866  W2        7231            0.0000000000
     20070      6690  TIP3      H2              3.7252603705       23.1048028873        2.8186869866  W2        7231            0.0000000000
     20071      6691  TIP3      OH2             7.0562003705       22.8745228873       11.0844069866  W2        7234            0.0000000000
     20072      6691  TIP3      H1              7.6205403705       22.3281828873       10.5373669866  W2        7234            0.0000000000
     20073      6691  TIP3      H2              6.9085403705       22.3527128873       11.8731669866  W2        7234            0.0000000000
     20074      6692  TIP3      OH2             2.0581703705       19.0111328873        7.5028869866  W2        7235            0.0000000000
     20075      6692  TIP3      H1              1.7411203705       18.1086628873        7.4674269866  W2        7235            0.0000000000
     20076      6692  TIP3      H2              2.8395803705       19.0128728873        6.9500469866  W2        7235            0.0000000000
     20077      6693  TIP3      OH2             5.6827903705       21.2631328873       13.4984469866  W2        7236            0.0000000000
     20078      6693  TIP3      H1              4.8473203705       21.7170828873       13.6086869866  W2        7236            0.0000000000
     20079      6693  TIP3      H2              6.2068503705       21.5389828873       14.2504369866  W2        7236            0.0000000000
     20080      6694  TIP3      OH2             6.2270503705       27.4759028873        5.1830869866  W2        7237            0.0000000000
     20081      6694  TIP3      H1              5.4821503705       26.9684328873        4.8608769866  W2        7237            0.0000000000
     20082      6694  TIP3      H2              6.0927703705       27.5247028873        6.1295669866  W2        7237            0.0000000000
     20083      6695  TIP3      OH2            13.3769403705       26.6087228873       13.9698469866  W2        7238            0.0000000000
     20084      6695  TIP3      H1             14.0188203705       27.0653528873       13.4260669866  W2        7238            0.0000000000
     20085      6695  TIP3      H2             12.5466303705       26.7219628873       13.5072569866  W2        7238            0.0000000000
     20086      6696  TIP3      OH2            10.1247303705       20.2898928873        3.3823469866  W2        7239            0.0000000000
     20087      6696  TIP3      H1              9.1861503705       20.4014528873        3.2312269866  W2        7239            0.0000000000
     20088      6696  TIP3      H2             10.4219403705       21.1465828873        3.6889169866  W2        7239            0.0000000000
     20089      6697  TIP3      OH2             7.7462603705       27.6602328873       16.4199969866  W2        7240            0.0000000000
     20090      6697  TIP3      H1              7.4008703705       27.2784728873       17.2269569866  W2        7240            0.0000000000
     20091      6697  TIP3      H2              7.5462703705       28.5935928873       16.4912869866  W2        7240            0.0000000000
     20092      6698  TIP3      OH2            10.8430803705       22.1571628873        5.0430869866  W2        7241            0.0000000000
     20093      6698  TIP3      H1             11.7349803705       22.0196628873        5.3622069866  W2        7241            0.0000000000
     20094      6698  TIP3      H2             10.8994403705       22.9477728873        4.5064369866  W2        7241            0.0000000000
     20095      6699  TIP3      OH2             1.3518803705       26.7709028873       10.9528769866  W2        7242            0.0000000000
     20096      6699  TIP3      H1              2.0966003705       26.7684728873       10.3515269866  W2        7242            0.0000000000
     20097      6699  TIP3      H2              1.4295403705       25.9472828873       11.4343869866  W2        7242            0.0000000000
     20098      6700  TIP3      OH2             8.3524603705       28.9343328873        4.2085469866  W2        7243            0.0000000000
     20099      6700  TIP3      H1              8.0573003705       29.7611228873        4.5900269866  W2        7243            0.0000000000
     20100      6700  TIP3      H2              7.6494603705       28.3150228873        4.4046869866  W2        7243            0.0000000000
     20101      6701  TIP3      OH2            -1.6401496295       25.2315928873       16.2677269866  W2        7244            0.0000000000
     20102      6701  TIP3      H1             -1.4172896295       24.8135528873       17.0994769866  W2        7244            0.0000000000
     20103      6701  TIP3      H2             -2.2421396295       24.6190928873       15.8450069866  W2        7244            0.0000000000
     20104      6702  TIP3      OH2             9.9966203705       30.1217828873       16.3704969866  W2        7246            0.0000000000
     20105      6702  TIP3      H1              9.0960503705       30.3050428873       16.1028869866  W2        7246            0.0000000000
     20106      6702  TIP3      H2             10.0307303705       30.3807128873       17.2913769866  W2        7246            0.0000000000
     20107      6703  TIP3      OH2            15.7279503705       22.3665728873        4.7377569866  W2        7247            0.0000000000
     20108      6703  TIP3      H1             15.1735803705       21.9703728873        4.0655069866  W2        7247            0.0000000000
     20109      6703  TIP3      H2             15.8283103705       23.2770928873        4.4600869866  W2        7247            0.0000000000
     20110      6704  TIP3      OH2            14.0231203705       31.1526128873        5.2029669866  W2        7249            0.0000000000
     20111      6704  TIP3      H1             13.6502303705       30.3269928873        5.5120269866  W2        7249            0.0000000000
     20112      6704  TIP3      H2             14.3004703705       30.9695528873        4.3053069866  W2        7249            0.0000000000
     20113      6705  TIP3      OH2            11.1835103705       25.9605628873       12.2241569866  W2        7250            0.0000000000
     20114      6705  TIP3      H1             10.2552003705       25.7287528873       12.1970869866  W2        7250            0.0000000000
     20115      6705  TIP3      H2             11.6346203705       25.1835428873       11.8940369866  W2        7250            0.0000000000
     20116      6706  TIP3      OH2             3.7268203705       30.2887228873        8.3570269866  W2        7251            0.0000000000
     20117      6706  TIP3      H1              4.2540403705       31.0621628873        8.1569069866  W2        7251            0.0000000000
     20118      6706  TIP3      H2              2.8466703705       30.5136428873        8.0554269866  W2        7251            0.0000000000
     20119      6707  TIP3      OH2            -0.5184096295       25.1511328873        2.9442669866  W2        7252            0.0000000000
     20120      6707  TIP3      H1              0.0975803705       25.7778528873        3.3237469866  W2        7252            0.0000000000
     20121      6707  TIP3      H2             -1.3801496295       25.4671128873        3.2159169866  W2        7252            0.0000000000
     20122      6708  TIP3      OH2             5.1540503705       27.9517128873        7.9334569866  W2        7253            0.0000000000
     20123      6708  TIP3      H1              4.9130503705       28.8771528873        7.9749869866  W2        7253            0.0000000000
     20124      6708  TIP3      H2              4.4134103705       27.4928428873        8.3298469866  W2        7253            0.0000000000
     20125      6709  TIP3      OH2             5.6687103705       32.1010728873       14.2485669866  W2        7254            0.0000000000
     20126      6709  TIP3      H1              6.0311803705       32.9556328873       14.0150069866  W2        7254            0.0000000000
     20127      6709  TIP3      H2              6.2002303705       31.8092328873       14.9891969866  W2        7254            0.0000000000
     20128      6710  TIP3      OH2             3.8371303705       32.9734728873        7.4786769866  W2        7255            0.0000000000
     20129      6710  TIP3      H1              2.8871803705       33.0792128873        7.5300069866  W2        7255            0.0000000000
     20130      6710  TIP3      H2              4.1889403705       33.7942128873        7.8234269866  W2        7255            0.0000000000
     20131      6711  TIP3      OH2             9.2127903705       28.2001428873       13.9491269866  W2        7256            0.0000000000
     20132      6711  TIP3      H1              8.7869203705       27.9723128873       14.7755269866  W2        7256            0.0000000000
     20133      6711  TIP3      H2              9.7933703705       27.4613228873       13.7666569866  W2        7256            0.0000000000
     20134      6712  TIP3      OH2            11.4156803705       29.1291928873        3.0230269866  W2        7257            0.0000000000
     20135      6712  TIP3      H1             11.7689903705       28.7491728873        3.8273769866  W2        7257            0.0000000000
     20136      6712  TIP3      H2             10.4670303705       29.0356728873        3.1099569866  W2        7257            0.0000000000
     20137      6713  TIP3      OH2            11.8712103705       32.7520928873       16.4186069866  W2        7258            0.0000000000
     20138      6713  TIP3      H1             11.2695303705       32.1963828873       15.9232369866  W2        7258            0.0000000000
     20139      6713  TIP3      H2             12.1525803705       33.4190728873       15.7923469866  W2        7258            0.0000000000
     20140      6714  TIP3      OH2            15.9191203705       33.6084428873        3.2240469866  W2        7259            0.0000000000
     20141      6714  TIP3      H1             16.6629103705       34.1944928873        3.0842069866  W2        7259            0.0000000000
     20142      6714  TIP3      H2             15.2249303705       34.1770228873        3.5572869866  W2        7259            0.0000000000
     20143      6715  TIP3      OH2            -0.0061996295       19.9848628873       15.8258669866  W2        7260            0.0000000000
     20144      6715  TIP3      H1             -0.8989696295       20.3234028873       15.7582669866  W2        7260            0.0000000000
     20145      6715  TIP3      H2             -0.1049196295       19.1294728873       16.2439469866  W2        7260            0.0000000000
     20146      6716  TIP3      OH2            12.2816103705       27.8013928873        5.2498169866  W2        7261            0.0000000000
     20147      6716  TIP3      H1             12.0043703705       27.0733228873        5.8059269866  W2        7261            0.0000000000
     20148      6716  TIP3      H2             13.2089103705       27.9205928873        5.4550769866  W2        7261            0.0000000000
     20149      6717  TIP3      OH2            -0.3549996295       31.7893028873       14.2608069866  W2        7262            0.0000000000
     20150      6717  TIP3      H1             -0.1379696295       30.8575428873       14.2297769866  W2        7262            0.0000000000
     20151      6717  TIP3      H2             -0.1086496295       32.0638028873       15.1440869866  W2        7262            0.0000000000
     20152      6718  TIP3      OH2             5.5064603705       30.2408028873        1.4700269866  W2        7263            0.0000000000
     20153      6718  TIP3      H1              5.7454403705       29.4926128873        0.9229169866  W2        7263            0.0000000000
     20154      6718  TIP3      H2              5.2375903705       29.8529728873        2.3028069866  W2        7263            0.0000000000
     20155      6719  TIP3      OH2             4.4435203705       29.8111828873        3.9262869866  W2        7264            0.0000000000
     20156      6719  TIP3      H1              4.5903203705       29.2911628873        4.7163769866  W2        7264            0.0000000000
     20157      6719  TIP3      H2              4.4406903705       30.7179428873        4.2328769866  W2        7264            0.0000000000
     20158      6720  TIP3      OH2             0.8966303705       27.0635128873        4.4368269866  W2        7265            0.0000000000
     20159      6720  TIP3      H1              0.2105603705       27.4157628873        5.0037969866  W2        7265            0.0000000000
     20160      6720  TIP3      H2              1.4194203705       27.8264728873        4.1902569866  W2        7265            0.0000000000
     20161      6721  TIP3      OH2             8.7281403705       19.7258928873       14.7157269866  W2        7266            0.0000000000
     20162      6721  TIP3      H1              9.4269303705       19.7997628873       15.3656969866  W2        7266            0.0000000000
     20163      6721  TIP3      H2              8.3472803705       18.8613928873       14.8700169866  W2        7266            0.0000000000
     20164      6722  TIP3      OH2             9.5126303705       19.3780628873        5.8129569866  W2        7267            0.0000000000
     20165      6722  TIP3      H1              9.7324603705       19.8496028873        5.0094969866  W2        7267            0.0000000000
     20166      6722  TIP3      H2             10.0710303705       19.7723228873        6.4830169866  W2        7267            0.0000000000
     20167      6723  TIP3      OH2             7.1812403705       31.5085428873        4.6757069866  W2        7268            0.0000000000
     20168      6723  TIP3      H1              6.3648503705       32.0055128873        4.7281369866  W2        7268            0.0000000000
     20169      6723  TIP3      H2              7.7108703705       31.9838928873        4.0355869866  W2        7268            0.0000000000
     20170      6724  TIP3      OH2             6.7126203705       21.1059428873        6.6477969866  W2        7269            0.0000000000
     20171      6724  TIP3      H1              7.5248803705       21.6102628873        6.6939669866  W2        7269            0.0000000000
     20172      6724  TIP3      H2              6.4679203705       20.9609128873        7.5617569866  W2        7269            0.0000000000
     20173      6725  TIP3      OH2             7.2482603705       22.0922128873       15.8324569866  W2        7270            0.0000000000
     20174      6725  TIP3      H1              7.3672903705       22.6657528873       16.5894969866  W2        7270            0.0000000000
     20175      6725  TIP3      H2              7.9037203705       21.4041528873       15.9472369866  W2        7270            0.0000000000
     20176      6726  TIP3      OH2             7.5962903705       18.1872428873        7.5859069866  W2        7271            0.0000000000
     20177      6726  TIP3      H1              7.2496403705       18.8043028873        8.2303369866  W2        7271            0.0000000000
     20178      6726  TIP3      H2              8.2549803705       18.6878128873        7.1044569866  W2        7271            0.0000000000
     20179      6727  TIP3      OH2             4.5195503705       32.5522628873        4.6573969866  W2        7272            0.0000000000
     20180      6727  TIP3      H1              4.6804203705       33.3520128873        4.1566569866  W2        7272            0.0000000000
     20181      6727  TIP3      H2              4.3223303705       32.8588628873        5.5424569866  W2        7272            0.0000000000
     20182      6728  TIP3      OH2             3.2539903705       19.2501828873        4.2731569866  W2        7273            0.0000000000
     20183      6728  TIP3      H1              3.1704703705       20.1384928873        4.6197969866  W2        7273            0.0000000000
     20184      6728  TIP3      H2              4.1440203705       18.9848528873        4.5048369866  W2        7273            0.0000000000
     20185      6729  TIP3      OH2            13.4528403705       19.9992428873       16.6674269866  W2        7274            0.0000000000
     20186      6729  TIP3      H1             12.5364203705       20.2614128873       16.5797969866  W2        7274            0.0000000000
     20187      6729  TIP3      H2             13.7883403705       19.9961428873       15.7709569866  W2        7274            0.0000000000
     20188      6730  TIP3      OH2            12.0549403705       23.7493428873       10.7631569866  W2        7275            0.0000000000
     20189      6730  TIP3      H1             11.2573803705       23.3343628873       10.4346569866  W2        7275            0.0000000000
     20190      6730  TIP3      H2             12.5000503705       23.0587128873       11.2542069866  W2        7275            0.0000000000
     20191      6731  TIP3      OH2             1.5125203705       29.6774028873        3.3336069866  W2        7276            0.0000000000
     20192      6731  TIP3      H1              2.1046703705       30.3768828873        3.6098469866  W2        7276            0.0000000000
     20193      6731  TIP3      H2              1.9718203705       29.2443528873        2.6140669866  W2        7276            0.0000000000
     20194      6732  TIP3      OH2            -0.1715596295       22.3417028873        2.4495469866  W2        7277            0.0000000000
     20195      6732  TIP3      H1             -0.2162996295       23.2810128873        2.6282469866  W2        7277            0.0000000000
     20196      6732  TIP3      H2             -1.0592396295       22.1061928873        2.1797569866  W2        7277            0.0000000000
     20197      6733  TIP3      OH2            13.1414003705       33.0055928873       12.3855069866  W2        7278            0.0000000000
     20198      6733  TIP3      H1             12.9858303705       33.6840328873       11.7284369866  W2        7278            0.0000000000
     20199      6733  TIP3      H2             14.0740403705       33.0775228873       12.5885669866  W2        7278            0.0000000000
     20200      6734  TIP3      OH2             0.6366403705       17.1233628873       11.1226469866  W2        7279            0.0000000000
     20201      6734  TIP3      H1              0.4076203705       17.1826128873       10.1951469866  W2        7279            0.0000000000
     20202      6734  TIP3      H2              0.1939803705       16.3319128873       11.4290569866  W2        7279            0.0000000000
     20203      6735  TIP3      OH2            -0.4330296295       31.0640728873        7.2832269866  W2        7280            0.0000000000
     20204      6735  TIP3      H1             -1.2651696295       31.5363428873        7.3103669866  W2        7280            0.0000000000
     20205      6735  TIP3      H2              0.1128003705       31.5738328873        6.6845369866  W2        7280            0.0000000000
     20206      6736  TIP3      OH2             7.5446403705       32.1039428873        1.6086269866  W2        7283            0.0000000000
     20207      6736  TIP3      H1              6.9007403705       31.4728028873        1.9299969866  W2        7283            0.0000000000
     20208      6736  TIP3      H2              8.3064703705       31.5727428873        1.3769769866  W2        7283            0.0000000000
     20209      6737  TIP3      OH2            12.1489303705       31.9209328873        1.8424269866  W2        7285            0.0000000000
     20210      6737  TIP3      H1             12.4319703705       31.1264528873        2.2951169866  W2        7285            0.0000000000
     20211      6737  TIP3      H2             12.8887203705       32.1540328873        1.2815369866  W2        7285            0.0000000000
     20212      6738  TIP3      OH2             3.1036603705       27.8304228873        1.6999169866  W2        7287            0.0000000000
     20213      6738  TIP3      H1              3.1680703705       27.0363828873        2.2305569866  W2        7287            0.0000000000
     20214      6738  TIP3      H2              3.7565803705       27.7117028873        1.0101169866  W2        7287            0.0000000000
     20215      6739  TIP3      OH2             8.4560003705       28.8775928873        1.4357169866  W2        7289            0.0000000000
     20216      6739  TIP3      H1              8.1874103705       29.0578028873        2.3366069866  W2        7289            0.0000000000
     20217      6739  TIP3      H2              8.2495603705       27.9522128873        1.3042969866  W2        7289            0.0000000000
     20218      6740  TIP3      OH2            11.1524203705       27.3723928873       16.3833269866  W2        7290            0.0000000000
     20219      6740  TIP3      H1             11.8979003705       27.9607628873       16.2637269866  W2        7290            0.0000000000
     20220      6740  TIP3      H2             10.3951003705       27.9543628873       16.4466369866  W2        7290            0.0000000000
     20221      6741  TIP3      OH2             4.2530403705       25.8030428873        4.0057169866  W2        7292            0.0000000000
     20222      6741  TIP3      H1              3.7932403705       25.3188728873        4.6915669866  W2        7292            0.0000000000
     20223      6741  TIP3      H2              4.5079103705       25.1345828873        3.3697669866  W2        7292            0.0000000000
     20224      6742  TIP3      OH2             3.5419703705       23.6957528873       16.3616769866  W2        7293            0.0000000000
     20225      6742  TIP3      H1              2.9235803705       24.3704128873       16.6421469866  W2        7293            0.0000000000
     20226      6742  TIP3      H2              3.8860903705       24.0171428873       15.5282969866  W2        7293            0.0000000000
     20227      6743  TIP3      OH2             5.3240803705       24.0462228873        2.2680369866  W2        7294            0.0000000000
     20228      6743  TIP3      H1              5.1435803705       23.8913428873        1.3408669866  W2        7294            0.0000000000
     20229      6743  TIP3      H2              6.2741303705       24.1540928873        2.3128269866  W2        7294            0.0000000000
     20230      6744  TIP3      OH2            14.7139103705       26.4006428873        1.7138469866  W2        7296            0.0000000000
     20231      6744  TIP3      H1             14.4403903705       25.9761928873        0.9006769866  W2        7296            0.0000000000
     20232      6744  TIP3      H2             14.7533203705       27.3320928873        1.4968869866  W2        7296            0.0000000000
     20233      6745  TIP3      OH2             3.8813403705       21.0508328873       17.4439869866  W2        7297            0.0000000000
     20234      6745  TIP3      H1              4.0314303705       20.3219628873       16.8419569866  W2        7297            0.0000000000
     20235      6745  TIP3      H2              3.8835803705       21.8280028873       16.8852069866  W2        7297            0.0000000000
     20236      6746  TIP3      OH2             4.2939103705       19.4204128873       14.9367269866  W2        7298            0.0000000000
     20237      6746  TIP3      H1              4.8296603705       19.8720828873       14.2846569866  W2        7298            0.0000000000
     20238      6746  TIP3      H2              3.4418703705       19.3123928873       14.5141369866  W2        7298            0.0000000000
     20239      6747  TIP3      OH2             5.8757503705       24.8600328873       15.1762469866  W2        7299            0.0000000000
     20240      6747  TIP3      H1              6.6262303705       24.7037828873       14.6030269866  W2        7299            0.0000000000
     20241      6747  TIP3      H2              5.5365803705       25.7116928873       14.9007969866  W2        7299            0.0000000000
     20242      6748  TIP3      OH2             5.0994603705       16.8769828873       15.3680869866  W2        7303            0.0000000000
     20243      6748  TIP3      H1              5.0014203705       17.8233028873       15.2627069866  W2        7303            0.0000000000
     20244      6748  TIP3      H2              4.3570803705       16.5043628873       14.8924369866  W2        7303            0.0000000000
     20245      6749  TIP3      OH2             5.2212503705       34.7365928873        3.2693969866  W2        7310            0.0000000000
     20246      6749  TIP3      H1              6.1543203705       34.8944628873        3.4132369866  W2        7310            0.0000000000
     20247      6749  TIP3      H2              4.9571303705       35.4118928873        2.6445469866  W2        7310            0.0000000000
     20248      6750  TIP3      OH2            -1.2102596295       29.3729728873        2.7522069866  W2        7311            0.0000000000
     20249      6750  TIP3      H1             -0.2963396295       29.4518628873        3.0255969866  W2        7311            0.0000000000
     20250      6750  TIP3      H2             -1.2029496295       28.6859328873        2.0857669866  W2        7311            0.0000000000
     20251      6751  TIP3      OH2            -2.5611996295       34.7658228873        7.8295969866  W2        7312            0.0000000000
     20252      6751  TIP3      H1             -3.2084896295       34.3039928873        7.2967169866  W2        7312            0.0000000000
     20253      6751  TIP3      H2             -2.2067396295       34.0941528873        8.4122169866  W2        7312            0.0000000000
     20254      6752  TIP3      OH2            -1.6912796295       32.8465228873        9.6342169866  W2        7313            0.0000000000
     20255      6752  TIP3      H1             -2.0255996295       31.9662528873        9.8062369866  W2        7313            0.0000000000
     20256      6752  TIP3      H2             -1.4690396295       33.1920228873       10.4987769866  W2        7313            0.0000000000
     20257      6753  TIP3      OH2            15.8572003705       33.6561628873       12.6146969866  W2        7314            0.0000000000
     20258      6753  TIP3      H1             15.8358703705       33.8410028873       13.5536369866  W2        7314            0.0000000000
     20259      6753  TIP3      H2             16.5478203705       34.2245628873       12.2738369866  W2        7314            0.0000000000
     20260      6754  TIP3      OH2            15.4204903705       33.2232728873       15.5366069866  W2        7315            0.0000000000
     20261      6754  TIP3      H1             14.9333603705       32.4876828873       15.1653469866  W2        7315            0.0000000000
     20262      6754  TIP3      H2             15.9697603705       32.8296628873       16.2145469866  W2        7315            0.0000000000
     20263      6755  TIP3      OH2            15.1721903705       27.2694528873        5.6888869866  W2        7317            0.0000000000
     20264      6755  TIP3      H1             16.0223303705       27.6905428873        5.8160469866  W2        7317            0.0000000000
     20265      6755  TIP3      H2             15.1777003705       26.5294628873        6.2960269866  W2        7317            0.0000000000
     20266      6756  TIP3      OH2            15.5667503705       25.3231928873        7.5124569866  W2        7318            0.0000000000
     20267      6756  TIP3      H1             14.8402103705       24.8434528873        7.9102169866  W2        7318            0.0000000000
     20268      6756  TIP3      H2             16.1480803705       25.5286628873        8.2446169866  W2        7318            0.0000000000
     20269      6757  TIP3      OH2            15.3258703705       28.1079428873       12.4602169866  W2        7319            0.0000000000
     20270      6757  TIP3      H1             16.1592903705       27.7299428873       12.1795769866  W2        7319            0.0000000000
     20271      6757  TIP3      H2             15.4379003705       29.0510628873       12.3411269866  W2        7319            0.0000000000
     20272      6758  TIP3      OH2            13.8121003705       30.9856928873       14.7670569866  W2        7320            0.0000000000
     20273      6758  TIP3      H1             13.1646303705       31.3108428873       15.3925769866  W2        7320            0.0000000000
     20274      6758  TIP3      H2             13.2945003705       30.5454628873       14.0928869866  W2        7320            0.0000000000
     20275      6759  TIP3      OH2            15.8350603705       25.2240428873        3.9035869866  W2        7321            0.0000000000
     20276      6759  TIP3      H1             15.3131703705       25.5804528873        3.1846769866  W2        7321            0.0000000000
     20277      6759  TIP3      H2             15.8019803705       25.8988228873        4.5816769866  W2        7321            0.0000000000
     20278      6760  TIP3      OH2            14.1839603705       22.4636028873        2.4542969866  W2        7322            0.0000000000
     20279      6760  TIP3      H1             14.2804003705       23.1303028873        1.7742669866  W2        7322            0.0000000000
     20280      6760  TIP3      H2             14.0439203705       21.6482328873        1.9728469866  W2        7322            0.0000000000
     20281      6761  TIP3      OH2            13.3534303705       23.8438428873        8.0753269866  W2        7323            0.0000000000
     20282      6761  TIP3      H1             13.2033103705       22.8987028873        8.0551069866  W2        7323            0.0000000000
     20283      6761  TIP3      H2             12.9998803705       24.1249828873        8.9192369866  W2        7323            0.0000000000
     20284      6762  TIP3      OH2            -1.6113296295       25.9220628873       12.0857069866  W2        7324            0.0000000000
     20285      6762  TIP3      H1             -1.4270396295       25.8402328873       11.1499969866  W2        7324            0.0000000000
     20286      6762  TIP3      H2             -0.7620396295       25.7977628873       12.5093469866  W2        7324            0.0000000000
     20287      6763  TIP3      OH2            13.4313403705       19.8715828873        1.5718469866  W2        7327            0.0000000000
     20288      6763  TIP3      H1             14.0419203705       19.5002628873        2.2086669866  W2        7327            0.0000000000
     20289      6763  TIP3      H2             12.5944903705       19.4502728873        1.7678469866  W2        7327            0.0000000000
     20290      6764  TIP3      OH2            13.0639103705       21.4264228873        6.5378369866  W2        7328            0.0000000000
     20291      6764  TIP3      H1             13.3436203705       20.5194628873        6.6620069866  W2        7328            0.0000000000
     20292      6764  TIP3      H2             13.8230803705       21.8605728873        6.1487569866  W2        7328            0.0000000000
     20293      6765  TIP3      OH2            13.6757403705       22.0081628873       11.9737269866  W2        7329            0.0000000000
     20294      6765  TIP3      H1             14.6085403705       22.2201528873       11.9393269866  W2        7329            0.0000000000
     20295      6765  TIP3      H2             13.4404903705       22.1093728873       12.8960269866  W2        7329            0.0000000000
     20296      6766  TIP3      OH2            13.7049303705       22.7446928873       14.7496669866  W2        7330            0.0000000000
     20297      6766  TIP3      H1             12.8620603705       23.0127328873       15.1156469866  W2        7330            0.0000000000
     20298      6766  TIP3      H2             14.1473603705       23.5668828873       14.5387769866  W2        7330            0.0000000000
     20299      6767  TIP3      OH2            13.6773903705       18.6893528873        6.5860369866  W2        7333            0.0000000000
     20300      6767  TIP3      H1             13.8598903705       18.2405028873        7.4115369866  W2        7333            0.0000000000
     20301      6767  TIP3      H2             13.0776803705       18.1047928873        6.1224969866  W2        7333            0.0000000000
     20302      6768  TIP3      OH2            -0.7925996295       19.5047228873       11.1178769866  W2        7334            0.0000000000
     20303      6768  TIP3      H1             -0.3474396295       18.7129728873       11.4198469866  W2        7334            0.0000000000
     20304      6768  TIP3      H2             -0.3262996295       20.2212428873       11.5484369866  W2        7334            0.0000000000
     20305      6769  TIP3      OH2            -2.4885696295       22.5040228873       12.1868969866  W2        7335            0.0000000000
     20306      6769  TIP3      H1             -1.9965896295       22.2830728873       11.3960969866  W2        7335            0.0000000000
     20307      6769  TIP3      H2             -2.1264796295       23.3443628873       12.4678469866  W2        7335            0.0000000000
     20308      6770  TIP3      OH2            15.5440103705       18.7571628873        3.1140669866  W2        7337            0.0000000000
     20309      6770  TIP3      H1             15.9562703705       18.0357328873        2.6388669866  W2        7337            0.0000000000
     20310      6770  TIP3      H2             16.2256603705       19.4266228873        3.1724969866  W2        7337            0.0000000000
     20311      6771  TIP3      OH2            -2.1749196295       18.7619328873        6.2411369866  W2        7338            0.0000000000
     20312      6771  TIP3      H1             -3.1000796295       18.9705928873        6.1116869866  W2        7338            0.0000000000
     20313      6771  TIP3      H2             -1.7209296295       19.2460128873        5.5513669866  W2        7338            0.0000000000
     20314      6772  TIP3      OH2            12.5958003705       33.7461028873        8.1868769866  W2        7339            0.0000000000
     20315      6772  TIP3      H1             13.2480903705       33.3983128873        7.5787869866  W2        7339            0.0000000000
     20316      6772  TIP3      H2             13.1061803705       34.2344228873        8.8328469866  W2        7339            0.0000000000
     20317      6773  TIP3      OH2            -2.2113796295       17.4998328873       14.5853869866  W2        7340            0.0000000000
     20318      6773  TIP3      H1             -2.8763296295       17.2538628873       15.2284769866  W2        7340            0.0000000000
     20319      6773  TIP3      H2             -2.6542496295       18.1218728873       14.0081869866  W2        7340            0.0000000000
     20320      6774  TIP3      OH2             2.9348403705       31.6493628873       14.9883669866  W2        7342            0.0000000000
     20321      6774  TIP3      H1              2.5099503705       32.4592128873       14.7058269866  W2        7342            0.0000000000
     20322      6774  TIP3      H2              3.8391203705       31.7347728873       14.6863469866  W2        7342            0.0000000000
     20323      6775  TIP3      OH2             9.5910203705       34.3342528873       17.1918769866  W2        7344            0.0000000000
     20324      6775  TIP3      H1             10.2679103705       33.7014828873       16.9517969866  W2        7344            0.0000000000
     20325      6775  TIP3      H2              9.9129003705       34.7353028873       17.9992069866  W2        7344            0.0000000000
     20326      6776  TIP3      OH2            14.5084003705       16.9238028873       16.2713769866  W2        7345            0.0000000000
     20327      6776  TIP3      H1             13.6957503705       17.2488328873       15.8838469866  W2        7345            0.0000000000
     20328      6776  TIP3      H2             14.7412503705       16.1636528873       15.7382869866  W2        7345            0.0000000000
     20329      6777  TIP3      OH2             0.3365103705       34.9057528873       15.0358969866  W2        7346            0.0000000000
     20330      6777  TIP3      H1             -0.3838496295       35.3458528873       14.5846669866  W2        7346            0.0000000000
     20331      6777  TIP3      H2             -0.0290896295       34.6552228873       15.8842969866  W2        7346            0.0000000000
     20332      6778  TIP3      OH2             2.8037703705       34.5061428873       14.0656169866  W2        7347            0.0000000000
     20333      6778  TIP3      H1              1.9389903705       34.5779928873       14.4696269866  W2        7347            0.0000000000
     20334      6778  TIP3      H2              2.7486703705       35.0528728873       13.2818669866  W2        7347            0.0000000000
     20335      6779  TIP3      OH2             7.5143303705       34.3940328873       13.2412169866  W2        7348            0.0000000000
     20336      6779  TIP3      H1              7.0577303705       34.9230028873       12.5870569866  W2        7348            0.0000000000
     20337      6779  TIP3      H2              7.6771303705       34.9971728873       13.9664469866  W2        7348            0.0000000000
     20338      6780  TIP3      OH2             9.8419603705       33.2719928873       14.1862469866  W2        7349            0.0000000000
     20339      6780  TIP3      H1              8.9373303705       33.4370128873       13.9204569866  W2        7349            0.0000000000
     20340      6780  TIP3      H2             10.2708203705       34.1252128873       14.1205869866  W2        7349            0.0000000000
     20341      6781  TIP3      OH2            12.4461503705       34.8419028873       14.4810269866  W2        7350            0.0000000000
     20342      6781  TIP3      H1             12.2643503705       35.7577928873       14.2705169866  W2        7350            0.0000000000
     20343      6781  TIP3      H2             12.6229303705       34.4316128873       13.6344869866  W2        7350            0.0000000000
     20344      6782  TIP3      OH2            -0.2486796295       33.5290028873       11.9460769866  W2        7351            0.0000000000
     20345      6782  TIP3      H1             -0.2670796295       33.1035128873       12.8033069866  W2        7351            0.0000000000
     20346      6782  TIP3      H2              0.5561103705       33.2105028873       11.5372969866  W2        7351            0.0000000000
     20347      6783  TIP3      OH2             1.8926303705       32.2388728873       10.6010669866  W2        7352            0.0000000000
     20348      6783  TIP3      H1              1.6737003705       31.3226128873       10.7706669866  W2        7352            0.0000000000
     20349      6783  TIP3      H2              2.7168503705       32.3789128873       11.0672069866  W2        7352            0.0000000000
     20350      6784  TIP3      OH2             4.4298803705       32.7088028873       11.4498669866  W2        7353            0.0000000000
     20351      6784  TIP3      H1              4.6424503705       31.8207028873       11.1629569866  W2        7353            0.0000000000
     20352      6784  TIP3      H2              4.4943903705       32.6745728873       12.4042669866  W2        7353            0.0000000000
     20353      6785  TIP3      OH2             7.9382503705       18.3728628873       10.5941969866  W2        7354            0.0000000000
     20354      6785  TIP3      H1              7.2639303705       17.7434228873       10.8497769866  W2        7354            0.0000000000
     20355      6785  TIP3      H2              8.5021703705       17.8887528873        9.9909869866  W2        7354            0.0000000000
     20356      6786  TIP3      OH2            13.0809703705       16.4802628873       10.7069069866  W2        7355            0.0000000000
     20357      6786  TIP3      H1             13.6847303705       17.0278028873       10.2050069866  W2        7355            0.0000000000
     20358      6786  TIP3      H2             12.2111703705       16.7993028873       10.4663169866  W2        7355            0.0000000000
     20359      6787  TIP3      OH2            14.8080103705       17.6191328873        9.0399969866  W2        7356            0.0000000000
     20360      6787  TIP3      H1             15.4197603705       17.1047028873        8.5133569866  W2        7356            0.0000000000
     20361      6787  TIP3      H2             15.1903503705       18.4963428873        9.0634369866  W2        7356            0.0000000000
     20362      6788  TIP3      OH2             0.2650003705       17.0068928873        8.4161869866  W2        7357            0.0000000000
     20363      6788  TIP3      H1             -0.5120196295       16.7723828873        7.9087769866  W2        7357            0.0000000000
     20364      6788  TIP3      H2              0.7953603705       16.2101028873        8.4249869866  W2        7357            0.0000000000
     20365      6789  TIP3      OH2            -0.8986596295       16.8047028873        4.2197969866  W2        7358            0.0000000000
     20366      6789  TIP3      H1             -0.4595896295       17.4157528873        3.6281469866  W2        7358            0.0000000000
     20367      6789  TIP3      H2             -1.5324196295       17.3431128873        4.6937969866  W2        7358            0.0000000000
     20368      6790  TIP3      OH2             4.8442603705       16.9336028873        8.2294969866  W2        7359            0.0000000000
     20369      6790  TIP3      H1              5.7186003705       17.3220328873        8.1999269866  W2        7359            0.0000000000
     20370      6790  TIP3      H2              4.7083403705       16.7183828873        9.1522169866  W2        7359            0.0000000000
     20371      6791  TIP3      OH2            10.4011003705       16.9635828873        9.8786669866  W2        7360            0.0000000000
     20372      6791  TIP3      H1             10.4772603705       17.0587428873        8.9292669866  W2        7360            0.0000000000
     20373      6791  TIP3      H2             10.1260203705       16.0558728873       10.0075769866  W2        7360            0.0000000000
     20374      6792  TIP3      OH2            11.7543603705       16.9893628873        5.5711669866  W2        7361            0.0000000000
     20375      6792  TIP3      H1             11.0514703705       17.6042828873        5.3613069866  W2        7361            0.0000000000
     20376      6792  TIP3      H2             11.3095003705       16.1520328873        5.7022569866  W2        7361            0.0000000000
     20377      6793  TIP3      OH2            -0.9977096295       32.7529228873        5.1173069866  W2        7362            0.0000000000
     20378      6793  TIP3      H1             -1.6827196295       32.7148128873        4.4498169866  W2        7362            0.0000000000
     20379      6793  TIP3      H2             -0.9939896295       33.6656828873        5.4055169866  W2        7362            0.0000000000
     20380      6794  TIP3      OH2             0.9622503705       18.7208528873        2.6622069866  W2        7363            0.0000000000
     20381      6794  TIP3      H1              1.4535903705       18.0910928873        2.1347569866  W2        7363            0.0000000000
     20382      6794  TIP3      H2              1.5858803705       19.0167928873        3.3253269866  W2        7363            0.0000000000
     20383      6795  TIP3      OH2             5.9882603705       19.0140028873        5.1192569866  W2        7364            0.0000000000
     20384      6795  TIP3      H1              6.1663903705       18.3673228873        5.8021169866  W2        7364            0.0000000000
     20385      6795  TIP3      H2              5.9348803705       19.8477728873        5.5863669866  W2        7364            0.0000000000
     20386      6796  TIP3      OH2             7.8666403705       33.9624128873        3.5149269866  W2        7365            0.0000000000
     20387      6796  TIP3      H1              8.7326603705       34.3291528873        3.3367469866  W2        7365            0.0000000000
     20388      6796  TIP3      H2              7.6199203705       33.5232128873        2.7010069866  W2        7365            0.0000000000
     20389      6797  TIP3      OH2            14.5756003705       33.5254428873        6.1940369866  W2        7366            0.0000000000
     20390      6797  TIP3      H1             14.3813103705       32.7776528873        5.6289969866  W2        7366            0.0000000000
     20391      6797  TIP3      H2             14.5366103705       34.2834528873        5.6108269866  W2        7366            0.0000000000
     20392      6798  TIP3      OH2             0.8204103705       33.6730028873        2.1425169866  W2        7369            0.0000000000
     20393      6798  TIP3      H1              0.5528703705       33.9592928873        3.0158269866  W2        7369            0.0000000000
     20394      6798  TIP3      H2              1.5916703705       33.1269228873        2.2947669866  W2        7369            0.0000000000
     20395      6799  TIP3      OH2            28.1992603705       26.1631228873        8.3749369866  W2        7372            0.0000000000
     20396      6799  TIP3      H1             28.2883703705       27.1069428873        8.2426469866  W2        7372            0.0000000000
     20397      6799  TIP3      H2             27.5610203705       25.8877628873        7.7168769866  W2        7372            0.0000000000
     20398      6800  TIP3      OH2            27.1323903705       25.4181928873       11.7937569866  W2        7373            0.0000000000
     20399      6800  TIP3      H1             27.0941403705       24.7718228873       12.4987169866  W2        7373            0.0000000000
     20400      6800  TIP3      H2             26.8100403705       24.9516328873       11.0226269866  W2        7373            0.0000000000
     20401      6801  TIP3      OH2            19.5008903705       25.0324028873       13.3867469866  W2        7374            0.0000000000
     20402      6801  TIP3      H1             19.5421003705       24.4067328873       14.1099869866  W2        7374            0.0000000000
     20403      6801  TIP3      H2             20.2036603705       25.6562628873       13.5687869866  W2        7374            0.0000000000
     20404      6802  TIP3      OH2            30.8384103705       28.3572328873       10.0952669866  W2        7375            0.0000000000
     20405      6802  TIP3      H1             30.3976803705       27.6368328873       10.5458269866  W2        7375            0.0000000000
     20406      6802  TIP3      H2             30.8253803705       29.0779528873       10.7250369866  W2        7375            0.0000000000
     20407      6803  TIP3      OH2            20.4242003705       29.4822928873       11.9216569866  W2        7376            0.0000000000
     20408      6803  TIP3      H1             20.0547203705       28.6803428873       11.5520869866  W2        7376            0.0000000000
     20409      6803  TIP3      H2             21.3653103705       29.3137828873       11.9679969866  W2        7376            0.0000000000
     20410      6804  TIP3      OH2            17.0342503705       23.1425528873        7.3145369866  W2        7377            0.0000000000
     20411      6804  TIP3      H1             16.5865903705       23.9884228873        7.2961869866  W2        7377            0.0000000000
     20412      6804  TIP3      H2             16.4733703705       22.5629728873        6.7990469866  W2        7377            0.0000000000
     20413      6805  TIP3      OH2            17.7448603705       25.3045128873        9.4403369866  W2        7378            0.0000000000
     20414      6805  TIP3      H1             17.9582103705       24.5346728873        9.9676369866  W2        7378            0.0000000000
     20415      6805  TIP3      H2             18.4826203705       25.3941828873        8.8370969866  W2        7378            0.0000000000
     20416      6806  TIP3      OH2            27.9499603705       33.4614028873       10.3073069866  W2        7379            0.0000000000
     20417      6806  TIP3      H1             28.5696003705       32.7848728873       10.0342269866  W2        7379            0.0000000000
     20418      6806  TIP3      H2             27.7417003705       33.2434828873       11.2157969866  W2        7379            0.0000000000
     20419      6807  TIP3      OH2            25.5218303705       27.8503328873       12.1998569866  W2        7380            0.0000000000
     20420      6807  TIP3      H1             25.8256203705       27.1644728873       11.6052669866  W2        7380            0.0000000000
     20421      6807  TIP3      H2             26.2432303705       27.9692028873       12.8176569866  W2        7380            0.0000000000
     20422      6808  TIP3      OH2            34.1848103705       19.4518628873       13.0604769866  W2        7381            0.0000000000
     20423      6808  TIP3      H1             34.2340303705       20.0619828873       13.7963869866  W2        7381            0.0000000000
     20424      6808  TIP3      H2             34.6103203705       19.9129528873       12.3375869866  W2        7381            0.0000000000
     20425      6809  TIP3      OH2            28.6625303705       22.2445728873       12.5273369866  W2        7382            0.0000000000
     20426      6809  TIP3      H1             28.8051203705       21.2982728873       12.5474969866  W2        7382            0.0000000000
     20427      6809  TIP3      H2             28.5564303705       22.4515528873       11.5988269866  W2        7382            0.0000000000
     20428      6810  TIP3      OH2            21.8173603705       20.3462128873        9.7998169866  W2        7383            0.0000000000
     20429      6810  TIP3      H1             21.8604703705       21.2060628873        9.3814469866  W2        7383            0.0000000000
     20430      6810  TIP3      H2             21.3597703705       19.7936828873        9.1661369866  W2        7383            0.0000000000
     20431      6811  TIP3      OH2            29.5396303705       20.4767728873        8.2006469866  W2        7384            0.0000000000
     20432      6811  TIP3      H1             30.1860603705       20.1480928873        8.8254069866  W2        7384            0.0000000000
     20433      6811  TIP3      H2             30.0495703705       20.9946728873        7.5777869866  W2        7384            0.0000000000
     20434      6812  TIP3      OH2            18.4375103705       22.7427928873       10.5619569866  W2        7385            0.0000000000
     20435      6812  TIP3      H1             19.0911703705       22.1929628873       10.9939669866  W2        7385            0.0000000000
     20436      6812  TIP3      H2             18.4614403705       22.4686928873        9.6451569866  W2        7385            0.0000000000
     20437      6813  TIP3      OH2            23.5939603705       24.2929228873        9.7771069866  W2        7386            0.0000000000
     20438      6813  TIP3      H1             24.2100603705       23.7664628873       10.2865069866  W2        7386            0.0000000000
     20439      6813  TIP3      H2             23.0078403705       23.6527928873        9.3734669866  W2        7386            0.0000000000
     20440      6814  TIP3      OH2            34.5762703705       20.9297828873       15.2964569866  W2        7387            0.0000000000
     20441      6814  TIP3      H1             33.8877303705       21.5878528873       15.2011169866  W2        7387            0.0000000000
     20442      6814  TIP3      H2             34.5917303705       20.7325728873       16.2329969866  W2        7387            0.0000000000
     20443      6815  TIP3      OH2            20.6275503705       19.2640528873       13.8738969866  W2        7388            0.0000000000
     20444      6815  TIP3      H1             20.4087203705       19.7941128873       13.1074969866  W2        7388            0.0000000000
     20445      6815  TIP3      H2             19.9596403705       19.4906028873       14.5210369866  W2        7388            0.0000000000
     20446      6816  TIP3      OH2            27.9965303705       28.7641628873        7.4178069866  W2        7389            0.0000000000
     20447      6816  TIP3      H1             27.7010403705       28.4413928873        6.5664969866  W2        7389            0.0000000000
     20448      6816  TIP3      H2             27.6723103705       29.6638328873        7.4590669866  W2        7389            0.0000000000
     20449      6817  TIP3      OH2            23.1966903705       26.9396228873       14.1612669866  W2        7390            0.0000000000
     20450      6817  TIP3      H1             22.4566003705       27.5377728873       14.2647869866  W2        7390            0.0000000000
     20451      6817  TIP3      H2             23.9106403705       27.4935828873       13.8456269866  W2        7390            0.0000000000
     20452      6818  TIP3      OH2            31.3034703705       19.7677028873       10.1812369866  W2        7391            0.0000000000
     20453      6818  TIP3      H1             31.0882703705       19.0020428873       10.7138369866  W2        7391            0.0000000000
     20454      6818  TIP3      H2             31.9592103705       20.2401628873       10.6940869866  W2        7391            0.0000000000
     20455      6819  TIP3      OH2            20.2212803705       21.1562328873       11.8261169866  W2        7392            0.0000000000
     20456      6819  TIP3      H1             20.8349103705       21.7889928873       12.1993569866  W2        7392            0.0000000000
     20457      6819  TIP3      H2             20.7333503705       20.6837328873       11.1698069866  W2        7392            0.0000000000
     20458      6820  TIP3      OH2            21.6041203705       28.9039228873       14.9484169866  W2        7393            0.0000000000
     20459      6820  TIP3      H1             21.5988803705       29.7832728873       14.5703469866  W2        7393            0.0000000000
     20460      6820  TIP3      H2             20.7505303705       28.8203328873       15.3734069866  W2        7393            0.0000000000
     20461      6821  TIP3      OH2            17.7252103705       28.5747128873        5.7303469866  W2        7394            0.0000000000
     20462      6821  TIP3      H1             17.4533003705       28.8038128873        4.8416369866  W2        7394            0.0000000000
     20463      6821  TIP3      H2             17.7707803705       29.4125928873        6.1908769866  W2        7394            0.0000000000
     20464      6822  TIP3      OH2            31.3501803705       30.1963028873       12.4431969866  W2        7395            0.0000000000
     20465      6822  TIP3      H1             30.4085503705       30.2546928873       12.6048869866  W2        7395            0.0000000000
     20466      6822  TIP3      H2             31.6267903705       31.1023528873       12.3061669866  W2        7395            0.0000000000
     20467      6823  TIP3      OH2            31.6508803705       18.4828328873       13.8605869866  W2        7396            0.0000000000
     20468      6823  TIP3      H1             30.9148003705       19.0935428873       13.8227169866  W2        7396            0.0000000000
     20469      6823  TIP3      H2             32.3342803705       18.8977328873       13.3342269866  W2        7396            0.0000000000
     20470      6824  TIP3      OH2            24.6540203705       16.5695628873       11.3263869866  W2        7397            0.0000000000
     20471      6824  TIP3      H1             24.5364403705       15.6211628873       11.2722169866  W2        7397            0.0000000000
     20472      6824  TIP3      H2             23.7990303705       16.9021728873       11.5994969866  W2        7397            0.0000000000
     20473      6825  TIP3      OH2            29.6023003705       31.9776528873        9.0683569866  W2        7398            0.0000000000
     20474      6825  TIP3      H1             30.0275303705       31.2704428873        8.5833169866  W2        7398            0.0000000000
     20475      6825  TIP3      H2             29.9193003705       32.7789228873        8.6515769866  W2        7398            0.0000000000
     20476      6826  TIP3      OH2            30.7619503705       29.8785028873        7.5770169866  W2        7399            0.0000000000
     20477      6826  TIP3      H1             30.5044303705       29.1885128873        6.9656069866  W2        7399            0.0000000000
     20478      6826  TIP3      H2             30.8330303705       29.4356228873        8.4226069866  W2        7399            0.0000000000
     20479      6827  TIP3      OH2            32.4479703705       28.4451728873       16.0543669866  W2        7400            0.0000000000
     20480      6827  TIP3      H1             32.5876003705       27.8534228873       15.3150669866  W2        7400            0.0000000000
     20481      6827  TIP3      H2             32.6152503705       29.3177628873       15.6982469866  W2        7400            0.0000000000
     20482      6828  TIP3      OH2            26.9205103705       25.4071228873        5.8269669866  W2        7401            0.0000000000
     20483      6828  TIP3      H1             26.2090603705       25.9420928873        5.4750169866  W2        7401            0.0000000000
     20484      6828  TIP3      H2             27.6114703705       25.4623328873        5.1668569866  W2        7401            0.0000000000
     20485      6829  TIP3      OH2            26.9744303705       23.8645528873        2.8654669866  W2        7402            0.0000000000
     20486      6829  TIP3      H1             27.6754203705       23.8872428873        3.5168669866  W2        7402            0.0000000000
     20487      6829  TIP3      H2             27.2767203705       23.2365228873        2.2093969866  W2        7402            0.0000000000
     20488      6830  TIP3      OH2            34.2899003705       24.7849728873       14.1204069866  W2        7403            0.0000000000
     20489      6830  TIP3      H1             33.6373103705       25.4795328873       14.2094969866  W2        7403            0.0000000000
     20490      6830  TIP3      H2             34.7549303705       24.9950628873       13.3105669866  W2        7403            0.0000000000
     20491      6831  TIP3      OH2            30.3262803705       25.6164528873        6.7785569866  W2        7404            0.0000000000
     20492      6831  TIP3      H1             29.5943803705       25.8448228873        7.3516169866  W2        7404            0.0000000000
     20493      6831  TIP3      H2             30.7735003705       24.9027228873        7.2333069866  W2        7404            0.0000000000
     20494      6832  TIP3      OH2            30.2236303705       23.7907128873       15.8462569866  W2        7405            0.0000000000
     20495      6832  TIP3      H1             30.3035403705       24.5541528873       16.4181069866  W2        7405            0.0000000000
     20496      6832  TIP3      H2             29.6224003705       24.0699528873       15.1557669866  W2        7405            0.0000000000
     20497      6833  TIP3      OH2            21.9716503705       26.2470728873        8.6610569866  W2        7406            0.0000000000
     20498      6833  TIP3      H1             21.6411703705       25.8764128873        7.8427569866  W2        7406            0.0000000000
     20499      6833  TIP3      H2             22.5600603705       25.5764728873        9.0078869866  W2        7406            0.0000000000
     20500      6834  TIP3      OH2            23.3384003705       29.6751328873       11.3422769866  W2        7407            0.0000000000
     20501      6834  TIP3      H1             23.2435303705       29.0964428873       10.5857369866  W2        7407            0.0000000000
     20502      6834  TIP3      H2             24.0677603705       29.3037028873       11.8385569866  W2        7407            0.0000000000
     20503      6835  TIP3      OH2            22.3382003705       25.0156328873       12.2945569866  W2        7408            0.0000000000
     20504      6835  TIP3      H1             22.9034503705       25.1370528873       11.5316769866  W2        7408            0.0000000000
     20505      6835  TIP3      H2             22.6570903705       25.6531328873       12.9334069866  W2        7408            0.0000000000
     20506      6836  TIP3      OH2            28.6474203705       30.5188228873       13.0286069866  W2        7409            0.0000000000
     20507      6836  TIP3      H1             28.4070803705       31.1811328873       13.6765269866  W2        7409            0.0000000000
     20508      6836  TIP3      H2             28.4492403705       29.6843428873       13.4535669866  W2        7409            0.0000000000
     20509      6837  TIP3      OH2            23.2182703705       29.4149028873       17.0117469866  W2        7410            0.0000000000
     20510      6837  TIP3      H1             22.9070203705       30.1972228873       17.4670669866  W2        7410            0.0000000000
     20511      6837  TIP3      H2             22.5682903705       29.2618128873       16.3259469866  W2        7410            0.0000000000
     20512      6838  TIP3      OH2            29.1972303705       24.7787428873        4.4636769866  W2        7411            0.0000000000
     20513      6838  TIP3      H1             29.7767803705       24.9287728873        5.2105669866  W2        7411            0.0000000000
     20514      6838  TIP3      H2             29.6112303705       25.2494828873        3.7403169866  W2        7411            0.0000000000
     20515      6839  TIP3      OH2            20.1382603705       25.6130128873       16.2403169866  W2        7412            0.0000000000
     20516      6839  TIP3      H1             20.2085803705       26.2636928873       16.9388169866  W2        7412            0.0000000000
     20517      6839  TIP3      H2             19.2474803705       25.7157628873       15.9054069866  W2        7412            0.0000000000
     20518      6840  TIP3      OH2            26.9237203705       31.5155928873        7.8989869866  W2        7413            0.0000000000
     20519      6840  TIP3      H1             27.3974803705       31.8112228873        8.6764069866  W2        7413            0.0000000000
     20520      6840  TIP3      H2             26.3606503705       32.2537528873        7.6659469866  W2        7413            0.0000000000
     20521      6841  TIP3      OH2            32.8960703705       16.5287828873        4.2766469866  W2        7415            0.0000000000
     20522      6841  TIP3      H1             31.9961403705       16.6676828873        4.5717069866  W2        7415            0.0000000000
     20523      6841  TIP3      H2             33.1479103705       17.3602428873        3.8748169866  W2        7415            0.0000000000
     20524      6842  TIP3      OH2            20.9619203705       25.3165028873        6.2503369866  W2        7416            0.0000000000
     20525      6842  TIP3      H1             20.6700503705       26.0846728873        5.7594669866  W2        7416            0.0000000000
     20526      6842  TIP3      H2             20.2874403705       24.6571228873        6.0874769866  W2        7416            0.0000000000
     20527      6843  TIP3      OH2            34.0852103705       30.8950228873        2.6530369866  W2        7417            0.0000000000
     20528      6843  TIP3      H1             34.1585603705       31.8340428873        2.8235669866  W2        7417            0.0000000000
     20529      6843  TIP3      H2             34.9907203705       30.5898828873        2.5967669866  W2        7417            0.0000000000
     20530      6844  TIP3      OH2            17.0549303705       27.6794228873       15.0653169866  W2        7418            0.0000000000
     20531      6844  TIP3      H1             16.5537703705       27.6513628873       14.2502869866  W2        7418            0.0000000000
     20532      6844  TIP3      H2             17.0603003705       26.7737428873       15.3750469866  W2        7418            0.0000000000
     20533      6845  TIP3      OH2            16.8052003705       30.4598028873       11.9493369866  W2        7419            0.0000000000
     20534      6845  TIP3      H1             17.7512603705       30.3155028873       11.9302869866  W2        7419            0.0000000000
     20535      6845  TIP3      H2             16.6928303705       31.2440828873       12.4864569866  W2        7419            0.0000000000
     20536      6846  TIP3      OH2            25.9814503705       30.6996928873       16.5078469866  W2        7421            0.0000000000
     20537      6846  TIP3      H1             26.0689103705       31.5261528873       16.9827569866  W2        7421            0.0000000000
     20538      6846  TIP3      H2             25.1179603705       30.3700728873       16.7567769866  W2        7421            0.0000000000
     20539      6847  TIP3      OH2            26.3960303705       34.4720628873        6.3139069866  W2        7422            0.0000000000
     20540      6847  TIP3      H1             26.3206303705       34.3507828873        5.3674269866  W2        7422            0.0000000000
     20541      6847  TIP3      H2             26.4289003705       35.4213328873        6.4323669866  W2        7422            0.0000000000
     20542      6848  TIP3      OH2            20.0494103705       33.2607628873        8.0948069866  W2        7423            0.0000000000
     20543      6848  TIP3      H1             20.2014503705       32.9128028873        8.9734569866  W2        7423            0.0000000000
     20544      6848  TIP3      H2             19.1984503705       32.9044928873        7.8395269866  W2        7423            0.0000000000
     20545      6849  TIP3      OH2            29.4976303705       33.6260828873        3.3161469866  W2        7424            0.0000000000
     20546      6849  TIP3      H1             29.8724703705       32.8816928873        2.8454069866  W2        7424            0.0000000000
     20547      6849  TIP3      H2             29.5020003705       33.3561428873        4.2344769866  W2        7424            0.0000000000
     20548      6850  TIP3      OH2            29.1664403705       33.5517928873        6.0653669866  W2        7425            0.0000000000
     20549      6850  TIP3      H1             28.2314203705       33.6519828873        6.2440669866  W2        7425            0.0000000000
     20550      6850  TIP3      H2             29.4466303705       32.8423928873        6.6436869866  W2        7425            0.0000000000
     20551      6851  TIP3      OH2            19.3039803705       29.0029628873       16.1085969866  W2        7427            0.0000000000
     20552      6851  TIP3      H1             19.5201103705       28.6415228873       16.9681769866  W2        7427            0.0000000000
     20553      6851  TIP3      H2             18.4484503705       28.6283428873       15.8989469866  W2        7427            0.0000000000
     20554      6852  TIP3      OH2            21.9227803705       17.4730128873       12.1040169866  W2        7428            0.0000000000
     20555      6852  TIP3      H1             21.0611503705       17.3858328873       11.6963069866  W2        7428            0.0000000000
     20556      6852  TIP3      H2             21.9003503705       18.3290228873       12.5317769866  W2        7428            0.0000000000
     20557      6853  TIP3      OH2            26.5855603705       17.1950528873       15.4787169866  W2        7429            0.0000000000
     20558      6853  TIP3      H1             27.0058703705       16.7797628873       16.2317769866  W2        7429            0.0000000000
     20559      6853  TIP3      H2             25.6525203705       17.0163828873       15.5959169866  W2        7429            0.0000000000
     20560      6854  TIP3      OH2            29.9120503705       20.9505728873       16.3321669866  W2        7430            0.0000000000
     20561      6854  TIP3      H1             29.3980003705       20.8247928873       17.1297669866  W2        7430            0.0000000000
     20562      6854  TIP3      H2             29.7565203705       21.8628828873       16.0877869866  W2        7430            0.0000000000
     20563      6855  TIP3      OH2            30.6745403705       25.8115728873        2.0934669866  W2        7431            0.0000000000
     20564      6855  TIP3      H1             30.7166203705       25.5889628873        1.1634669866  W2        7431            0.0000000000
     20565      6855  TIP3      H2             31.5237503705       26.2102828873        2.2834569866  W2        7431            0.0000000000
     20566      6856  TIP3      OH2            26.2472903705       19.6873928873        2.7637969866  W2        7432            0.0000000000
     20567      6856  TIP3      H1             25.9937703705       19.7065528873        3.6866069866  W2        7432            0.0000000000
     20568      6856  TIP3      H2             25.9905003705       18.8159328873        2.4624169866  W2        7432            0.0000000000
     20569      6857  TIP3      OH2            22.0137903705       22.4384628873       13.1990369866  W2        7433            0.0000000000
     20570      6857  TIP3      H1             21.3720003705       22.3981928873       13.9080469866  W2        7433            0.0000000000
     20571      6857  TIP3      H2             22.0509903705       23.3649328873       12.9613369866  W2        7433            0.0000000000
     20572      6858  TIP3      OH2            22.0107003705       22.6594728873        8.1110369866  W2        7434            0.0000000000
     20573      6858  TIP3      H1             21.1179903705       22.3190828873        8.0524169866  W2        7434            0.0000000000
     20574      6858  TIP3      H2             22.4613603705       22.2825628873        7.3553569866  W2        7434            0.0000000000
     20575      6859  TIP3      OH2            27.5462503705       23.0755028873        6.9281169866  W2        7435            0.0000000000
     20576      6859  TIP3      H1             27.1372803705       23.8903628873        6.6365969866  W2        7435            0.0000000000
     20577      6859  TIP3      H2             28.2668703705       22.9355128873        6.3138269866  W2        7435            0.0000000000
     20578      6860  TIP3      OH2            28.5510203705       22.5215428873        9.7420869866  W2        7437            0.0000000000
     20579      6860  TIP3      H1             28.3554703705       23.1272228873        9.0271469866  W2        7437            0.0000000000
     20580      6860  TIP3      H2             28.7322803705       21.6880628873        9.3077169866  W2        7437            0.0000000000
     20581      6861  TIP3      OH2            19.7638403705       22.7588128873       15.0662369866  W2        7438            0.0000000000
     20582      6861  TIP3      H1             19.7257803705       23.1589728873       15.9349469866  W2        7438            0.0000000000
     20583      6861  TIP3      H2             19.2729503705       21.9420528873       15.1565269866  W2        7438            0.0000000000
     20584      6862  TIP3      OH2            23.1295803705       20.1330428873        1.8648369866  W2        7439            0.0000000000
     20585      6862  TIP3      H1             22.6986503705       19.6880528873        2.5945769866  W2        7439            0.0000000000
     20586      6862  TIP3      H2             22.4114503705       20.5046728873        1.3525869866  W2        7439            0.0000000000
     20587      6863  TIP3      OH2            16.3719203705       19.8749928873        8.9167069866  W2        7440            0.0000000000
     20588      6863  TIP3      H1             17.0026903705       19.8462028873        9.6360969866  W2        7440            0.0000000000
     20589      6863  TIP3      H2             16.8213503705       19.4498628873        8.1862969866  W2        7440            0.0000000000
     20590      6864  TIP3      OH2            17.6461303705       20.6211928873        4.3407469866  W2        7441            0.0000000000
     20591      6864  TIP3      H1             18.1203003705       21.2121828873        3.7558369866  W2        7441            0.0000000000
     20592      6864  TIP3      H2             16.9287703705       21.1514828873        4.6877569866  W2        7441            0.0000000000
     20593      6865  TIP3      OH2            27.8149403705       24.1596728873       14.4133269866  W2        7442            0.0000000000
     20594      6865  TIP3      H1             28.1384203705       23.5286428873       13.7703769866  W2        7442            0.0000000000
     20595      6865  TIP3      H2             27.3748703705       23.6248928873       15.0740669866  W2        7442            0.0000000000
     20596      6866  TIP3      OH2            24.5922303705       20.0872228873        9.1974469866  W2        7443            0.0000000000
     20597      6866  TIP3      H1             23.6813403705       20.1439028873        9.4860469866  W2        7443            0.0000000000
     20598      6866  TIP3      H2             25.0975203705       20.0267728873       10.0081669866  W2        7443            0.0000000000
     20599      6867  TIP3      OH2            19.4205703705       21.7158528873        8.0242069866  W2        7444            0.0000000000
     20600      6867  TIP3      H1             18.5313703705       21.8154028873        7.6841669866  W2        7444            0.0000000000
     20601      6867  TIP3      H2             19.7170603705       20.8741528873        7.6779969866  W2        7444            0.0000000000
     20602      6868  TIP3      OH2            23.0737503705       21.7161128873        5.6806669866  W2        7445            0.0000000000
     20603      6868  TIP3      H1             24.0053003705       21.8451128873        5.8589769866  W2        7445            0.0000000000
     20604      6868  TIP3      H2             22.8587803705       22.3855428873        5.0311369866  W2        7445            0.0000000000
     20605      6869  TIP3      OH2            28.9974203705       19.3218528873       12.4616269866  W2        7446            0.0000000000
     20606      6869  TIP3      H1             28.3205803705       19.4531628873       13.1255969866  W2        7446            0.0000000000
     20607      6869  TIP3      H2             28.5119103705       19.1668028873       11.6513969866  W2        7446            0.0000000000
     20608      6870  TIP3      OH2            21.7477703705       22.9103328873        3.2472769866  W2        7447            0.0000000000
     20609      6870  TIP3      H1             21.2052803705       22.5307128873        2.5560369866  W2        7447            0.0000000000
     20610      6870  TIP3      H2             22.5812603705       23.1048028873        2.8186869866  W2        7447            0.0000000000
     20611      6871  TIP3      OH2            25.9122003705       22.8745228873       11.0844069866  W2        7450            0.0000000000
     20612      6871  TIP3      H1             26.4765403705       22.3281828873       10.5373669866  W2        7450            0.0000000000
     20613      6871  TIP3      H2             25.7645403705       22.3527128873       11.8731669866  W2        7450            0.0000000000
     20614      6872  TIP3      OH2            20.9141703705       19.0111328873        7.5028869866  W2        7451            0.0000000000
     20615      6872  TIP3      H1             20.5971203705       18.1086628873        7.4674269866  W2        7451            0.0000000000
     20616      6872  TIP3      H2             21.6955803705       19.0128728873        6.9500469866  W2        7451            0.0000000000
     20617      6873  TIP3      OH2            24.5387903705       21.2631328873       13.4984469866  W2        7452            0.0000000000
     20618      6873  TIP3      H1             23.7033203705       21.7170828873       13.6086869866  W2        7452            0.0000000000
     20619      6873  TIP3      H2             25.0628503705       21.5389828873       14.2504369866  W2        7452            0.0000000000
     20620      6874  TIP3      OH2            25.0830503705       27.4759028873        5.1830869866  W2        7453            0.0000000000
     20621      6874  TIP3      H1             24.3381503705       26.9684328873        4.8608769866  W2        7453            0.0000000000
     20622      6874  TIP3      H2             24.9487703705       27.5247028873        6.1295669866  W2        7453            0.0000000000
     20623      6875  TIP3      OH2            32.2329403705       26.6087228873       13.9698469866  W2        7454            0.0000000000
     20624      6875  TIP3      H1             32.8748203705       27.0653528873       13.4260669866  W2        7454            0.0000000000
     20625      6875  TIP3      H2             31.4026303705       26.7219628873       13.5072569866  W2        7454            0.0000000000
     20626      6876  TIP3      OH2            28.9807303705       20.2898928873        3.3823469866  W2        7455            0.0000000000
     20627      6876  TIP3      H1             28.0421503705       20.4014528873        3.2312269866  W2        7455            0.0000000000
     20628      6876  TIP3      H2             29.2779403705       21.1465828873        3.6889169866  W2        7455            0.0000000000
     20629      6877  TIP3      OH2            26.6022603705       27.6602328873       16.4199969866  W2        7456            0.0000000000
     20630      6877  TIP3      H1             26.2568703705       27.2784728873       17.2269569866  W2        7456            0.0000000000
     20631      6877  TIP3      H2             26.4022703705       28.5935928873       16.4912869866  W2        7456            0.0000000000
     20632      6878  TIP3      OH2            29.6990803705       22.1571628873        5.0430869866  W2        7457            0.0000000000
     20633      6878  TIP3      H1             30.5909803705       22.0196628873        5.3622069866  W2        7457            0.0000000000
     20634      6878  TIP3      H2             29.7554403705       22.9477728873        4.5064369866  W2        7457            0.0000000000
     20635      6879  TIP3      OH2            20.2078803705       26.7709028873       10.9528769866  W2        7458            0.0000000000
     20636      6879  TIP3      H1             20.9526003705       26.7684728873       10.3515269866  W2        7458            0.0000000000
     20637      6879  TIP3      H2             20.2855403705       25.9472828873       11.4343869866  W2        7458            0.0000000000
     20638      6880  TIP3      OH2            27.2084603705       28.9343328873        4.2085469866  W2        7459            0.0000000000
     20639      6880  TIP3      H1             26.9133003705       29.7611228873        4.5900269866  W2        7459            0.0000000000
     20640      6880  TIP3      H2             26.5054603705       28.3150228873        4.4046869866  W2        7459            0.0000000000
     20641      6881  TIP3      OH2            17.2158503705       25.2315928873       16.2677269866  W2        7460            0.0000000000
     20642      6881  TIP3      H1             17.4387103705       24.8135528873       17.0994769866  W2        7460            0.0000000000
     20643      6881  TIP3      H2             16.6138603705       24.6190928873       15.8450069866  W2        7460            0.0000000000
     20644      6882  TIP3      OH2            28.8526203705       30.1217828873       16.3704969866  W2        7462            0.0000000000
     20645      6882  TIP3      H1             27.9520503705       30.3050428873       16.1028869866  W2        7462            0.0000000000
     20646      6882  TIP3      H2             28.8867303705       30.3807128873       17.2913769866  W2        7462            0.0000000000
     20647      6883  TIP3      OH2            34.5839503705       22.3665728873        4.7377569866  W2        7463            0.0000000000
     20648      6883  TIP3      H1             34.0295803705       21.9703728873        4.0655069866  W2        7463            0.0000000000
     20649      6883  TIP3      H2             34.6843103705       23.2770928873        4.4600869866  W2        7463            0.0000000000
     20650      6884  TIP3      OH2            32.8791203705       31.1526128873        5.2029669866  W2        7465            0.0000000000
     20651      6884  TIP3      H1             32.5062303705       30.3269928873        5.5120269866  W2        7465            0.0000000000
     20652      6884  TIP3      H2             33.1564703705       30.9695528873        4.3053069866  W2        7465            0.0000000000
     20653      6885  TIP3      OH2            30.0395103705       25.9605628873       12.2241569866  W2        7466            0.0000000000
     20654      6885  TIP3      H1             29.1112003705       25.7287528873       12.1970869866  W2        7466            0.0000000000
     20655      6885  TIP3      H2             30.4906203705       25.1835428873       11.8940369866  W2        7466            0.0000000000
     20656      6886  TIP3      OH2            22.5828203705       30.2887228873        8.3570269866  W2        7467            0.0000000000
     20657      6886  TIP3      H1             23.1100403705       31.0621628873        8.1569069866  W2        7467            0.0000000000
     20658      6886  TIP3      H2             21.7026703705       30.5136428873        8.0554269866  W2        7467            0.0000000000
     20659      6887  TIP3      OH2            18.3375903705       25.1511328873        2.9442669866  W2        7468            0.0000000000
     20660      6887  TIP3      H1             18.9535803705       25.7778528873        3.3237469866  W2        7468            0.0000000000
     20661      6887  TIP3      H2             17.4758503705       25.4671128873        3.2159169866  W2        7468            0.0000000000
     20662      6888  TIP3      OH2            24.0100503705       27.9517128873        7.9334569866  W2        7469            0.0000000000
     20663      6888  TIP3      H1             23.7690503705       28.8771528873        7.9749869866  W2        7469            0.0000000000
     20664      6888  TIP3      H2             23.2694103705       27.4928428873        8.3298469866  W2        7469            0.0000000000
     20665      6889  TIP3      OH2            24.5247103705       32.1010728873       14.2485669866  W2        7470            0.0000000000
     20666      6889  TIP3      H1             24.8871803705       32.9556328873       14.0150069866  W2        7470            0.0000000000
     20667      6889  TIP3      H2             25.0562303705       31.8092328873       14.9891969866  W2        7470            0.0000000000
     20668      6890  TIP3      OH2            22.6931303705       32.9734728873        7.4786769866  W2        7471            0.0000000000
     20669      6890  TIP3      H1             21.7431803705       33.0792128873        7.5300069866  W2        7471            0.0000000000
     20670      6890  TIP3      H2             23.0449403705       33.7942128873        7.8234269866  W2        7471            0.0000000000
     20671      6891  TIP3      OH2            28.0687903705       28.2001428873       13.9491269866  W2        7472            0.0000000000
     20672      6891  TIP3      H1             27.6429203705       27.9723128873       14.7755269866  W2        7472            0.0000000000
     20673      6891  TIP3      H2             28.6493703705       27.4613228873       13.7666569866  W2        7472            0.0000000000
     20674      6892  TIP3      OH2            30.2716803705       29.1291928873        3.0230269866  W2        7473            0.0000000000
     20675      6892  TIP3      H1             30.6249903705       28.7491728873        3.8273769866  W2        7473            0.0000000000
     20676      6892  TIP3      H2             29.3230303705       29.0356728873        3.1099569866  W2        7473            0.0000000000
     20677      6893  TIP3      OH2            30.7272103705       32.7520928873       16.4186069866  W2        7474            0.0000000000
     20678      6893  TIP3      H1             30.1255303705       32.1963828873       15.9232369866  W2        7474            0.0000000000
     20679      6893  TIP3      H2             31.0085803705       33.4190728873       15.7923469866  W2        7474            0.0000000000
     20680      6894  TIP3      OH2            34.7751203705       33.6084428873        3.2240469866  W2        7475            0.0000000000
     20681      6894  TIP3      H1             35.5189103705       34.1944928873        3.0842069866  W2        7475            0.0000000000
     20682      6894  TIP3      H2             34.0809303705       34.1770228873        3.5572869866  W2        7475            0.0000000000
     20683      6895  TIP3      OH2            18.8498003705       19.9848628873       15.8258669866  W2        7476            0.0000000000
     20684      6895  TIP3      H1             17.9570303705       20.3234028873       15.7582669866  W2        7476            0.0000000000
     20685      6895  TIP3      H2             18.7510803705       19.1294728873       16.2439469866  W2        7476            0.0000000000
     20686      6896  TIP3      OH2            31.1376103705       27.8013928873        5.2498169866  W2        7477            0.0000000000
     20687      6896  TIP3      H1             30.8603703705       27.0733228873        5.8059269866  W2        7477            0.0000000000
     20688      6896  TIP3      H2             32.0649103705       27.9205928873        5.4550769866  W2        7477            0.0000000000
     20689      6897  TIP3      OH2            18.5010003705       31.7893028873       14.2608069866  W2        7478            0.0000000000
     20690      6897  TIP3      H1             18.7180303705       30.8575428873       14.2297769866  W2        7478            0.0000000000
     20691      6897  TIP3      H2             18.7473503705       32.0638028873       15.1440869866  W2        7478            0.0000000000
     20692      6898  TIP3      OH2            24.3624603705       30.2408028873        1.4700269866  W2        7479            0.0000000000
     20693      6898  TIP3      H1             24.6014403705       29.4926128873        0.9229169866  W2        7479            0.0000000000
     20694      6898  TIP3      H2             24.0935903705       29.8529728873        2.3028069866  W2        7479            0.0000000000
     20695      6899  TIP3      OH2            23.2995203705       29.8111828873        3.9262869866  W2        7480            0.0000000000
     20696      6899  TIP3      H1             23.4463203705       29.2911628873        4.7163769866  W2        7480            0.0000000000
     20697      6899  TIP3      H2             23.2966903705       30.7179428873        4.2328769866  W2        7480            0.0000000000
     20698      6900  TIP3      OH2            19.7526303705       27.0635128873        4.4368269866  W2        7481            0.0000000000
     20699      6900  TIP3      H1             19.0665603705       27.4157628873        5.0037969866  W2        7481            0.0000000000
     20700      6900  TIP3      H2             20.2754203705       27.8264728873        4.1902569866  W2        7481            0.0000000000
     20701      6901  TIP3      OH2            27.5841403705       19.7258928873       14.7157269866  W2        7482            0.0000000000
     20702      6901  TIP3      H1             28.2829303705       19.7997628873       15.3656969866  W2        7482            0.0000000000
     20703      6901  TIP3      H2             27.2032803705       18.8613928873       14.8700169866  W2        7482            0.0000000000
     20704      6902  TIP3      OH2            28.3686303705       19.3780628873        5.8129569866  W2        7483            0.0000000000
     20705      6902  TIP3      H1             28.5884603705       19.8496028873        5.0094969866  W2        7483            0.0000000000
     20706      6902  TIP3      H2             28.9270303705       19.7723228873        6.4830169866  W2        7483            0.0000000000
     20707      6903  TIP3      OH2            26.0372403705       31.5085428873        4.6757069866  W2        7484            0.0000000000
     20708      6903  TIP3      H1             25.2208503705       32.0055128873        4.7281369866  W2        7484            0.0000000000
     20709      6903  TIP3      H2             26.5668703705       31.9838928873        4.0355869866  W2        7484            0.0000000000
     20710      6904  TIP3      OH2            25.5686203705       21.1059428873        6.6477969866  W2        7485            0.0000000000
     20711      6904  TIP3      H1             26.3808803705       21.6102628873        6.6939669866  W2        7485            0.0000000000
     20712      6904  TIP3      H2             25.3239203705       20.9609128873        7.5617569866  W2        7485            0.0000000000
     20713      6905  TIP3      OH2            26.1042603705       22.0922128873       15.8324569866  W2        7486            0.0000000000
     20714      6905  TIP3      H1             26.2232903705       22.6657528873       16.5894969866  W2        7486            0.0000000000
     20715      6905  TIP3      H2             26.7597203705       21.4041528873       15.9472369866  W2        7486            0.0000000000
     20716      6906  TIP3      OH2            26.4522903705       18.1872428873        7.5859069866  W2        7487            0.0000000000
     20717      6906  TIP3      H1             26.1056403705       18.8043028873        8.2303369866  W2        7487            0.0000000000
     20718      6906  TIP3      H2             27.1109803705       18.6878128873        7.1044569866  W2        7487            0.0000000000
     20719      6907  TIP3      OH2            23.3755503705       32.5522628873        4.6573969866  W2        7488            0.0000000000
     20720      6907  TIP3      H1             23.5364203705       33.3520128873        4.1566569866  W2        7488            0.0000000000
     20721      6907  TIP3      H2             23.1783303705       32.8588628873        5.5424569866  W2        7488            0.0000000000
     20722      6908  TIP3      OH2            22.1099903705       19.2501828873        4.2731569866  W2        7489            0.0000000000
     20723      6908  TIP3      H1             22.0264703705       20.1384928873        4.6197969866  W2        7489            0.0000000000
     20724      6908  TIP3      H2             23.0000203705       18.9848528873        4.5048369866  W2        7489            0.0000000000
     20725      6909  TIP3      OH2            32.3088403705       19.9992428873       16.6674269866  W2        7490            0.0000000000
     20726      6909  TIP3      H1             31.3924203705       20.2614128873       16.5797969866  W2        7490            0.0000000000
     20727      6909  TIP3      H2             32.6443403705       19.9961428873       15.7709569866  W2        7490            0.0000000000
     20728      6910  TIP3      OH2            30.9109403705       23.7493428873       10.7631569866  W2        7491            0.0000000000
     20729      6910  TIP3      H1             30.1133803705       23.3343628873       10.4346569866  W2        7491            0.0000000000
     20730      6910  TIP3      H2             31.3560503705       23.0587128873       11.2542069866  W2        7491            0.0000000000
     20731      6911  TIP3      OH2            20.3685203705       29.6774028873        3.3336069866  W2        7492            0.0000000000
     20732      6911  TIP3      H1             20.9606703705       30.3768828873        3.6098469866  W2        7492            0.0000000000
     20733      6911  TIP3      H2             20.8278203705       29.2443528873        2.6140669866  W2        7492            0.0000000000
     20734      6912  TIP3      OH2            18.6844403705       22.3417028873        2.4495469866  W2        7493            0.0000000000
     20735      6912  TIP3      H1             18.6397003705       23.2810128873        2.6282469866  W2        7493            0.0000000000
     20736      6912  TIP3      H2             17.7967603705       22.1061928873        2.1797569866  W2        7493            0.0000000000
     20737      6913  TIP3      OH2            31.9974003705       33.0055928873       12.3855069866  W2        7494            0.0000000000
     20738      6913  TIP3      H1             31.8418303705       33.6840328873       11.7284369866  W2        7494            0.0000000000
     20739      6913  TIP3      H2             32.9300403705       33.0775228873       12.5885669866  W2        7494            0.0000000000
     20740      6914  TIP3      OH2            19.4926403705       17.1233628873       11.1226469866  W2        7495            0.0000000000
     20741      6914  TIP3      H1             19.2636203705       17.1826128873       10.1951469866  W2        7495            0.0000000000
     20742      6914  TIP3      H2             19.0499803705       16.3319128873       11.4290569866  W2        7495            0.0000000000
     20743      6915  TIP3      OH2            18.4229703705       31.0640728873        7.2832269866  W2        7496            0.0000000000
     20744      6915  TIP3      H1             17.5908303705       31.5363428873        7.3103669866  W2        7496            0.0000000000
     20745      6915  TIP3      H2             18.9688003705       31.5738328873        6.6845369866  W2        7496            0.0000000000
     20746      6916  TIP3      OH2            26.4006403705       32.1039428873        1.6086269866  W2        7499            0.0000000000
     20747      6916  TIP3      H1             25.7567403705       31.4728028873        1.9299969866  W2        7499            0.0000000000
     20748      6916  TIP3      H2             27.1624703705       31.5727428873        1.3769769866  W2        7499            0.0000000000
     20749      6917  TIP3      OH2            31.0049303705       31.9209328873        1.8424269866  W2        7501            0.0000000000
     20750      6917  TIP3      H1             31.2879703705       31.1264528873        2.2951169866  W2        7501            0.0000000000
     20751      6917  TIP3      H2             31.7447203705       32.1540328873        1.2815369866  W2        7501            0.0000000000
     20752      6918  TIP3      OH2            21.9596603705       27.8304228873        1.6999169866  W2        7503            0.0000000000
     20753      6918  TIP3      H1             22.0240703705       27.0363828873        2.2305569866  W2        7503            0.0000000000
     20754      6918  TIP3      H2             22.6125803705       27.7117028873        1.0101169866  W2        7503            0.0000000000
     20755      6919  TIP3      OH2            27.3120003705       28.8775928873        1.4357169866  W2        7505            0.0000000000
     20756      6919  TIP3      H1             27.0434103705       29.0578028873        2.3366069866  W2        7505            0.0000000000
     20757      6919  TIP3      H2             27.1055603705       27.9522128873        1.3042969866  W2        7505            0.0000000000
     20758      6920  TIP3      OH2            30.0084203705       27.3723928873       16.3833269866  W2        7506            0.0000000000
     20759      6920  TIP3      H1             30.7539003705       27.9607628873       16.2637269866  W2        7506            0.0000000000
     20760      6920  TIP3      H2             29.2511003705       27.9543628873       16.4466369866  W2        7506            0.0000000000
     20761      6921  TIP3      OH2            23.1090403705       25.8030428873        4.0057169866  W2        7508            0.0000000000
     20762      6921  TIP3      H1             22.6492403705       25.3188728873        4.6915669866  W2        7508            0.0000000000
     20763      6921  TIP3      H2             23.3639103705       25.1345828873        3.3697669866  W2        7508            0.0000000000
     20764      6922  TIP3      OH2            22.3979703705       23.6957528873       16.3616769866  W2        7509            0.0000000000
     20765      6922  TIP3      H1             21.7795803705       24.3704128873       16.6421469866  W2        7509            0.0000000000
     20766      6922  TIP3      H2             22.7420903705       24.0171428873       15.5282969866  W2        7509            0.0000000000
     20767      6923  TIP3      OH2            24.1800803705       24.0462228873        2.2680369866  W2        7510            0.0000000000
     20768      6923  TIP3      H1             23.9995803705       23.8913428873        1.3408669866  W2        7510            0.0000000000
     20769      6923  TIP3      H2             25.1301303705       24.1540928873        2.3128269866  W2        7510            0.0000000000
     20770      6924  TIP3      OH2            33.5699103705       26.4006428873        1.7138469866  W2        7512            0.0000000000
     20771      6924  TIP3      H1             33.2963903705       25.9761928873        0.9006769866  W2        7512            0.0000000000
     20772      6924  TIP3      H2             33.6093203705       27.3320928873        1.4968869866  W2        7512            0.0000000000
     20773      6925  TIP3      OH2            22.7373403705       21.0508328873       17.4439869866  W2        7513            0.0000000000
     20774      6925  TIP3      H1             22.8874303705       20.3219628873       16.8419569866  W2        7513            0.0000000000
     20775      6925  TIP3      H2             22.7395803705       21.8280028873       16.8852069866  W2        7513            0.0000000000
     20776      6926  TIP3      OH2            23.1499103705       19.4204128873       14.9367269866  W2        7514            0.0000000000
     20777      6926  TIP3      H1             23.6856603705       19.8720828873       14.2846569866  W2        7514            0.0000000000
     20778      6926  TIP3      H2             22.2978703705       19.3123928873       14.5141369866  W2        7514            0.0000000000
     20779      6927  TIP3      OH2            24.7317503705       24.8600328873       15.1762469866  W2        7515            0.0000000000
     20780      6927  TIP3      H1             25.4822303705       24.7037828873       14.6030269866  W2        7515            0.0000000000
     20781      6927  TIP3      H2             24.3925803705       25.7116928873       14.9007969866  W2        7515            0.0000000000
     20782      6928  TIP3      OH2            23.9554603705       16.8769828873       15.3680869866  W2        7519            0.0000000000
     20783      6928  TIP3      H1             23.8574203705       17.8233028873       15.2627069866  W2        7519            0.0000000000
     20784      6928  TIP3      H2             23.2130803705       16.5043628873       14.8924369866  W2        7519            0.0000000000
     20785      6929  TIP3      OH2            24.0772503705       34.7365928873        3.2693969866  W2        7526            0.0000000000
     20786      6929  TIP3      H1             25.0103203705       34.8944628873        3.4132369866  W2        7526            0.0000000000
     20787      6929  TIP3      H2             23.8131303705       35.4118928873        2.6445469866  W2        7526            0.0000000000
     20788      6930  TIP3      OH2            17.6457403705       29.3729728873        2.7522069866  W2        7527            0.0000000000
     20789      6930  TIP3      H1             18.5596603705       29.4518628873        3.0255969866  W2        7527            0.0000000000
     20790      6930  TIP3      H2             17.6530503705       28.6859328873        2.0857669866  W2        7527            0.0000000000
     20791      6931  TIP3      OH2            16.2948003705       34.7658228873        7.8295969866  W2        7528            0.0000000000
     20792      6931  TIP3      H1             15.6475103705       34.3039928873        7.2967169866  W2        7528            0.0000000000
     20793      6931  TIP3      H2             16.6492603705       34.0941528873        8.4122169866  W2        7528            0.0000000000
     20794      6932  TIP3      OH2            17.1647203705       32.8465228873        9.6342169866  W2        7529            0.0000000000
     20795      6932  TIP3      H1             16.8304003705       31.9662528873        9.8062369866  W2        7529            0.0000000000
     20796      6932  TIP3      H2             17.3869603705       33.1920228873       10.4987769866  W2        7529            0.0000000000
     20797      6933  TIP3      OH2            34.7132003705       33.6561628873       12.6146969866  W2        7530            0.0000000000
     20798      6933  TIP3      H1             34.6918703705       33.8410028873       13.5536369866  W2        7530            0.0000000000
     20799      6933  TIP3      H2             35.4038203705       34.2245628873       12.2738369866  W2        7530            0.0000000000
     20800      6934  TIP3      OH2            34.2764903705       33.2232728873       15.5366069866  W2        7531            0.0000000000
     20801      6934  TIP3      H1             33.7893603705       32.4876828873       15.1653469866  W2        7531            0.0000000000
     20802      6934  TIP3      H2             34.8257603705       32.8296628873       16.2145469866  W2        7531            0.0000000000
     20803      6935  TIP3      OH2            34.0281903705       27.2694528873        5.6888869866  W2        7533            0.0000000000
     20804      6935  TIP3      H1             34.8783303705       27.6905428873        5.8160469866  W2        7533            0.0000000000
     20805      6935  TIP3      H2             34.0337003705       26.5294628873        6.2960269866  W2        7533            0.0000000000
     20806      6936  TIP3      OH2            34.4227503705       25.3231928873        7.5124569866  W2        7534            0.0000000000
     20807      6936  TIP3      H1             33.6962103705       24.8434528873        7.9102169866  W2        7534            0.0000000000
     20808      6936  TIP3      H2             35.0040803705       25.5286628873        8.2446169866  W2        7534            0.0000000000
     20809      6937  TIP3      OH2            34.1818703705       28.1079428873       12.4602169866  W2        7535            0.0000000000
     20810      6937  TIP3      H1             35.0152903705       27.7299428873       12.1795769866  W2        7535            0.0000000000
     20811      6937  TIP3      H2             34.2939003705       29.0510628873       12.3411269866  W2        7535            0.0000000000
     20812      6938  TIP3      OH2            32.6681003705       30.9856928873       14.7670569866  W2        7536            0.0000000000
     20813      6938  TIP3      H1             32.0206303705       31.3108428873       15.3925769866  W2        7536            0.0000000000
     20814      6938  TIP3      H2             32.1505003705       30.5454628873       14.0928869866  W2        7536            0.0000000000
     20815      6939  TIP3      OH2            34.6910603705       25.2240428873        3.9035869866  W2        7537            0.0000000000
     20816      6939  TIP3      H1             34.1691703705       25.5804528873        3.1846769866  W2        7537            0.0000000000
     20817      6939  TIP3      H2             34.6579803705       25.8988228873        4.5816769866  W2        7537            0.0000000000
     20818      6940  TIP3      OH2            33.0399603705       22.4636028873        2.4542969866  W2        7538            0.0000000000
     20819      6940  TIP3      H1             33.1364003705       23.1303028873        1.7742669866  W2        7538            0.0000000000
     20820      6940  TIP3      H2             32.8999203705       21.6482328873        1.9728469866  W2        7538            0.0000000000
     20821      6941  TIP3      OH2            32.2094303705       23.8438428873        8.0753269866  W2        7539            0.0000000000
     20822      6941  TIP3      H1             32.0593103705       22.8987028873        8.0551069866  W2        7539            0.0000000000
     20823      6941  TIP3      H2             31.8558803705       24.1249828873        8.9192369866  W2        7539            0.0000000000
     20824      6942  TIP3      OH2            17.2446703705       25.9220628873       12.0857069866  W2        7540            0.0000000000
     20825      6942  TIP3      H1             17.4289603705       25.8402328873       11.1499969866  W2        7540            0.0000000000
     20826      6942  TIP3      H2             18.0939603705       25.7977628873       12.5093469866  W2        7540            0.0000000000
     20827      6943  TIP3      OH2            32.2873403705       19.8715828873        1.5718469866  W2        7543            0.0000000000
     20828      6943  TIP3      H1             32.8979203705       19.5002628873        2.2086669866  W2        7543            0.0000000000
     20829      6943  TIP3      H2             31.4504903705       19.4502728873        1.7678469866  W2        7543            0.0000000000
     20830      6944  TIP3      OH2            31.9199103705       21.4264228873        6.5378369866  W2        7544            0.0000000000
     20831      6944  TIP3      H1             32.1996203705       20.5194628873        6.6620069866  W2        7544            0.0000000000
     20832      6944  TIP3      H2             32.6790803705       21.8605728873        6.1487569866  W2        7544            0.0000000000
     20833      6945  TIP3      OH2            32.5317403705       22.0081628873       11.9737269866  W2        7545            0.0000000000
     20834      6945  TIP3      H1             33.4645403705       22.2201528873       11.9393269866  W2        7545            0.0000000000
     20835      6945  TIP3      H2             32.2964903705       22.1093728873       12.8960269866  W2        7545            0.0000000000
     20836      6946  TIP3      OH2            32.5609303705       22.7446928873       14.7496669866  W2        7546            0.0000000000
     20837      6946  TIP3      H1             31.7180603705       23.0127328873       15.1156469866  W2        7546            0.0000000000
     20838      6946  TIP3      H2             33.0033603705       23.5668828873       14.5387769866  W2        7546            0.0000000000
     20839      6947  TIP3      OH2            32.5333903705       18.6893528873        6.5860369866  W2        7549            0.0000000000
     20840      6947  TIP3      H1             32.7158903705       18.2405028873        7.4115369866  W2        7549            0.0000000000
     20841      6947  TIP3      H2             31.9336803705       18.1047928873        6.1224969866  W2        7549            0.0000000000
     20842      6948  TIP3      OH2            18.0634003705       19.5047228873       11.1178769866  W2        7550            0.0000000000
     20843      6948  TIP3      H1             18.5085603705       18.7129728873       11.4198469866  W2        7550            0.0000000000
     20844      6948  TIP3      H2             18.5297003705       20.2212428873       11.5484369866  W2        7550            0.0000000000
     20845      6949  TIP3      OH2            16.3674303705       22.5040228873       12.1868969866  W2        7551            0.0000000000
     20846      6949  TIP3      H1             16.8594103705       22.2830728873       11.3960969866  W2        7551            0.0000000000
     20847      6949  TIP3      H2             16.7295203705       23.3443628873       12.4678469866  W2        7551            0.0000000000
     20848      6950  TIP3      OH2            34.4000103705       18.7571628873        3.1140669866  W2        7553            0.0000000000
     20849      6950  TIP3      H1             34.8122703705       18.0357328873        2.6388669866  W2        7553            0.0000000000
     20850      6950  TIP3      H2             35.0816603705       19.4266228873        3.1724969866  W2        7553            0.0000000000
     20851      6951  TIP3      OH2            16.6810803705       18.7619328873        6.2411369866  W2        7554            0.0000000000
     20852      6951  TIP3      H1             15.7559203705       18.9705928873        6.1116869866  W2        7554            0.0000000000
     20853      6951  TIP3      H2             17.1350703705       19.2460128873        5.5513669866  W2        7554            0.0000000000
     20854      6952  TIP3      OH2            31.4518003705       33.7461028873        8.1868769866  W2        7555            0.0000000000
     20855      6952  TIP3      H1             32.1040903705       33.3983128873        7.5787869866  W2        7555            0.0000000000
     20856      6952  TIP3      H2             31.9621803705       34.2344228873        8.8328469866  W2        7555            0.0000000000
     20857      6953  TIP3      OH2            16.6446203705       17.4998328873       14.5853869866  W2        7556            0.0000000000
     20858      6953  TIP3      H1             15.9796703705       17.2538628873       15.2284769866  W2        7556            0.0000000000
     20859      6953  TIP3      H2             16.2017503705       18.1218728873       14.0081869866  W2        7556            0.0000000000
     20860      6954  TIP3      OH2            21.7908403705       31.6493628873       14.9883669866  W2        7558            0.0000000000
     20861      6954  TIP3      H1             21.3659503705       32.4592128873       14.7058269866  W2        7558            0.0000000000
     20862      6954  TIP3      H2             22.6951203705       31.7347728873       14.6863469866  W2        7558            0.0000000000
     20863      6955  TIP3      OH2            28.4470203705       34.3342528873       17.1918769866  W2        7560            0.0000000000
     20864      6955  TIP3      H1             29.1239103705       33.7014828873       16.9517969866  W2        7560            0.0000000000
     20865      6955  TIP3      H2             28.7689003705       34.7353028873       17.9992069866  W2        7560            0.0000000000
     20866      6956  TIP3      OH2            33.3644003705       16.9238028873       16.2713769866  W2        7561            0.0000000000
     20867      6956  TIP3      H1             32.5517503705       17.2488328873       15.8838469866  W2        7561            0.0000000000
     20868      6956  TIP3      H2             33.5972503705       16.1636528873       15.7382869866  W2        7561            0.0000000000
     20869      6957  TIP3      OH2            19.1925103705       34.9057528873       15.0358969866  W2        7562            0.0000000000
     20870      6957  TIP3      H1             18.4721503705       35.3458528873       14.5846669866  W2        7562            0.0000000000
     20871      6957  TIP3      H2             18.8269103705       34.6552228873       15.8842969866  W2        7562            0.0000000000
     20872      6958  TIP3      OH2            21.6597703705       34.5061428873       14.0656169866  W2        7563            0.0000000000
     20873      6958  TIP3      H1             20.7949903705       34.5779928873       14.4696269866  W2        7563            0.0000000000
     20874      6958  TIP3      H2             21.6046703705       35.0528728873       13.2818669866  W2        7563            0.0000000000
     20875      6959  TIP3      OH2            26.3703303705       34.3940328873       13.2412169866  W2        7564            0.0000000000
     20876      6959  TIP3      H1             25.9137303705       34.9230028873       12.5870569866  W2        7564            0.0000000000
     20877      6959  TIP3      H2             26.5331303705       34.9971728873       13.9664469866  W2        7564            0.0000000000
     20878      6960  TIP3      OH2            28.6979603705       33.2719928873       14.1862469866  W2        7565            0.0000000000
     20879      6960  TIP3      H1             27.7933303705       33.4370128873       13.9204569866  W2        7565            0.0000000000
     20880      6960  TIP3      H2             29.1268203705       34.1252128873       14.1205869866  W2        7565            0.0000000000
     20881      6961  TIP3      OH2            31.3021503705       34.8419028873       14.4810269866  W2        7566            0.0000000000
     20882      6961  TIP3      H1             31.1203503705       35.7577928873       14.2705169866  W2        7566            0.0000000000
     20883      6961  TIP3      H2             31.4789303705       34.4316128873       13.6344869866  W2        7566            0.0000000000
     20884      6962  TIP3      OH2            18.6073203705       33.5290028873       11.9460769866  W2        7567            0.0000000000
     20885      6962  TIP3      H1             18.5889203705       33.1035128873       12.8033069866  W2        7567            0.0000000000
     20886      6962  TIP3      H2             19.4121103705       33.2105028873       11.5372969866  W2        7567            0.0000000000
     20887      6963  TIP3      OH2            20.7486303705       32.2388728873       10.6010669866  W2        7568            0.0000000000
     20888      6963  TIP3      H1             20.5297003705       31.3226128873       10.7706669866  W2        7568            0.0000000000
     20889      6963  TIP3      H2             21.5728503705       32.3789128873       11.0672069866  W2        7568            0.0000000000
     20890      6964  TIP3      OH2            23.2858803705       32.7088028873       11.4498669866  W2        7569            0.0000000000
     20891      6964  TIP3      H1             23.4984503705       31.8207028873       11.1629569866  W2        7569            0.0000000000
     20892      6964  TIP3      H2             23.3503903705       32.6745728873       12.4042669866  W2        7569            0.0000000000
     20893      6965  TIP3      OH2            26.7942503705       18.3728628873       10.5941969866  W2        7570            0.0000000000
     20894      6965  TIP3      H1             26.1199303705       17.7434228873       10.8497769866  W2        7570            0.0000000000
     20895      6965  TIP3      H2             27.3581703705       17.8887528873        9.9909869866  W2        7570            0.0000000000
     20896      6966  TIP3      OH2            31.9369703705       16.4802628873       10.7069069866  W2        7571            0.0000000000
     20897      6966  TIP3      H1             32.5407303705       17.0278028873       10.2050069866  W2        7571            0.0000000000
     20898      6966  TIP3      H2             31.0671703705       16.7993028873       10.4663169866  W2        7571            0.0000000000
     20899      6967  TIP3      OH2            33.6640103705       17.6191328873        9.0399969866  W2        7572            0.0000000000
     20900      6967  TIP3      H1             34.2757603705       17.1047028873        8.5133569866  W2        7572            0.0000000000
     20901      6967  TIP3      H2             34.0463503705       18.4963428873        9.0634369866  W2        7572            0.0000000000
     20902      6968  TIP3      OH2            19.1210003705       17.0068928873        8.4161869866  W2        7573            0.0000000000
     20903      6968  TIP3      H1             18.3439803705       16.7723828873        7.9087769866  W2        7573            0.0000000000
     20904      6968  TIP3      H2             19.6513603705       16.2101028873        8.4249869866  W2        7573            0.0000000000
     20905      6969  TIP3      OH2            17.9573403705       16.8047028873        4.2197969866  W2        7574            0.0000000000
     20906      6969  TIP3      H1             18.3964103705       17.4157528873        3.6281469866  W2        7574            0.0000000000
     20907      6969  TIP3      H2             17.3235803705       17.3431128873        4.6937969866  W2        7574            0.0000000000
     20908      6970  TIP3      OH2            23.7002603705       16.9336028873        8.2294969866  W2        7575            0.0000000000
     20909      6970  TIP3      H1             24.5746003705       17.3220328873        8.1999269866  W2        7575            0.0000000000
     20910      6970  TIP3      H2             23.5643403705       16.7183828873        9.1522169866  W2        7575            0.0000000000
     20911      6971  TIP3      OH2            29.2571003705       16.9635828873        9.8786669866  W2        7576            0.0000000000
     20912      6971  TIP3      H1             29.3332603705       17.0587428873        8.9292669866  W2        7576            0.0000000000
     20913      6971  TIP3      H2             28.9820203705       16.0558728873       10.0075769866  W2        7576            0.0000000000
     20914      6972  TIP3      OH2            30.6103603705       16.9893628873        5.5711669866  W2        7577            0.0000000000
     20915      6972  TIP3      H1             29.9074703705       17.6042828873        5.3613069866  W2        7577            0.0000000000
     20916      6972  TIP3      H2             30.1655003705       16.1520328873        5.7022569866  W2        7577            0.0000000000
     20917      6973  TIP3      OH2            17.8582903705       32.7529228873        5.1173069866  W2        7578            0.0000000000
     20918      6973  TIP3      H1             17.1732803705       32.7148128873        4.4498169866  W2        7578            0.0000000000
     20919      6973  TIP3      H2             17.8620103705       33.6656828873        5.4055169866  W2        7578            0.0000000000
     20920      6974  TIP3      OH2            19.8182503705       18.7208528873        2.6622069866  W2        7579            0.0000000000
     20921      6974  TIP3      H1             20.3095903705       18.0910928873        2.1347569866  W2        7579            0.0000000000
     20922      6974  TIP3      H2             20.4418803705       19.0167928873        3.3253269866  W2        7579            0.0000000000
     20923      6975  TIP3      OH2            24.8442603705       19.0140028873        5.1192569866  W2        7580            0.0000000000
     20924      6975  TIP3      H1             25.0223903705       18.3673228873        5.8021169866  W2        7580            0.0000000000
     20925      6975  TIP3      H2             24.7908803705       19.8477728873        5.5863669866  W2        7580            0.0000000000
     20926      6976  TIP3      OH2            26.7226403705       33.9624128873        3.5149269866  W2        7581            0.0000000000
     20927      6976  TIP3      H1             27.5886603705       34.3291528873        3.3367469866  W2        7581            0.0000000000
     20928      6976  TIP3      H2             26.4759203705       33.5232128873        2.7010069866  W2        7581            0.0000000000
     20929      6977  TIP3      OH2            33.4316003705       33.5254428873        6.1940369866  W2        7582            0.0000000000
     20930      6977  TIP3      H1             33.2373103705       32.7776528873        5.6289969866  W2        7582            0.0000000000
     20931      6977  TIP3      H2             33.3926103705       34.2834528873        5.6108269866  W2        7582            0.0000000000
     20932      6978  TIP3      OH2            19.6764103705       33.6730028873        2.1425169866  W2        7585            0.0000000000
     20933      6978  TIP3      H1             19.4088703705       33.9592928873        3.0158269866  W2        7585            0.0000000000
     20934      6978  TIP3      H2             20.4476703705       33.1269228873        2.2947669866  W2        7585            0.0000000000
     20935      6979  TIP3      OH2            38.3568903705       25.0324028873       13.3867469866  W2        7588            0.0000000000
     20936      6979  TIP3      H1             38.3981003705       24.4067328873       14.1099869866  W2        7588            0.0000000000
     20937      6979  TIP3      H2             39.0596603705       25.6562628873       13.5687869866  W2        7588            0.0000000000
     20938      6980  TIP3      OH2            39.2802003705       29.4822928873       11.9216569866  W2        7589            0.0000000000
     20939      6980  TIP3      H1             38.9107203705       28.6803428873       11.5520869866  W2        7589            0.0000000000
     20940      6980  TIP3      H2             40.2213103705       29.3137828873       11.9679969866  W2        7589            0.0000000000
     20941      6981  TIP3      OH2            35.8902503705       23.1425528873        7.3145369866  W2        7590            0.0000000000
     20942      6981  TIP3      H1             35.4425903705       23.9884228873        7.2961869866  W2        7590            0.0000000000
     20943      6981  TIP3      H2             35.3293703705       22.5629728873        6.7990469866  W2        7590            0.0000000000
     20944      6982  TIP3      OH2            36.6008603705       25.3045128873        9.4403369866  W2        7591            0.0000000000
     20945      6982  TIP3      H1             36.8142103705       24.5346728873        9.9676369866  W2        7591            0.0000000000
     20946      6982  TIP3      H2             37.3386203705       25.3941828873        8.8370969866  W2        7591            0.0000000000
     20947      6983  TIP3      OH2            37.2935103705       22.7427928873       10.5619569866  W2        7592            0.0000000000
     20948      6983  TIP3      H1             37.9471703705       22.1929628873       10.9939669866  W2        7592            0.0000000000
     20949      6983  TIP3      H2             37.3174403705       22.4686928873        9.6451569866  W2        7592            0.0000000000
     20950      6984  TIP3      OH2            39.4835503705       19.2640528873       13.8738969866  W2        7593            0.0000000000
     20951      6984  TIP3      H1             39.2647203705       19.7941128873       13.1074969866  W2        7593            0.0000000000
     20952      6984  TIP3      H2             38.8156403705       19.4906028873       14.5210369866  W2        7593            0.0000000000
     20953      6985  TIP3      OH2            39.0772803705       21.1562328873       11.8261169866  W2        7594            0.0000000000
     20954      6985  TIP3      H1             39.6909103705       21.7889928873       12.1993569866  W2        7594            0.0000000000
     20955      6985  TIP3      H2             39.5893503705       20.6837328873       11.1698069866  W2        7594            0.0000000000
     20956      6986  TIP3      OH2            40.4601203705       28.9039228873       14.9484169866  W2        7595            0.0000000000
     20957      6986  TIP3      H1             40.4548803705       29.7832728873       14.5703469866  W2        7595            0.0000000000
     20958      6986  TIP3      H2             39.6065303705       28.8203328873       15.3734069866  W2        7595            0.0000000000
     20959      6987  TIP3      OH2            36.5812103705       28.5747128873        5.7303469866  W2        7596            0.0000000000
     20960      6987  TIP3      H1             36.3093003705       28.8038128873        4.8416369866  W2        7596            0.0000000000
     20961      6987  TIP3      H2             36.6267803705       29.4125928873        6.1908769866  W2        7596            0.0000000000
     20962      6988  TIP3      OH2            38.9942603705       25.6130128873       16.2403169866  W2        7597            0.0000000000
     20963      6988  TIP3      H1             39.0645803705       26.2636928873       16.9388169866  W2        7597            0.0000000000
     20964      6988  TIP3      H2             38.1034803705       25.7157628873       15.9054069866  W2        7597            0.0000000000
     20965      6989  TIP3      OH2            39.8179203705       25.3165028873        6.2503369866  W2        7599            0.0000000000
     20966      6989  TIP3      H1             39.5260503705       26.0846728873        5.7594669866  W2        7599            0.0000000000
     20967      6989  TIP3      H2             39.1434403705       24.6571228873        6.0874769866  W2        7599            0.0000000000
     20968      6990  TIP3      OH2            35.9109303705       27.6794228873       15.0653169866  W2        7600            0.0000000000
     20969      6990  TIP3      H1             35.4097703705       27.6513628873       14.2502869866  W2        7600            0.0000000000
     20970      6990  TIP3      H2             35.9163003705       26.7737428873       15.3750469866  W2        7600            0.0000000000
     20971      6991  TIP3      OH2            35.6612003705       30.4598028873       11.9493369866  W2        7601            0.0000000000
     20972      6991  TIP3      H1             36.6072603705       30.3155028873       11.9302869866  W2        7601            0.0000000000
     20973      6991  TIP3      H2             35.5488303705       31.2440828873       12.4864569866  W2        7601            0.0000000000
     20974      6992  TIP3      OH2            38.9054103705       33.2607628873        8.0948069866  W2        7602            0.0000000000
     20975      6992  TIP3      H1             39.0574503705       32.9128028873        8.9734569866  W2        7602            0.0000000000
     20976      6992  TIP3      H2             38.0544503705       32.9044928873        7.8395269866  W2        7602            0.0000000000
     20977      6993  TIP3      OH2            38.1599803705       29.0029628873       16.1085969866  W2        7603            0.0000000000
     20978      6993  TIP3      H1             38.3761103705       28.6415228873       16.9681769866  W2        7603            0.0000000000
     20979      6993  TIP3      H2             37.3044503705       28.6283428873       15.8989469866  W2        7603            0.0000000000
     20980      6994  TIP3      OH2            38.6198403705       22.7588128873       15.0662369866  W2        7604            0.0000000000
     20981      6994  TIP3      H1             38.5817803705       23.1589728873       15.9349469866  W2        7604            0.0000000000
     20982      6994  TIP3      H2             38.1289503705       21.9420528873       15.1565269866  W2        7604            0.0000000000
     20983      6995  TIP3      OH2            35.2279203705       19.8749928873        8.9167069866  W2        7605            0.0000000000
     20984      6995  TIP3      H1             35.8586903705       19.8462028873        9.6360969866  W2        7605            0.0000000000
     20985      6995  TIP3      H2             35.6773503705       19.4498628873        8.1862969866  W2        7605            0.0000000000
     20986      6996  TIP3      OH2            36.5021303705       20.6211928873        4.3407469866  W2        7606            0.0000000000
     20987      6996  TIP3      H1             36.9763003705       21.2121828873        3.7558369866  W2        7606            0.0000000000
     20988      6996  TIP3      H2             35.7847703705       21.1514828873        4.6877569866  W2        7606            0.0000000000
     20989      6997  TIP3      OH2            38.2765703705       21.7158528873        8.0242069866  W2        7607            0.0000000000
     20990      6997  TIP3      H1             37.3873703705       21.8154028873        7.6841669866  W2        7607            0.0000000000
     20991      6997  TIP3      H2             38.5730603705       20.8741528873        7.6779969866  W2        7607            0.0000000000
     20992      6998  TIP3      OH2            39.7701703705       19.0111328873        7.5028869866  W2        7609            0.0000000000
     20993      6998  TIP3      H1             39.4531203705       18.1086628873        7.4674269866  W2        7609            0.0000000000
     20994      6998  TIP3      H2             40.5515803705       19.0128728873        6.9500469866  W2        7609            0.0000000000
     20995      6999  TIP3      OH2            39.0638803705       26.7709028873       10.9528769866  W2        7610            0.0000000000
     20996      6999  TIP3      H1             39.8086003705       26.7684728873       10.3515269866  W2        7610            0.0000000000
     20997      6999  TIP3      H2             39.1415403705       25.9472828873       11.4343869866  W2        7610            0.0000000000
     20998      7000  TIP3      OH2            36.0718503705       25.2315928873       16.2677269866  W2        7611            0.0000000000
     20999      7000  TIP3      H1             36.2947103705       24.8135528873       17.0994769866  W2        7611            0.0000000000
     21000      7000  TIP3      H2             35.4698603705       24.6190928873       15.8450069866  W2        7611            0.0000000000
     21001      7001  TIP3      OH2            37.1935903705       25.1511328873        2.9442669866  W2        7612            0.0000000000
     21002      7001  TIP3      H1             37.8095803705       25.7778528873        3.3237469866  W2        7612            0.0000000000
     21003      7001  TIP3      H2             36.3318503705       25.4671128873        3.2159169866  W2        7612            0.0000000000
     21004      7002  TIP3      OH2            37.7058003705       19.9848628873       15.8258669866  W2        7613            0.0000000000
     21005      7002  TIP3      H1             36.8130303705       20.3234028873       15.7582669866  W2        7613            0.0000000000
     21006      7002  TIP3      H2             37.6070803705       19.1294728873       16.2439469866  W2        7613            0.0000000000
     21007      7003  TIP3      OH2            37.3570003705       31.7893028873       14.2608069866  W2        7614            0.0000000000
     21008      7003  TIP3      H1             37.5740303705       30.8575428873       14.2297769866  W2        7614            0.0000000000
     21009      7003  TIP3      H2             37.6033503705       32.0638028873       15.1440869866  W2        7614            0.0000000000
     21010      7004  TIP3      OH2            38.6086303705       27.0635128873        4.4368269866  W2        7615            0.0000000000
     21011      7004  TIP3      H1             37.9225603705       27.4157628873        5.0037969866  W2        7615            0.0000000000
     21012      7004  TIP3      H2             39.1314203705       27.8264728873        4.1902569866  W2        7615            0.0000000000
     21013      7005  TIP3      OH2            39.2245203705       29.6774028873        3.3336069866  W2        7616            0.0000000000
     21014      7005  TIP3      H1             39.8166703705       30.3768828873        3.6098469866  W2        7616            0.0000000000
     21015      7005  TIP3      H2             39.6838203705       29.2443528873        2.6140669866  W2        7616            0.0000000000
     21016      7006  TIP3      OH2            37.5404403705       22.3417028873        2.4495469866  W2        7617            0.0000000000
     21017      7006  TIP3      H1             37.4957003705       23.2810128873        2.6282469866  W2        7617            0.0000000000
     21018      7006  TIP3      H2             36.6527603705       22.1061928873        2.1797569866  W2        7617            0.0000000000
     21019      7007  TIP3      OH2            38.3486403705       17.1233628873       11.1226469866  W2        7618            0.0000000000
     21020      7007  TIP3      H1             38.1196203705       17.1826128873       10.1951469866  W2        7618            0.0000000000
     21021      7007  TIP3      H2             37.9059803705       16.3319128873       11.4290569866  W2        7618            0.0000000000
     21022      7008  TIP3      OH2            37.2789703705       31.0640728873        7.2832269866  W2        7619            0.0000000000
     21023      7008  TIP3      H1             36.4468303705       31.5363428873        7.3103669866  W2        7619            0.0000000000
     21024      7008  TIP3      H2             37.8248003705       31.5738328873        6.6845369866  W2        7619            0.0000000000
     21025      7009  TIP3      OH2            36.5017403705       29.3729728873        2.7522069866  W2        7625            0.0000000000
     21026      7009  TIP3      H1             37.4156603705       29.4518628873        3.0255969866  W2        7625            0.0000000000
     21027      7009  TIP3      H2             36.5090503705       28.6859328873        2.0857669866  W2        7625            0.0000000000
     21028      7010  TIP3      OH2            35.1508003705       34.7658228873        7.8295969866  W2        7626            0.0000000000
     21029      7010  TIP3      H1             34.5035103705       34.3039928873        7.2967169866  W2        7626            0.0000000000
     21030      7010  TIP3      H2             35.5052603705       34.0941528873        8.4122169866  W2        7626            0.0000000000
     21031      7011  TIP3      OH2            36.0207203705       32.8465228873        9.6342169866  W2        7627            0.0000000000
     21032      7011  TIP3      H1             35.6864003705       31.9662528873        9.8062369866  W2        7627            0.0000000000
     21033      7011  TIP3      H2             36.2429603705       33.1920228873       10.4987769866  W2        7627            0.0000000000
     21034      7012  TIP3      OH2            36.1006703705       25.9220628873       12.0857069866  W2        7628            0.0000000000
     21035      7012  TIP3      H1             36.2849603705       25.8402328873       11.1499969866  W2        7628            0.0000000000
     21036      7012  TIP3      H2             36.9499603705       25.7977628873       12.5093469866  W2        7628            0.0000000000
     21037      7013  TIP3      OH2            36.9194003705       19.5047228873       11.1178769866  W2        7630            0.0000000000
     21038      7013  TIP3      H1             37.3645603705       18.7129728873       11.4198469866  W2        7630            0.0000000000
     21039      7013  TIP3      H2             37.3857003705       20.2212428873       11.5484369866  W2        7630            0.0000000000
     21040      7014  TIP3      OH2            35.2234303705       22.5040228873       12.1868969866  W2        7631            0.0000000000
     21041      7014  TIP3      H1             35.7154103705       22.2830728873       11.3960969866  W2        7631            0.0000000000
     21042      7014  TIP3      H2             35.5855203705       23.3443628873       12.4678469866  W2        7631            0.0000000000
     21043      7015  TIP3      OH2            35.5370803705       18.7619328873        6.2411369866  W2        7632            0.0000000000
     21044      7015  TIP3      H1             34.6119203705       18.9705928873        6.1116869866  W2        7632            0.0000000000
     21045      7015  TIP3      H2             35.9910703705       19.2460128873        5.5513669866  W2        7632            0.0000000000
     21046      7016  TIP3      OH2            35.5006203705       17.4998328873       14.5853869866  W2        7633            0.0000000000
     21047      7016  TIP3      H1             34.8356703705       17.2538628873       15.2284769866  W2        7633            0.0000000000
     21048      7016  TIP3      H2             35.0577503705       18.1218728873       14.0081869866  W2        7633            0.0000000000
     21049      7017  TIP3      OH2            38.0485103705       34.9057528873       15.0358969866  W2        7635            0.0000000000
     21050      7017  TIP3      H1             37.3281503705       35.3458528873       14.5846669866  W2        7635            0.0000000000
     21051      7017  TIP3      H2             37.6829103705       34.6552228873       15.8842969866  W2        7635            0.0000000000
     21052      7018  TIP3      OH2            40.5157703705       34.5061428873       14.0656169866  W2        7636            0.0000000000
     21053      7018  TIP3      H1             39.6509903705       34.5779928873       14.4696269866  W2        7636            0.0000000000
     21054      7018  TIP3      H2             40.4606703705       35.0528728873       13.2818669866  W2        7636            0.0000000000
     21055      7019  TIP3      OH2            37.4633203705       33.5290028873       11.9460769866  W2        7637            0.0000000000
     21056      7019  TIP3      H1             37.4449203705       33.1035128873       12.8033069866  W2        7637            0.0000000000
     21057      7019  TIP3      H2             38.2681103705       33.2105028873       11.5372969866  W2        7637            0.0000000000
     21058      7020  TIP3      OH2            39.6046303705       32.2388728873       10.6010669866  W2        7638            0.0000000000
     21059      7020  TIP3      H1             39.3857003705       31.3226128873       10.7706669866  W2        7638            0.0000000000
     21060      7020  TIP3      H2             40.4288503705       32.3789128873       11.0672069866  W2        7638            0.0000000000
     21061      7021  TIP3      OH2            37.9770003705       17.0068928873        8.4161869866  W2        7639            0.0000000000
     21062      7021  TIP3      H1             37.1999803705       16.7723828873        7.9087769866  W2        7639            0.0000000000
     21063      7021  TIP3      H2             38.5073603705       16.2101028873        8.4249869866  W2        7639            0.0000000000
     21064      7022  TIP3      OH2            36.8133403705       16.8047028873        4.2197969866  W2        7640            0.0000000000
     21065      7022  TIP3      H1             37.2524103705       17.4157528873        3.6281469866  W2        7640            0.0000000000
     21066      7022  TIP3      H2             36.1795803705       17.3431128873        4.6937969866  W2        7640            0.0000000000
     21067      7023  TIP3      OH2            36.7142903705       32.7529228873        5.1173069866  W2        7641            0.0000000000
     21068      7023  TIP3      H1             36.0292803705       32.7148128873        4.4498169866  W2        7641            0.0000000000
     21069      7023  TIP3      H2             36.7180103705       33.6656828873        5.4055169866  W2        7641            0.0000000000
     21070      7024  TIP3      OH2            38.6742503705       18.7208528873        2.6622069866  W2        7642            0.0000000000
     21071      7024  TIP3      H1             39.1655903705       18.0910928873        2.1347569866  W2        7642            0.0000000000
     21072      7024  TIP3      H2             39.2978803705       19.0167928873        3.3253269866  W2        7642            0.0000000000
     21073      7025  TIP3      OH2            38.5324103705       33.6730028873        2.1425169866  W2        7645            0.0000000000
     21074      7025  TIP3      H1             38.2648703705       33.9592928873        3.0158269866  W2        7645            0.0000000000
     21075      7025  TIP3      H2             39.3036703705       33.1269228873        2.2947669866  W2        7645            0.0000000000
     21076      7026  TIP3      OH2           -22.3831896295       38.3078628873       13.0604769866  W2        7646            0.0000000000
     21077      7026  TIP3      H1            -22.3339696295       38.9179828873       13.7963869866  W2        7646            0.0000000000
     21078      7026  TIP3      H2            -21.9576796295       38.7689528873       12.3375869866  W2        7646            0.0000000000
     21079      7027  TIP3      OH2           -34.7506396295       39.2022128873        9.7998169866  W2        7647            0.0000000000
     21080      7027  TIP3      H1            -34.7075296295       40.0620628873        9.3814469866  W2        7647            0.0000000000
     21081      7027  TIP3      H2            -35.2082296295       38.6496828873        9.1661369866  W2        7647            0.0000000000
     21082      7028  TIP3      OH2           -27.0283696295       39.3327728873        8.2006469866  W2        7648            0.0000000000
     21083      7028  TIP3      H1            -26.3819396295       39.0040928873        8.8254069866  W2        7648            0.0000000000
     21084      7028  TIP3      H2            -26.5184296295       39.8506728873        7.5777869866  W2        7648            0.0000000000
     21085      7029  TIP3      OH2           -21.9917296295       39.7857828873       15.2964569866  W2        7649            0.0000000000
     21086      7029  TIP3      H1            -22.6802696295       40.4438528873       15.2011169866  W2        7649            0.0000000000
     21087      7029  TIP3      H2            -21.9762696295       39.5885728873       16.2329969866  W2        7649            0.0000000000
     21088      7030  TIP3      OH2           -35.9404496295       38.1200528873       13.8738969866  W2        7650            0.0000000000
     21089      7030  TIP3      H1            -36.1592796295       38.6501128873       13.1074969866  W2        7650            0.0000000000
     21090      7030  TIP3      H2            -36.6083596295       38.3466028873       14.5210369866  W2        7650            0.0000000000
     21091      7031  TIP3      OH2           -25.2645296295       38.6237028873       10.1812369866  W2        7651            0.0000000000
     21092      7031  TIP3      H1            -25.4797296295       37.8580428873       10.7138369866  W2        7651            0.0000000000
     21093      7031  TIP3      H2            -24.6087896295       39.0961628873       10.6940869866  W2        7651            0.0000000000
     21094      7032  TIP3      OH2           -36.3467196295       40.0122328873       11.8261169866  W2        7652            0.0000000000
     21095      7032  TIP3      H1            -35.7330896295       40.6449928873       12.1993569866  W2        7652            0.0000000000
     21096      7032  TIP3      H2            -35.8346496295       39.5397328873       11.1698069866  W2        7652            0.0000000000
     21097      7033  TIP3      OH2           -24.9171196295       37.3388328873       13.8605869866  W2        7653            0.0000000000
     21098      7033  TIP3      H1            -25.6531996295       37.9495428873       13.8227169866  W2        7653            0.0000000000
     21099      7033  TIP3      H2            -24.2337196295       37.7537328873       13.3342269866  W2        7653            0.0000000000
     21100      7034  TIP3      OH2           -31.9139796295       35.4255628873       11.3263869866  W2        7654            0.0000000000
     21101      7034  TIP3      H1            -32.0315596295       34.4771628873       11.2722169866  W2        7654            0.0000000000
     21102      7034  TIP3      H2            -32.7689696295       35.7581728873       11.5994969866  W2        7654            0.0000000000
     21103      7035  TIP3      OH2           -23.6719296295       35.3847828873        4.2766469866  W2        7655            0.0000000000
     21104      7035  TIP3      H1            -24.5718596295       35.5236828873        4.5717069866  W2        7655            0.0000000000
     21105      7035  TIP3      H2            -23.4200896295       36.2162428873        3.8748169866  W2        7655            0.0000000000
     21106      7036  TIP3      OH2           -34.6452196295       36.3290128873       12.1040169866  W2        7656            0.0000000000
     21107      7036  TIP3      H1            -35.5068496295       36.2418328873       11.6963069866  W2        7656            0.0000000000
     21108      7036  TIP3      H2            -34.6676496295       37.1850228873       12.5317769866  W2        7656            0.0000000000
     21109      7037  TIP3      OH2           -29.9824396295       36.0510528873       15.4787169866  W2        7657            0.0000000000
     21110      7037  TIP3      H1            -29.5621296295       35.6357628873       16.2317769866  W2        7657            0.0000000000
     21111      7037  TIP3      H2            -30.9154796295       35.8723828873       15.5959169866  W2        7657            0.0000000000
     21112      7038  TIP3      OH2           -26.6559496295       39.8065728873       16.3321669866  W2        7658            0.0000000000
     21113      7038  TIP3      H1            -27.1699996295       39.6807928873       17.1297669866  W2        7658            0.0000000000
     21114      7038  TIP3      H2            -26.8114796295       40.7188828873       16.0877869866  W2        7658            0.0000000000
     21115      7039  TIP3      OH2           -30.3207096295       38.5433928873        2.7637969866  W2        7659            0.0000000000
     21116      7039  TIP3      H1            -30.5742296295       38.5625528873        3.6866069866  W2        7659            0.0000000000
     21117      7039  TIP3      H2            -30.5774996295       37.6719328873        2.4624169866  W2        7659            0.0000000000
     21118      7040  TIP3      OH2           -33.4384196295       38.9890428873        1.8648369866  W2        7660            0.0000000000
     21119      7040  TIP3      H1            -33.8693496295       38.5440528873        2.5945769866  W2        7660            0.0000000000
     21120      7040  TIP3      H2            -34.1565496295       39.3606728873        1.3525869866  W2        7660            0.0000000000
     21121      7041  TIP3      OH2           -40.1960796295       38.7309928873        8.9167069866  W2        7661            0.0000000000
     21122      7041  TIP3      H1            -39.5653096295       38.7022028873        9.6360969866  W2        7661            0.0000000000
     21123      7041  TIP3      H2            -39.7466496295       38.3058628873        8.1862969866  W2        7661            0.0000000000
     21124      7042  TIP3      OH2           -38.9218696295       39.4771928873        4.3407469866  W2        7662            0.0000000000
     21125      7042  TIP3      H1            -38.4476996295       40.0681828873        3.7558369866  W2        7662            0.0000000000
     21126      7042  TIP3      H2            -39.6392296295       40.0074828873        4.6877569866  W2        7662            0.0000000000
     21127      7043  TIP3      OH2           -31.9757696295       38.9432228873        9.1974469866  W2        7663            0.0000000000
     21128      7043  TIP3      H1            -32.8866596295       38.9999028873        9.4860469866  W2        7663            0.0000000000
     21129      7043  TIP3      H2            -31.4704796295       38.8827728873       10.0081669866  W2        7663            0.0000000000
     21130      7044  TIP3      OH2           -27.5705796295       38.1778528873       12.4616269866  W2        7664            0.0000000000
     21131      7044  TIP3      H1            -28.2474196295       38.3091628873       13.1255969866  W2        7664            0.0000000000
     21132      7044  TIP3      H2            -28.0560896295       38.0228028873       11.6513969866  W2        7664            0.0000000000
     21133      7045  TIP3      OH2           -35.6538296295       37.8671328873        7.5028869866  W2        7665            0.0000000000
     21134      7045  TIP3      H1            -35.9708796295       36.9646628873        7.4674269866  W2        7665            0.0000000000
     21135      7045  TIP3      H2            -34.8724196295       37.8688728873        6.9500469866  W2        7665            0.0000000000
     21136      7046  TIP3      OH2           -32.0292096295       40.1191328873       13.4984469866  W2        7666            0.0000000000
     21137      7046  TIP3      H1            -32.8646796295       40.5730828873       13.6086869866  W2        7666            0.0000000000
     21138      7046  TIP3      H2            -31.5051496295       40.3949828873       14.2504369866  W2        7666            0.0000000000
     21139      7047  TIP3      OH2           -27.5872696295       39.1458928873        3.3823469866  W2        7667            0.0000000000
     21140      7047  TIP3      H1            -28.5258496295       39.2574528873        3.2312269866  W2        7667            0.0000000000
     21141      7047  TIP3      H2            -27.2900596295       40.0025828873        3.6889169866  W2        7667            0.0000000000
     21142      7048  TIP3      OH2           -37.7181996295       38.8408628873       15.8258669866  W2        7668            0.0000000000
     21143      7048  TIP3      H1            -38.6109696295       39.1794028873       15.7582669866  W2        7668            0.0000000000
     21144      7048  TIP3      H2            -37.8169196295       37.9854728873       16.2439469866  W2        7668            0.0000000000
     21145      7049  TIP3      OH2           -28.9838596295       38.5818928873       14.7157269866  W2        7669            0.0000000000
     21146      7049  TIP3      H1            -28.2850696295       38.6557628873       15.3656969866  W2        7669            0.0000000000
     21147      7049  TIP3      H2            -29.3647196295       37.7173928873       14.8700169866  W2        7669            0.0000000000
     21148      7050  TIP3      OH2           -28.1993696295       38.2340628873        5.8129569866  W2        7670            0.0000000000
     21149      7050  TIP3      H1            -27.9795396295       38.7056028873        5.0094969866  W2        7670            0.0000000000
     21150      7050  TIP3      H2            -27.6409696295       38.6283228873        6.4830169866  W2        7670            0.0000000000
     21151      7051  TIP3      OH2           -30.9993796295       39.9619428873        6.6477969866  W2        7671            0.0000000000
     21152      7051  TIP3      H1            -30.1871196295       40.4662628873        6.6939669866  W2        7671            0.0000000000
     21153      7051  TIP3      H2            -31.2440796295       39.8169128873        7.5617569866  W2        7671            0.0000000000
     21154      7052  TIP3      OH2           -30.1157096295       37.0432428873        7.5859069866  W2        7672            0.0000000000
     21155      7052  TIP3      H1            -30.4623596295       37.6603028873        8.2303369866  W2        7672            0.0000000000
     21156      7052  TIP3      H2            -29.4570196295       37.5438128873        7.1044569866  W2        7672            0.0000000000
     21157      7053  TIP3      OH2           -34.4580096295       38.1061828873        4.2731569866  W2        7673            0.0000000000
     21158      7053  TIP3      H1            -34.5415296295       38.9944928873        4.6197969866  W2        7673            0.0000000000
     21159      7053  TIP3      H2            -33.5679796295       37.8408528873        4.5048369866  W2        7673            0.0000000000
     21160      7054  TIP3      OH2           -24.2591596295       38.8552428873       16.6674269866  W2        7674            0.0000000000
     21161      7054  TIP3      H1            -25.1755796295       39.1174128873       16.5797969866  W2        7674            0.0000000000
     21162      7054  TIP3      H2            -23.9236596295       38.8521428873       15.7709569866  W2        7674            0.0000000000
     21163      7055  TIP3      OH2           -37.0753596295       35.9793628873       11.1226469866  W2        7675            0.0000000000
     21164      7055  TIP3      H1            -37.3043796295       36.0386128873       10.1951469866  W2        7675            0.0000000000
     21165      7055  TIP3      H2            -37.5180196295       35.1879128873       11.4290569866  W2        7675            0.0000000000
     21166      7056  TIP3      OH2           -33.8306596295       39.9068328873       17.4439869866  W2        7676            0.0000000000
     21167      7056  TIP3      H1            -33.6805696295       39.1779628873       16.8419569866  W2        7676            0.0000000000
     21168      7056  TIP3      H2            -33.8284196295       40.6840028873       16.8852069866  W2        7676            0.0000000000
     21169      7057  TIP3      OH2           -33.4180896295       38.2764128873       14.9367269866  W2        7677            0.0000000000
     21170      7057  TIP3      H1            -32.8823396295       38.7280828873       14.2846569866  W2        7677            0.0000000000
     21171      7057  TIP3      H2            -34.2701296295       38.1683928873       14.5141369866  W2        7677            0.0000000000
     21172      7058  TIP3      OH2           -32.6125396295       35.7329828873       15.3680869866  W2        7678            0.0000000000
     21173      7058  TIP3      H1            -32.7105796295       36.6793028873       15.2627069866  W2        7678            0.0000000000
     21174      7058  TIP3      H2            -33.3549196295       35.3603628873       14.8924369866  W2        7678            0.0000000000
     21175      7059  TIP3      OH2           -24.2806596295       38.7275828873        1.5718469866  W2        7685            0.0000000000
     21176      7059  TIP3      H1            -23.6700796295       38.3562628873        2.2086669866  W2        7685            0.0000000000
     21177      7059  TIP3      H2            -25.1175096295       38.3062728873        1.7678469866  W2        7685            0.0000000000
     21178      7060  TIP3      OH2           -24.6480896295       40.2824228873        6.5378369866  W2        7686            0.0000000000
     21179      7060  TIP3      H1            -24.3683796295       39.3754628873        6.6620069866  W2        7686            0.0000000000
     21180      7060  TIP3      H2            -23.8889196295       40.7165728873        6.1487569866  W2        7686            0.0000000000
     21181      7061  TIP3      OH2           -24.0346096295       37.5453528873        6.5860369866  W2        7689            0.0000000000
     21182      7061  TIP3      H1            -23.8521096295       37.0965028873        7.4115369866  W2        7689            0.0000000000
     21183      7061  TIP3      H2            -24.6343196295       36.9607928873        6.1224969866  W2        7689            0.0000000000
     21184      7062  TIP3      OH2           -38.5045996295       38.3607228873       11.1178769866  W2        7690            0.0000000000
     21185      7062  TIP3      H1            -38.0594396295       37.5689728873       11.4198469866  W2        7690            0.0000000000
     21186      7062  TIP3      H2            -38.0382996295       39.0772428873       11.5484369866  W2        7690            0.0000000000
     21187      7063  TIP3      OH2           -22.1679896295       37.6131628873        3.1140669866  W2        7692            0.0000000000
     21188      7063  TIP3      H1            -21.7557296295       36.8917328873        2.6388669866  W2        7692            0.0000000000
     21189      7063  TIP3      H2            -21.4863396295       38.2826228873        3.1724969866  W2        7692            0.0000000000
     21190      7064  TIP3      OH2           -39.8869196295       37.6179328873        6.2411369866  W2        7693            0.0000000000
     21191      7064  TIP3      H1            -40.8120796295       37.8265928873        6.1116869866  W2        7693            0.0000000000
     21192      7064  TIP3      H2            -39.4329296295       38.1020128873        5.5513669866  W2        7693            0.0000000000
     21193      7065  TIP3      OH2           -39.9233796295       36.3558328873       14.5853869866  W2        7694            0.0000000000
     21194      7065  TIP3      H1            -40.5883296295       36.1098628873       15.2284769866  W2        7694            0.0000000000
     21195      7065  TIP3      H2            -40.3662496295       36.9778728873       14.0081869866  W2        7694            0.0000000000
     21196      7066  TIP3      OH2           -23.2035996295       35.7798028873       16.2713769866  W2        7695            0.0000000000
     21197      7066  TIP3      H1            -24.0162496295       36.1048328873       15.8838469866  W2        7695            0.0000000000
     21198      7066  TIP3      H2            -22.9707496295       35.0196528873       15.7382869866  W2        7695            0.0000000000
     21199      7067  TIP3      OH2           -29.7737496295       37.2288628873       10.5941969866  W2        7696            0.0000000000
     21200      7067  TIP3      H1            -30.4480696295       36.5994228873       10.8497769866  W2        7696            0.0000000000
     21201      7067  TIP3      H2            -29.2098296295       36.7447528873        9.9909869866  W2        7696            0.0000000000
     21202      7068  TIP3      OH2           -24.6310296295       35.3362628873       10.7069069866  W2        7697            0.0000000000
     21203      7068  TIP3      H1            -24.0272696295       35.8838028873       10.2050069866  W2        7697            0.0000000000
     21204      7068  TIP3      H2            -25.5008296295       35.6553028873       10.4663169866  W2        7697            0.0000000000
     21205      7069  TIP3      OH2           -22.9039896295       36.4751328873        9.0399969866  W2        7698            0.0000000000
     21206      7069  TIP3      H1            -22.2922396295       35.9607028873        8.5133569866  W2        7698            0.0000000000
     21207      7069  TIP3      H2            -22.5216496295       37.3523428873        9.0634369866  W2        7698            0.0000000000
     21208      7070  TIP3      OH2           -37.4469996295       35.8628928873        8.4161869866  W2        7699            0.0000000000
     21209      7070  TIP3      H1            -38.2240196295       35.6283828873        7.9087769866  W2        7699            0.0000000000
     21210      7070  TIP3      H2            -36.9166396295       35.0661028873        8.4249869866  W2        7699            0.0000000000
     21211      7071  TIP3      OH2           -38.6106596295       35.6607028873        4.2197969866  W2        7700            0.0000000000
     21212      7071  TIP3      H1            -38.1715896295       36.2717528873        3.6281469866  W2        7700            0.0000000000
     21213      7071  TIP3      H2            -39.2444196295       36.1991128873        4.6937969866  W2        7700            0.0000000000
     21214      7072  TIP3      OH2           -32.8677396295       35.7896028873        8.2294969866  W2        7701            0.0000000000
     21215      7072  TIP3      H1            -31.9933996295       36.1780328873        8.1999269866  W2        7701            0.0000000000
     21216      7072  TIP3      H2            -33.0036596295       35.5743828873        9.1522169866  W2        7701            0.0000000000
     21217      7073  TIP3      OH2           -27.3108996295       35.8195828873        9.8786669866  W2        7702            0.0000000000
     21218      7073  TIP3      H1            -27.2347396295       35.9147428873        8.9292669866  W2        7702            0.0000000000
     21219      7073  TIP3      H2            -27.5859796295       34.9118728873       10.0075769866  W2        7702            0.0000000000
     21220      7074  TIP3      OH2           -25.9576396295       35.8453628873        5.5711669866  W2        7703            0.0000000000
     21221      7074  TIP3      H1            -26.6605296295       36.4602828873        5.3613069866  W2        7703            0.0000000000
     21222      7074  TIP3      H2            -26.4024996295       35.0080328873        5.7022569866  W2        7703            0.0000000000
     21223      7075  TIP3      OH2           -36.7497496295       37.5768528873        2.6622069866  W2        7704            0.0000000000
     21224      7075  TIP3      H1            -36.2584096295       36.9470928873        2.1347569866  W2        7704            0.0000000000
     21225      7075  TIP3      H2            -36.1261196295       37.8727928873        3.3253269866  W2        7704            0.0000000000
     21226      7076  TIP3      OH2           -31.7237396295       37.8700028873        5.1192569866  W2        7705            0.0000000000
     21227      7076  TIP3      H1            -31.5456096295       37.2233228873        5.8021169866  W2        7705            0.0000000000
     21228      7076  TIP3      H2            -31.7771196295       38.7037728873        5.5863669866  W2        7705            0.0000000000
     21229      7077  TIP3      OH2            -3.5271896295       38.3078628873       13.0604769866  W2        7709            0.0000000000
     21230      7077  TIP3      H1             -3.4779696295       38.9179828873       13.7963869866  W2        7709            0.0000000000
     21231      7077  TIP3      H2             -3.1016796295       38.7689528873       12.3375869866  W2        7709            0.0000000000
     21232      7078  TIP3      OH2           -15.8946396295       39.2022128873        9.7998169866  W2        7710            0.0000000000
     21233      7078  TIP3      H1            -15.8515296295       40.0620628873        9.3814469866  W2        7710            0.0000000000
     21234      7078  TIP3      H2            -16.3522296295       38.6496828873        9.1661369866  W2        7710            0.0000000000
     21235      7079  TIP3      OH2            -8.1723696295       39.3327728873        8.2006469866  W2        7711            0.0000000000
     21236      7079  TIP3      H1             -7.5259396295       39.0040928873        8.8254069866  W2        7711            0.0000000000
     21237      7079  TIP3      H2             -7.6624296295       39.8506728873        7.5777869866  W2        7711            0.0000000000
     21238      7080  TIP3      OH2            -3.1357296295       39.7857828873       15.2964569866  W2        7712            0.0000000000
     21239      7080  TIP3      H1             -3.8242696295       40.4438528873       15.2011169866  W2        7712            0.0000000000
     21240      7080  TIP3      H2             -3.1202696295       39.5885728873       16.2329969866  W2        7712            0.0000000000
     21241      7081  TIP3      OH2           -17.0844496295       38.1200528873       13.8738969866  W2        7713            0.0000000000
     21242      7081  TIP3      H1            -17.3032796295       38.6501128873       13.1074969866  W2        7713            0.0000000000
     21243      7081  TIP3      H2            -17.7523596295       38.3466028873       14.5210369866  W2        7713            0.0000000000
     21244      7082  TIP3      OH2            -6.4085296295       38.6237028873       10.1812369866  W2        7714            0.0000000000
     21245      7082  TIP3      H1             -6.6237296295       37.8580428873       10.7138369866  W2        7714            0.0000000000
     21246      7082  TIP3      H2             -5.7527896295       39.0961628873       10.6940869866  W2        7714            0.0000000000
     21247      7083  TIP3      OH2           -17.4907196295       40.0122328873       11.8261169866  W2        7715            0.0000000000
     21248      7083  TIP3      H1            -16.8770896295       40.6449928873       12.1993569866  W2        7715            0.0000000000
     21249      7083  TIP3      H2            -16.9786496295       39.5397328873       11.1698069866  W2        7715            0.0000000000
     21250      7084  TIP3      OH2            -6.0611196295       37.3388328873       13.8605869866  W2        7716            0.0000000000
     21251      7084  TIP3      H1             -6.7971996295       37.9495428873       13.8227169866  W2        7716            0.0000000000
     21252      7084  TIP3      H2             -5.3777196295       37.7537328873       13.3342269866  W2        7716            0.0000000000
     21253      7085  TIP3      OH2           -13.0579796295       35.4255628873       11.3263869866  W2        7717            0.0000000000
     21254      7085  TIP3      H1            -13.1755596295       34.4771628873       11.2722169866  W2        7717            0.0000000000
     21255      7085  TIP3      H2            -13.9129696295       35.7581728873       11.5994969866  W2        7717            0.0000000000
     21256      7086  TIP3      OH2            -4.8159296295       35.3847828873        4.2766469866  W2        7718            0.0000000000
     21257      7086  TIP3      H1             -5.7158596295       35.5236828873        4.5717069866  W2        7718            0.0000000000
     21258      7086  TIP3      H2             -4.5640896295       36.2162428873        3.8748169866  W2        7718            0.0000000000
     21259      7087  TIP3      OH2           -15.7892196295       36.3290128873       12.1040169866  W2        7719            0.0000000000
     21260      7087  TIP3      H1            -16.6508496295       36.2418328873       11.6963069866  W2        7719            0.0000000000
     21261      7087  TIP3      H2            -15.8116496295       37.1850228873       12.5317769866  W2        7719            0.0000000000
     21262      7088  TIP3      OH2           -11.1264396295       36.0510528873       15.4787169866  W2        7720            0.0000000000
     21263      7088  TIP3      H1            -10.7061296295       35.6357628873       16.2317769866  W2        7720            0.0000000000
     21264      7088  TIP3      H2            -12.0594796295       35.8723828873       15.5959169866  W2        7720            0.0000000000
     21265      7089  TIP3      OH2            -7.7999496295       39.8065728873       16.3321669866  W2        7721            0.0000000000
     21266      7089  TIP3      H1             -8.3139996295       39.6807928873       17.1297669866  W2        7721            0.0000000000
     21267      7089  TIP3      H2             -7.9554796295       40.7188828873       16.0877869866  W2        7721            0.0000000000
     21268      7090  TIP3      OH2           -11.4647096295       38.5433928873        2.7637969866  W2        7722            0.0000000000
     21269      7090  TIP3      H1            -11.7182296295       38.5625528873        3.6866069866  W2        7722            0.0000000000
     21270      7090  TIP3      H2            -11.7214996295       37.6719328873        2.4624169866  W2        7722            0.0000000000
     21271      7091  TIP3      OH2           -14.5824196295       38.9890428873        1.8648369866  W2        7723            0.0000000000
     21272      7091  TIP3      H1            -15.0133496295       38.5440528873        2.5945769866  W2        7723            0.0000000000
     21273      7091  TIP3      H2            -15.3005496295       39.3606728873        1.3525869866  W2        7723            0.0000000000
     21274      7092  TIP3      OH2           -21.3400796295       38.7309928873        8.9167069866  W2        7724            0.0000000000
     21275      7092  TIP3      H1            -20.7093096295       38.7022028873        9.6360969866  W2        7724            0.0000000000
     21276      7092  TIP3      H2            -20.8906496295       38.3058628873        8.1862969866  W2        7724            0.0000000000
     21277      7093  TIP3      OH2           -20.0658696295       39.4771928873        4.3407469866  W2        7725            0.0000000000
     21278      7093  TIP3      H1            -19.5916996295       40.0681828873        3.7558369866  W2        7725            0.0000000000
     21279      7093  TIP3      H2            -20.7832296295       40.0074828873        4.6877569866  W2        7725            0.0000000000
     21280      7094  TIP3      OH2           -13.1197696295       38.9432228873        9.1974469866  W2        7726            0.0000000000
     21281      7094  TIP3      H1            -14.0306596295       38.9999028873        9.4860469866  W2        7726            0.0000000000
     21282      7094  TIP3      H2            -12.6144796295       38.8827728873       10.0081669866  W2        7726            0.0000000000
     21283      7095  TIP3      OH2            -8.7145796295       38.1778528873       12.4616269866  W2        7727            0.0000000000
     21284      7095  TIP3      H1             -9.3914196295       38.3091628873       13.1255969866  W2        7727            0.0000000000
     21285      7095  TIP3      H2             -9.2000896295       38.0228028873       11.6513969866  W2        7727            0.0000000000
     21286      7096  TIP3      OH2           -16.7978296295       37.8671328873        7.5028869866  W2        7728            0.0000000000
     21287      7096  TIP3      H1            -17.1148796295       36.9646628873        7.4674269866  W2        7728            0.0000000000
     21288      7096  TIP3      H2            -16.0164196295       37.8688728873        6.9500469866  W2        7728            0.0000000000
     21289      7097  TIP3      OH2           -13.1732096295       40.1191328873       13.4984469866  W2        7729            0.0000000000
     21290      7097  TIP3      H1            -14.0086796295       40.5730828873       13.6086869866  W2        7729            0.0000000000
     21291      7097  TIP3      H2            -12.6491496295       40.3949828873       14.2504369866  W2        7729            0.0000000000
     21292      7098  TIP3      OH2            -8.7312696295       39.1458928873        3.3823469866  W2        7730            0.0000000000
     21293      7098  TIP3      H1             -9.6698496295       39.2574528873        3.2312269866  W2        7730            0.0000000000
     21294      7098  TIP3      H2             -8.4340596295       40.0025828873        3.6889169866  W2        7730            0.0000000000
     21295      7099  TIP3      OH2           -18.8621996295       38.8408628873       15.8258669866  W2        7731            0.0000000000
     21296      7099  TIP3      H1            -19.7549696295       39.1794028873       15.7582669866  W2        7731            0.0000000000
     21297      7099  TIP3      H2            -18.9609196295       37.9854728873       16.2439469866  W2        7731            0.0000000000
     21298      7100  TIP3      OH2           -10.1278596295       38.5818928873       14.7157269866  W2        7732            0.0000000000
     21299      7100  TIP3      H1             -9.4290696295       38.6557628873       15.3656969866  W2        7732            0.0000000000
     21300      7100  TIP3      H2            -10.5087196295       37.7173928873       14.8700169866  W2        7732            0.0000000000
     21301      7101  TIP3      OH2            -9.3433696295       38.2340628873        5.8129569866  W2        7733            0.0000000000
     21302      7101  TIP3      H1             -9.1235396295       38.7056028873        5.0094969866  W2        7733            0.0000000000
     21303      7101  TIP3      H2             -8.7849696295       38.6283228873        6.4830169866  W2        7733            0.0000000000
     21304      7102  TIP3      OH2           -12.1433796295       39.9619428873        6.6477969866  W2        7734            0.0000000000
     21305      7102  TIP3      H1            -11.3311196295       40.4662628873        6.6939669866  W2        7734            0.0000000000
     21306      7102  TIP3      H2            -12.3880796295       39.8169128873        7.5617569866  W2        7734            0.0000000000
     21307      7103  TIP3      OH2           -11.2597096295       37.0432428873        7.5859069866  W2        7735            0.0000000000
     21308      7103  TIP3      H1            -11.6063596295       37.6603028873        8.2303369866  W2        7735            0.0000000000
     21309      7103  TIP3      H2            -10.6010196295       37.5438128873        7.1044569866  W2        7735            0.0000000000
     21310      7104  TIP3      OH2           -15.6020096295       38.1061828873        4.2731569866  W2        7736            0.0000000000
     21311      7104  TIP3      H1            -15.6855296295       38.9944928873        4.6197969866  W2        7736            0.0000000000
     21312      7104  TIP3      H2            -14.7119796295       37.8408528873        4.5048369866  W2        7736            0.0000000000
     21313      7105  TIP3      OH2            -5.4031596295       38.8552428873       16.6674269866  W2        7737            0.0000000000
     21314      7105  TIP3      H1             -6.3195796295       39.1174128873       16.5797969866  W2        7737            0.0000000000
     21315      7105  TIP3      H2             -5.0676596295       38.8521428873       15.7709569866  W2        7737            0.0000000000
     21316      7106  TIP3      OH2           -18.2193596295       35.9793628873       11.1226469866  W2        7738            0.0000000000
     21317      7106  TIP3      H1            -18.4483796295       36.0386128873       10.1951469866  W2        7738            0.0000000000
     21318      7106  TIP3      H2            -18.6620196295       35.1879128873       11.4290569866  W2        7738            0.0000000000
     21319      7107  TIP3      OH2           -14.9746596295       39.9068328873       17.4439869866  W2        7739            0.0000000000
     21320      7107  TIP3      H1            -14.8245696295       39.1779628873       16.8419569866  W2        7739            0.0000000000
     21321      7107  TIP3      H2            -14.9724196295       40.6840028873       16.8852069866  W2        7739            0.0000000000
     21322      7108  TIP3      OH2           -14.5620896295       38.2764128873       14.9367269866  W2        7740            0.0000000000
     21323      7108  TIP3      H1            -14.0263396295       38.7280828873       14.2846569866  W2        7740            0.0000000000
     21324      7108  TIP3      H2            -15.4141296295       38.1683928873       14.5141369866  W2        7740            0.0000000000
     21325      7109  TIP3      OH2           -13.7565396295       35.7329828873       15.3680869866  W2        7741            0.0000000000
     21326      7109  TIP3      H1            -13.8545796295       36.6793028873       15.2627069866  W2        7741            0.0000000000
     21327      7109  TIP3      H2            -14.4989196295       35.3603628873       14.8924369866  W2        7741            0.0000000000
     21328      7110  TIP3      OH2            -5.4246596295       38.7275828873        1.5718469866  W2        7748            0.0000000000
     21329      7110  TIP3      H1             -4.8140796295       38.3562628873        2.2086669866  W2        7748            0.0000000000
     21330      7110  TIP3      H2             -6.2615096295       38.3062728873        1.7678469866  W2        7748            0.0000000000
     21331      7111  TIP3      OH2            -5.7920896295       40.2824228873        6.5378369866  W2        7749            0.0000000000
     21332      7111  TIP3      H1             -5.5123796295       39.3754628873        6.6620069866  W2        7749            0.0000000000
     21333      7111  TIP3      H2             -5.0329196295       40.7165728873        6.1487569866  W2        7749            0.0000000000
     21334      7112  TIP3      OH2            -5.1786096295       37.5453528873        6.5860369866  W2        7752            0.0000000000
     21335      7112  TIP3      H1             -4.9961096295       37.0965028873        7.4115369866  W2        7752            0.0000000000
     21336      7112  TIP3      H2             -5.7783196295       36.9607928873        6.1224969866  W2        7752            0.0000000000
     21337      7113  TIP3      OH2           -19.6485996295       38.3607228873       11.1178769866  W2        7753            0.0000000000
     21338      7113  TIP3      H1            -19.2034396295       37.5689728873       11.4198469866  W2        7753            0.0000000000
     21339      7113  TIP3      H2            -19.1822996295       39.0772428873       11.5484369866  W2        7753            0.0000000000
     21340      7114  TIP3      OH2            -3.3119896295       37.6131628873        3.1140669866  W2        7755            0.0000000000
     21341      7114  TIP3      H1             -2.8997296295       36.8917328873        2.6388669866  W2        7755            0.0000000000
     21342      7114  TIP3      H2             -2.6303396295       38.2826228873        3.1724969866  W2        7755            0.0000000000
     21343      7115  TIP3      OH2           -21.0309196295       37.6179328873        6.2411369866  W2        7756            0.0000000000
     21344      7115  TIP3      H1            -21.9560796295       37.8265928873        6.1116869866  W2        7756            0.0000000000
     21345      7115  TIP3      H2            -20.5769296295       38.1020128873        5.5513669866  W2        7756            0.0000000000
     21346      7116  TIP3      OH2           -21.0673796295       36.3558328873       14.5853869866  W2        7757            0.0000000000
     21347      7116  TIP3      H1            -21.7323296295       36.1098628873       15.2284769866  W2        7757            0.0000000000
     21348      7116  TIP3      H2            -21.5102496295       36.9778728873       14.0081869866  W2        7757            0.0000000000
     21349      7117  TIP3      OH2            -4.3475996295       35.7798028873       16.2713769866  W2        7758            0.0000000000
     21350      7117  TIP3      H1             -5.1602496295       36.1048328873       15.8838469866  W2        7758            0.0000000000
     21351      7117  TIP3      H2             -4.1147496295       35.0196528873       15.7382869866  W2        7758            0.0000000000
     21352      7118  TIP3      OH2           -10.9177496295       37.2288628873       10.5941969866  W2        7759            0.0000000000
     21353      7118  TIP3      H1            -11.5920696295       36.5994228873       10.8497769866  W2        7759            0.0000000000
     21354      7118  TIP3      H2            -10.3538296295       36.7447528873        9.9909869866  W2        7759            0.0000000000
     21355      7119  TIP3      OH2            -5.7750296295       35.3362628873       10.7069069866  W2        7760            0.0000000000
     21356      7119  TIP3      H1             -5.1712696295       35.8838028873       10.2050069866  W2        7760            0.0000000000
     21357      7119  TIP3      H2             -6.6448296295       35.6553028873       10.4663169866  W2        7760            0.0000000000
     21358      7120  TIP3      OH2            -4.0479896295       36.4751328873        9.0399969866  W2        7761            0.0000000000
     21359      7120  TIP3      H1             -3.4362396295       35.9607028873        8.5133569866  W2        7761            0.0000000000
     21360      7120  TIP3      H2             -3.6656496295       37.3523428873        9.0634369866  W2        7761            0.0000000000
     21361      7121  TIP3      OH2           -18.5909996295       35.8628928873        8.4161869866  W2        7762            0.0000000000
     21362      7121  TIP3      H1            -19.3680196295       35.6283828873        7.9087769866  W2        7762            0.0000000000
     21363      7121  TIP3      H2            -18.0606396295       35.0661028873        8.4249869866  W2        7762            0.0000000000
     21364      7122  TIP3      OH2           -19.7546596295       35.6607028873        4.2197969866  W2        7763            0.0000000000
     21365      7122  TIP3      H1            -19.3155896295       36.2717528873        3.6281469866  W2        7763            0.0000000000
     21366      7122  TIP3      H2            -20.3884196295       36.1991128873        4.6937969866  W2        7763            0.0000000000
     21367      7123  TIP3      OH2           -14.0117396295       35.7896028873        8.2294969866  W2        7764            0.0000000000
     21368      7123  TIP3      H1            -13.1373996295       36.1780328873        8.1999269866  W2        7764            0.0000000000
     21369      7123  TIP3      H2            -14.1476596295       35.5743828873        9.1522169866  W2        7764            0.0000000000
     21370      7124  TIP3      OH2            -8.4548996295       35.8195828873        9.8786669866  W2        7765            0.0000000000
     21371      7124  TIP3      H1             -8.3787396295       35.9147428873        8.9292669866  W2        7765            0.0000000000
     21372      7124  TIP3      H2             -8.7299796295       34.9118728873       10.0075769866  W2        7765            0.0000000000
     21373      7125  TIP3      OH2            -7.1016396295       35.8453628873        5.5711669866  W2        7766            0.0000000000
     21374      7125  TIP3      H1             -7.8045296295       36.4602828873        5.3613069866  W2        7766            0.0000000000
     21375      7125  TIP3      H2             -7.5464996295       35.0080328873        5.7022569866  W2        7766            0.0000000000
     21376      7126  TIP3      OH2           -17.8937496295       37.5768528873        2.6622069866  W2        7767            0.0000000000
     21377      7126  TIP3      H1            -17.4024096295       36.9470928873        2.1347569866  W2        7767            0.0000000000
     21378      7126  TIP3      H2            -17.2701196295       37.8727928873        3.3253269866  W2        7767            0.0000000000
     21379      7127  TIP3      OH2           -12.8677396295       37.8700028873        5.1192569866  W2        7768            0.0000000000
     21380      7127  TIP3      H1            -12.6896096295       37.2233228873        5.8021169866  W2        7768            0.0000000000
     21381      7127  TIP3      H2            -12.9211196295       38.7037728873        5.5863669866  W2        7768            0.0000000000
     21382      7128  TIP3      OH2            15.3288103705       38.3078628873       13.0604769866  W2        7772            0.0000000000
     21383      7128  TIP3      H1             15.3780303705       38.9179828873       13.7963869866  W2        7772            0.0000000000
     21384      7128  TIP3      H2             15.7543203705       38.7689528873       12.3375869866  W2        7772            0.0000000000
     21385      7129  TIP3      OH2             2.9613603705       39.2022128873        9.7998169866  W2        7773            0.0000000000
     21386      7129  TIP3      H1              3.0044703705       40.0620628873        9.3814469866  W2        7773            0.0000000000
     21387      7129  TIP3      H2              2.5037703705       38.6496828873        9.1661369866  W2        7773            0.0000000000
     21388      7130  TIP3      OH2            10.6836303705       39.3327728873        8.2006469866  W2        7774            0.0000000000
     21389      7130  TIP3      H1             11.3300603705       39.0040928873        8.8254069866  W2        7774            0.0000000000
     21390      7130  TIP3      H2             11.1935703705       39.8506728873        7.5777869866  W2        7774            0.0000000000
     21391      7131  TIP3      OH2            15.7202703705       39.7857828873       15.2964569866  W2        7775            0.0000000000
     21392      7131  TIP3      H1             15.0317303705       40.4438528873       15.2011169866  W2        7775            0.0000000000
     21393      7131  TIP3      H2             15.7357303705       39.5885728873       16.2329969866  W2        7775            0.0000000000
     21394      7132  TIP3      OH2             1.7715503705       38.1200528873       13.8738969866  W2        7776            0.0000000000
     21395      7132  TIP3      H1              1.5527203705       38.6501128873       13.1074969866  W2        7776            0.0000000000
     21396      7132  TIP3      H2              1.1036403705       38.3466028873       14.5210369866  W2        7776            0.0000000000
     21397      7133  TIP3      OH2            12.4474703705       38.6237028873       10.1812369866  W2        7777            0.0000000000
     21398      7133  TIP3      H1             12.2322703705       37.8580428873       10.7138369866  W2        7777            0.0000000000
     21399      7133  TIP3      H2             13.1032103705       39.0961628873       10.6940869866  W2        7777            0.0000000000
     21400      7134  TIP3      OH2             1.3652803705       40.0122328873       11.8261169866  W2        7778            0.0000000000
     21401      7134  TIP3      H1              1.9789103705       40.6449928873       12.1993569866  W2        7778            0.0000000000
     21402      7134  TIP3      H2              1.8773503705       39.5397328873       11.1698069866  W2        7778            0.0000000000
     21403      7135  TIP3      OH2            12.7948803705       37.3388328873       13.8605869866  W2        7779            0.0000000000
     21404      7135  TIP3      H1             12.0588003705       37.9495428873       13.8227169866  W2        7779            0.0000000000
     21405      7135  TIP3      H2             13.4782803705       37.7537328873       13.3342269866  W2        7779            0.0000000000
     21406      7136  TIP3      OH2             5.7980203705       35.4255628873       11.3263869866  W2        7780            0.0000000000
     21407      7136  TIP3      H1              5.6804403705       34.4771628873       11.2722169866  W2        7780            0.0000000000
     21408      7136  TIP3      H2              4.9430303705       35.7581728873       11.5994969866  W2        7780            0.0000000000
     21409      7137  TIP3      OH2            14.0400703705       35.3847828873        4.2766469866  W2        7781            0.0000000000
     21410      7137  TIP3      H1             13.1401403705       35.5236828873        4.5717069866  W2        7781            0.0000000000
     21411      7137  TIP3      H2             14.2919103705       36.2162428873        3.8748169866  W2        7781            0.0000000000
     21412      7138  TIP3      OH2             3.0667803705       36.3290128873       12.1040169866  W2        7782            0.0000000000
     21413      7138  TIP3      H1              2.2051503705       36.2418328873       11.6963069866  W2        7782            0.0000000000
     21414      7138  TIP3      H2              3.0443503705       37.1850228873       12.5317769866  W2        7782            0.0000000000
     21415      7139  TIP3      OH2             7.7295603705       36.0510528873       15.4787169866  W2        7783            0.0000000000
     21416      7139  TIP3      H1              8.1498703705       35.6357628873       16.2317769866  W2        7783            0.0000000000
     21417      7139  TIP3      H2              6.7965203705       35.8723828873       15.5959169866  W2        7783            0.0000000000
     21418      7140  TIP3      OH2            11.0560503705       39.8065728873       16.3321669866  W2        7784            0.0000000000
     21419      7140  TIP3      H1             10.5420003705       39.6807928873       17.1297669866  W2        7784            0.0000000000
     21420      7140  TIP3      H2             10.9005203705       40.7188828873       16.0877869866  W2        7784            0.0000000000
     21421      7141  TIP3      OH2             7.3912903705       38.5433928873        2.7637969866  W2        7785            0.0000000000
     21422      7141  TIP3      H1              7.1377703705       38.5625528873        3.6866069866  W2        7785            0.0000000000
     21423      7141  TIP3      H2              7.1345003705       37.6719328873        2.4624169866  W2        7785            0.0000000000
     21424      7142  TIP3      OH2             4.2735803705       38.9890428873        1.8648369866  W2        7786            0.0000000000
     21425      7142  TIP3      H1              3.8426503705       38.5440528873        2.5945769866  W2        7786            0.0000000000
     21426      7142  TIP3      H2              3.5554503705       39.3606728873        1.3525869866  W2        7786            0.0000000000
     21427      7143  TIP3      OH2            -2.4840796295       38.7309928873        8.9167069866  W2        7787            0.0000000000
     21428      7143  TIP3      H1             -1.8533096295       38.7022028873        9.6360969866  W2        7787            0.0000000000
     21429      7143  TIP3      H2             -2.0346496295       38.3058628873        8.1862969866  W2        7787            0.0000000000
     21430      7144  TIP3      OH2            -1.2098696295       39.4771928873        4.3407469866  W2        7788            0.0000000000
     21431      7144  TIP3      H1             -0.7356996295       40.0681828873        3.7558369866  W2        7788            0.0000000000
     21432      7144  TIP3      H2             -1.9272296295       40.0074828873        4.6877569866  W2        7788            0.0000000000
     21433      7145  TIP3      OH2             5.7362303705       38.9432228873        9.1974469866  W2        7789            0.0000000000
     21434      7145  TIP3      H1              4.8253403705       38.9999028873        9.4860469866  W2        7789            0.0000000000
     21435      7145  TIP3      H2              6.2415203705       38.8827728873       10.0081669866  W2        7789            0.0000000000
     21436      7146  TIP3      OH2            10.1414203705       38.1778528873       12.4616269866  W2        7790            0.0000000000
     21437      7146  TIP3      H1              9.4645803705       38.3091628873       13.1255969866  W2        7790            0.0000000000
     21438      7146  TIP3      H2              9.6559103705       38.0228028873       11.6513969866  W2        7790            0.0000000000
     21439      7147  TIP3      OH2             2.0581703705       37.8671328873        7.5028869866  W2        7791            0.0000000000
     21440      7147  TIP3      H1              1.7411203705       36.9646628873        7.4674269866  W2        7791            0.0000000000
     21441      7147  TIP3      H2              2.8395803705       37.8688728873        6.9500469866  W2        7791            0.0000000000
     21442      7148  TIP3      OH2             5.6827903705       40.1191328873       13.4984469866  W2        7792            0.0000000000
     21443      7148  TIP3      H1              4.8473203705       40.5730828873       13.6086869866  W2        7792            0.0000000000
     21444      7148  TIP3      H2              6.2068503705       40.3949828873       14.2504369866  W2        7792            0.0000000000
     21445      7149  TIP3      OH2            10.1247303705       39.1458928873        3.3823469866  W2        7793            0.0000000000
     21446      7149  TIP3      H1              9.1861503705       39.2574528873        3.2312269866  W2        7793            0.0000000000
     21447      7149  TIP3      H2             10.4219403705       40.0025828873        3.6889169866  W2        7793            0.0000000000
     21448      7150  TIP3      OH2            -0.0061996295       38.8408628873       15.8258669866  W2        7794            0.0000000000
     21449      7150  TIP3      H1             -0.8989696295       39.1794028873       15.7582669866  W2        7794            0.0000000000
     21450      7150  TIP3      H2             -0.1049196295       37.9854728873       16.2439469866  W2        7794            0.0000000000
     21451      7151  TIP3      OH2             8.7281403705       38.5818928873       14.7157269866  W2        7795            0.0000000000
     21452      7151  TIP3      H1              9.4269303705       38.6557628873       15.3656969866  W2        7795            0.0000000000
     21453      7151  TIP3      H2              8.3472803705       37.7173928873       14.8700169866  W2        7795            0.0000000000
     21454      7152  TIP3      OH2             9.5126303705       38.2340628873        5.8129569866  W2        7796            0.0000000000
     21455      7152  TIP3      H1              9.7324603705       38.7056028873        5.0094969866  W2        7796            0.0000000000
     21456      7152  TIP3      H2             10.0710303705       38.6283228873        6.4830169866  W2        7796            0.0000000000
     21457      7153  TIP3      OH2             6.7126203705       39.9619428873        6.6477969866  W2        7797            0.0000000000
     21458      7153  TIP3      H1              7.5248803705       40.4662628873        6.6939669866  W2        7797            0.0000000000
     21459      7153  TIP3      H2              6.4679203705       39.8169128873        7.5617569866  W2        7797            0.0000000000
     21460      7154  TIP3      OH2             7.5962903705       37.0432428873        7.5859069866  W2        7798            0.0000000000
     21461      7154  TIP3      H1              7.2496403705       37.6603028873        8.2303369866  W2        7798            0.0000000000
     21462      7154  TIP3      H2              8.2549803705       37.5438128873        7.1044569866  W2        7798            0.0000000000
     21463      7155  TIP3      OH2             3.2539903705       38.1061828873        4.2731569866  W2        7799            0.0000000000
     21464      7155  TIP3      H1              3.1704703705       38.9944928873        4.6197969866  W2        7799            0.0000000000
     21465      7155  TIP3      H2              4.1440203705       37.8408528873        4.5048369866  W2        7799            0.0000000000
     21466      7156  TIP3      OH2            13.4528403705       38.8552428873       16.6674269866  W2        7800            0.0000000000
     21467      7156  TIP3      H1             12.5364203705       39.1174128873       16.5797969866  W2        7800            0.0000000000
     21468      7156  TIP3      H2             13.7883403705       38.8521428873       15.7709569866  W2        7800            0.0000000000
     21469      7157  TIP3      OH2             0.6366403705       35.9793628873       11.1226469866  W2        7801            0.0000000000
     21470      7157  TIP3      H1              0.4076203705       36.0386128873       10.1951469866  W2        7801            0.0000000000
     21471      7157  TIP3      H2              0.1939803705       35.1879128873       11.4290569866  W2        7801            0.0000000000
     21472      7158  TIP3      OH2             3.8813403705       39.9068328873       17.4439869866  W2        7802            0.0000000000
     21473      7158  TIP3      H1              4.0314303705       39.1779628873       16.8419569866  W2        7802            0.0000000000
     21474      7158  TIP3      H2              3.8835803705       40.6840028873       16.8852069866  W2        7802            0.0000000000
     21475      7159  TIP3      OH2             4.2939103705       38.2764128873       14.9367269866  W2        7803            0.0000000000
     21476      7159  TIP3      H1              4.8296603705       38.7280828873       14.2846569866  W2        7803            0.0000000000
     21477      7159  TIP3      H2              3.4418703705       38.1683928873       14.5141369866  W2        7803            0.0000000000
     21478      7160  TIP3      OH2             5.0994603705       35.7329828873       15.3680869866  W2        7804            0.0000000000
     21479      7160  TIP3      H1              5.0014203705       36.6793028873       15.2627069866  W2        7804            0.0000000000
     21480      7160  TIP3      H2              4.3570803705       35.3603628873       14.8924369866  W2        7804            0.0000000000
     21481      7161  TIP3      OH2            13.4313403705       38.7275828873        1.5718469866  W2        7811            0.0000000000
     21482      7161  TIP3      H1             14.0419203705       38.3562628873        2.2086669866  W2        7811            0.0000000000
     21483      7161  TIP3      H2             12.5944903705       38.3062728873        1.7678469866  W2        7811            0.0000000000
     21484      7162  TIP3      OH2            13.0639103705       40.2824228873        6.5378369866  W2        7812            0.0000000000
     21485      7162  TIP3      H1             13.3436203705       39.3754628873        6.6620069866  W2        7812            0.0000000000
     21486      7162  TIP3      H2             13.8230803705       40.7165728873        6.1487569866  W2        7812            0.0000000000
     21487      7163  TIP3      OH2            13.6773903705       37.5453528873        6.5860369866  W2        7815            0.0000000000
     21488      7163  TIP3      H1             13.8598903705       37.0965028873        7.4115369866  W2        7815            0.0000000000
     21489      7163  TIP3      H2             13.0776803705       36.9607928873        6.1224969866  W2        7815            0.0000000000
     21490      7164  TIP3      OH2            -0.7925996295       38.3607228873       11.1178769866  W2        7816            0.0000000000
     21491      7164  TIP3      H1             -0.3474396295       37.5689728873       11.4198469866  W2        7816            0.0000000000
     21492      7164  TIP3      H2             -0.3262996295       39.0772428873       11.5484369866  W2        7816            0.0000000000
     21493      7165  TIP3      OH2            15.5440103705       37.6131628873        3.1140669866  W2        7818            0.0000000000
     21494      7165  TIP3      H1             15.9562703705       36.8917328873        2.6388669866  W2        7818            0.0000000000
     21495      7165  TIP3      H2             16.2256603705       38.2826228873        3.1724969866  W2        7818            0.0000000000
     21496      7166  TIP3      OH2            -2.1749196295       37.6179328873        6.2411369866  W2        7819            0.0000000000
     21497      7166  TIP3      H1             -3.1000796295       37.8265928873        6.1116869866  W2        7819            0.0000000000
     21498      7166  TIP3      H2             -1.7209296295       38.1020128873        5.5513669866  W2        7819            0.0000000000
     21499      7167  TIP3      OH2            -2.2113796295       36.3558328873       14.5853869866  W2        7820            0.0000000000
     21500      7167  TIP3      H1             -2.8763296295       36.1098628873       15.2284769866  W2        7820            0.0000000000
     21501      7167  TIP3      H2             -2.6542496295       36.9778728873       14.0081869866  W2        7820            0.0000000000
     21502      7168  TIP3      OH2            14.5084003705       35.7798028873       16.2713769866  W2        7821            0.0000000000
     21503      7168  TIP3      H1             13.6957503705       36.1048328873       15.8838469866  W2        7821            0.0000000000
     21504      7168  TIP3      H2             14.7412503705       35.0196528873       15.7382869866  W2        7821            0.0000000000
     21505      7169  TIP3      OH2             7.9382503705       37.2288628873       10.5941969866  W2        7822            0.0000000000
     21506      7169  TIP3      H1              7.2639303705       36.5994228873       10.8497769866  W2        7822            0.0000000000
     21507      7169  TIP3      H2              8.5021703705       36.7447528873        9.9909869866  W2        7822            0.0000000000
     21508      7170  TIP3      OH2            13.0809703705       35.3362628873       10.7069069866  W2        7823            0.0000000000
     21509      7170  TIP3      H1             13.6847303705       35.8838028873       10.2050069866  W2        7823            0.0000000000
     21510      7170  TIP3      H2             12.2111703705       35.6553028873       10.4663169866  W2        7823            0.0000000000
     21511      7171  TIP3      OH2            14.8080103705       36.4751328873        9.0399969866  W2        7824            0.0000000000
     21512      7171  TIP3      H1             15.4197603705       35.9607028873        8.5133569866  W2        7824            0.0000000000
     21513      7171  TIP3      H2             15.1903503705       37.3523428873        9.0634369866  W2        7824            0.0000000000
     21514      7172  TIP3      OH2             0.2650003705       35.8628928873        8.4161869866  W2        7825            0.0000000000
     21515      7172  TIP3      H1             -0.5120196295       35.6283828873        7.9087769866  W2        7825            0.0000000000
     21516      7172  TIP3      H2              0.7953603705       35.0661028873        8.4249869866  W2        7825            0.0000000000
     21517      7173  TIP3      OH2            -0.8986596295       35.6607028873        4.2197969866  W2        7826            0.0000000000
     21518      7173  TIP3      H1             -0.4595896295       36.2717528873        3.6281469866  W2        7826            0.0000000000
     21519      7173  TIP3      H2             -1.5324196295       36.1991128873        4.6937969866  W2        7826            0.0000000000
     21520      7174  TIP3      OH2             4.8442603705       35.7896028873        8.2294969866  W2        7827            0.0000000000
     21521      7174  TIP3      H1              5.7186003705       36.1780328873        8.1999269866  W2        7827            0.0000000000
     21522      7174  TIP3      H2              4.7083403705       35.5743828873        9.1522169866  W2        7827            0.0000000000
     21523      7175  TIP3      OH2            10.4011003705       35.8195828873        9.8786669866  W2        7828            0.0000000000
     21524      7175  TIP3      H1             10.4772603705       35.9147428873        8.9292669866  W2        7828            0.0000000000
     21525      7175  TIP3      H2             10.1260203705       34.9118728873       10.0075769866  W2        7828            0.0000000000
     21526      7176  TIP3      OH2            11.7543603705       35.8453628873        5.5711669866  W2        7829            0.0000000000
     21527      7176  TIP3      H1             11.0514703705       36.4602828873        5.3613069866  W2        7829            0.0000000000
     21528      7176  TIP3      H2             11.3095003705       35.0080328873        5.7022569866  W2        7829            0.0000000000
     21529      7177  TIP3      OH2             0.9622503705       37.5768528873        2.6622069866  W2        7830            0.0000000000
     21530      7177  TIP3      H1              1.4535903705       36.9470928873        2.1347569866  W2        7830            0.0000000000
     21531      7177  TIP3      H2              1.5858803705       37.8727928873        3.3253269866  W2        7830            0.0000000000
     21532      7178  TIP3      OH2             5.9882603705       37.8700028873        5.1192569866  W2        7831            0.0000000000
     21533      7178  TIP3      H1              6.1663903705       37.2233228873        5.8021169866  W2        7831            0.0000000000
     21534      7178  TIP3      H2              5.9348803705       38.7037728873        5.5863669866  W2        7831            0.0000000000
     21535      7179  TIP3      OH2            34.1848103705       38.3078628873       13.0604769866  W2        7835            0.0000000000
     21536      7179  TIP3      H1             34.2340303705       38.9179828873       13.7963869866  W2        7835            0.0000000000
     21537      7179  TIP3      H2             34.6103203705       38.7689528873       12.3375869866  W2        7835            0.0000000000
     21538      7180  TIP3      OH2            21.8173603705       39.2022128873        9.7998169866  W2        7836            0.0000000000
     21539      7180  TIP3      H1             21.8604703705       40.0620628873        9.3814469866  W2        7836            0.0000000000
     21540      7180  TIP3      H2             21.3597703705       38.6496828873        9.1661369866  W2        7836            0.0000000000
     21541      7181  TIP3      OH2            29.5396303705       39.3327728873        8.2006469866  W2        7837            0.0000000000
     21542      7181  TIP3      H1             30.1860603705       39.0040928873        8.8254069866  W2        7837            0.0000000000
     21543      7181  TIP3      H2             30.0495703705       39.8506728873        7.5777869866  W2        7837            0.0000000000
     21544      7182  TIP3      OH2            34.5762703705       39.7857828873       15.2964569866  W2        7838            0.0000000000
     21545      7182  TIP3      H1             33.8877303705       40.4438528873       15.2011169866  W2        7838            0.0000000000
     21546      7182  TIP3      H2             34.5917303705       39.5885728873       16.2329969866  W2        7838            0.0000000000
     21547      7183  TIP3      OH2            20.6275503705       38.1200528873       13.8738969866  W2        7839            0.0000000000
     21548      7183  TIP3      H1             20.4087203705       38.6501128873       13.1074969866  W2        7839            0.0000000000
     21549      7183  TIP3      H2             19.9596403705       38.3466028873       14.5210369866  W2        7839            0.0000000000
     21550      7184  TIP3      OH2            31.3034703705       38.6237028873       10.1812369866  W2        7840            0.0000000000
     21551      7184  TIP3      H1             31.0882703705       37.8580428873       10.7138369866  W2        7840            0.0000000000
     21552      7184  TIP3      H2             31.9592103705       39.0961628873       10.6940869866  W2        7840            0.0000000000
     21553      7185  TIP3      OH2            20.2212803705       40.0122328873       11.8261169866  W2        7841            0.0000000000
     21554      7185  TIP3      H1             20.8349103705       40.6449928873       12.1993569866  W2        7841            0.0000000000
     21555      7185  TIP3      H2             20.7333503705       39.5397328873       11.1698069866  W2        7841            0.0000000000
     21556      7186  TIP3      OH2            31.6508803705       37.3388328873       13.8605869866  W2        7842            0.0000000000
     21557      7186  TIP3      H1             30.9148003705       37.9495428873       13.8227169866  W2        7842            0.0000000000
     21558      7186  TIP3      H2             32.3342803705       37.7537328873       13.3342269866  W2        7842            0.0000000000
     21559      7187  TIP3      OH2            24.6540203705       35.4255628873       11.3263869866  W2        7843            0.0000000000
     21560      7187  TIP3      H1             24.5364403705       34.4771628873       11.2722169866  W2        7843            0.0000000000
     21561      7187  TIP3      H2             23.7990303705       35.7581728873       11.5994969866  W2        7843            0.0000000000
     21562      7188  TIP3      OH2            32.8960703705       35.3847828873        4.2766469866  W2        7844            0.0000000000
     21563      7188  TIP3      H1             31.9961403705       35.5236828873        4.5717069866  W2        7844            0.0000000000
     21564      7188  TIP3      H2             33.1479103705       36.2162428873        3.8748169866  W2        7844            0.0000000000
     21565      7189  TIP3      OH2            21.9227803705       36.3290128873       12.1040169866  W2        7845            0.0000000000
     21566      7189  TIP3      H1             21.0611503705       36.2418328873       11.6963069866  W2        7845            0.0000000000
     21567      7189  TIP3      H2             21.9003503705       37.1850228873       12.5317769866  W2        7845            0.0000000000
     21568      7190  TIP3      OH2            26.5855603705       36.0510528873       15.4787169866  W2        7846            0.0000000000
     21569      7190  TIP3      H1             27.0058703705       35.6357628873       16.2317769866  W2        7846            0.0000000000
     21570      7190  TIP3      H2             25.6525203705       35.8723828873       15.5959169866  W2        7846            0.0000000000
     21571      7191  TIP3      OH2            29.9120503705       39.8065728873       16.3321669866  W2        7847            0.0000000000
     21572      7191  TIP3      H1             29.3980003705       39.6807928873       17.1297669866  W2        7847            0.0000000000
     21573      7191  TIP3      H2             29.7565203705       40.7188828873       16.0877869866  W2        7847            0.0000000000
     21574      7192  TIP3      OH2            26.2472903705       38.5433928873        2.7637969866  W2        7848            0.0000000000
     21575      7192  TIP3      H1             25.9937703705       38.5625528873        3.6866069866  W2        7848            0.0000000000
     21576      7192  TIP3      H2             25.9905003705       37.6719328873        2.4624169866  W2        7848            0.0000000000
     21577      7193  TIP3      OH2            23.1295803705       38.9890428873        1.8648369866  W2        7849            0.0000000000
     21578      7193  TIP3      H1             22.6986503705       38.5440528873        2.5945769866  W2        7849            0.0000000000
     21579      7193  TIP3      H2             22.4114503705       39.3606728873        1.3525869866  W2        7849            0.0000000000
     21580      7194  TIP3      OH2            16.3719203705       38.7309928873        8.9167069866  W2        7850            0.0000000000
     21581      7194  TIP3      H1             17.0026903705       38.7022028873        9.6360969866  W2        7850            0.0000000000
     21582      7194  TIP3      H2             16.8213503705       38.3058628873        8.1862969866  W2        7850            0.0000000000
     21583      7195  TIP3      OH2            17.6461303705       39.4771928873        4.3407469866  W2        7851            0.0000000000
     21584      7195  TIP3      H1             18.1203003705       40.0681828873        3.7558369866  W2        7851            0.0000000000
     21585      7195  TIP3      H2             16.9287703705       40.0074828873        4.6877569866  W2        7851            0.0000000000
     21586      7196  TIP3      OH2            24.5922303705       38.9432228873        9.1974469866  W2        7852            0.0000000000
     21587      7196  TIP3      H1             23.6813403705       38.9999028873        9.4860469866  W2        7852            0.0000000000
     21588      7196  TIP3      H2             25.0975203705       38.8827728873       10.0081669866  W2        7852            0.0000000000
     21589      7197  TIP3      OH2            28.9974203705       38.1778528873       12.4616269866  W2        7853            0.0000000000
     21590      7197  TIP3      H1             28.3205803705       38.3091628873       13.1255969866  W2        7853            0.0000000000
     21591      7197  TIP3      H2             28.5119103705       38.0228028873       11.6513969866  W2        7853            0.0000000000
     21592      7198  TIP3      OH2            20.9141703705       37.8671328873        7.5028869866  W2        7854            0.0000000000
     21593      7198  TIP3      H1             20.5971203705       36.9646628873        7.4674269866  W2        7854            0.0000000000
     21594      7198  TIP3      H2             21.6955803705       37.8688728873        6.9500469866  W2        7854            0.0000000000
     21595      7199  TIP3      OH2            24.5387903705       40.1191328873       13.4984469866  W2        7855            0.0000000000
     21596      7199  TIP3      H1             23.7033203705       40.5730828873       13.6086869866  W2        7855            0.0000000000
     21597      7199  TIP3      H2             25.0628503705       40.3949828873       14.2504369866  W2        7855            0.0000000000
     21598      7200  TIP3      OH2            28.9807303705       39.1458928873        3.3823469866  W2        7856            0.0000000000
     21599      7200  TIP3      H1             28.0421503705       39.2574528873        3.2312269866  W2        7856            0.0000000000
     21600      7200  TIP3      H2             29.2779403705       40.0025828873        3.6889169866  W2        7856            0.0000000000
     21601      7201  TIP3      OH2            18.8498003705       38.8408628873       15.8258669866  W2        7857            0.0000000000
     21602      7201  TIP3      H1             17.9570303705       39.1794028873       15.7582669866  W2        7857            0.0000000000
     21603      7201  TIP3      H2             18.7510803705       37.9854728873       16.2439469866  W2        7857            0.0000000000
     21604      7202  TIP3      OH2            27.5841403705       38.5818928873       14.7157269866  W2        7858            0.0000000000
     21605      7202  TIP3      H1             28.2829303705       38.6557628873       15.3656969866  W2        7858            0.0000000000
     21606      7202  TIP3      H2             27.2032803705       37.7173928873       14.8700169866  W2        7858            0.0000000000
     21607      7203  TIP3      OH2            28.3686303705       38.2340628873        5.8129569866  W2        7859            0.0000000000
     21608      7203  TIP3      H1             28.5884603705       38.7056028873        5.0094969866  W2        7859            0.0000000000
     21609      7203  TIP3      H2             28.9270303705       38.6283228873        6.4830169866  W2        7859            0.0000000000
     21610      7204  TIP3      OH2            25.5686203705       39.9619428873        6.6477969866  W2        7860            0.0000000000
     21611      7204  TIP3      H1             26.3808803705       40.4662628873        6.6939669866  W2        7860            0.0000000000
     21612      7204  TIP3      H2             25.3239203705       39.8169128873        7.5617569866  W2        7860            0.0000000000
     21613      7205  TIP3      OH2            26.4522903705       37.0432428873        7.5859069866  W2        7861            0.0000000000
     21614      7205  TIP3      H1             26.1056403705       37.6603028873        8.2303369866  W2        7861            0.0000000000
     21615      7205  TIP3      H2             27.1109803705       37.5438128873        7.1044569866  W2        7861            0.0000000000
     21616      7206  TIP3      OH2            22.1099903705       38.1061828873        4.2731569866  W2        7862            0.0000000000
     21617      7206  TIP3      H1             22.0264703705       38.9944928873        4.6197969866  W2        7862            0.0000000000
     21618      7206  TIP3      H2             23.0000203705       37.8408528873        4.5048369866  W2        7862            0.0000000000
     21619      7207  TIP3      OH2            32.3088403705       38.8552428873       16.6674269866  W2        7863            0.0000000000
     21620      7207  TIP3      H1             31.3924203705       39.1174128873       16.5797969866  W2        7863            0.0000000000
     21621      7207  TIP3      H2             32.6443403705       38.8521428873       15.7709569866  W2        7863            0.0000000000
     21622      7208  TIP3      OH2            19.4926403705       35.9793628873       11.1226469866  W2        7864            0.0000000000
     21623      7208  TIP3      H1             19.2636203705       36.0386128873       10.1951469866  W2        7864            0.0000000000
     21624      7208  TIP3      H2             19.0499803705       35.1879128873       11.4290569866  W2        7864            0.0000000000
     21625      7209  TIP3      OH2            22.7373403705       39.9068328873       17.4439869866  W2        7865            0.0000000000
     21626      7209  TIP3      H1             22.8874303705       39.1779628873       16.8419569866  W2        7865            0.0000000000
     21627      7209  TIP3      H2             22.7395803705       40.6840028873       16.8852069866  W2        7865            0.0000000000
     21628      7210  TIP3      OH2            23.1499103705       38.2764128873       14.9367269866  W2        7866            0.0000000000
     21629      7210  TIP3      H1             23.6856603705       38.7280828873       14.2846569866  W2        7866            0.0000000000
     21630      7210  TIP3      H2             22.2978703705       38.1683928873       14.5141369866  W2        7866            0.0000000000
     21631      7211  TIP3      OH2            23.9554603705       35.7329828873       15.3680869866  W2        7867            0.0000000000
     21632      7211  TIP3      H1             23.8574203705       36.6793028873       15.2627069866  W2        7867            0.0000000000
     21633      7211  TIP3      H2             23.2130803705       35.3603628873       14.8924369866  W2        7867            0.0000000000
     21634      7212  TIP3      OH2            32.2873403705       38.7275828873        1.5718469866  W2        7874            0.0000000000
     21635      7212  TIP3      H1             32.8979203705       38.3562628873        2.2086669866  W2        7874            0.0000000000
     21636      7212  TIP3      H2             31.4504903705       38.3062728873        1.7678469866  W2        7874            0.0000000000
     21637      7213  TIP3      OH2            31.9199103705       40.2824228873        6.5378369866  W2        7875            0.0000000000
     21638      7213  TIP3      H1             32.1996203705       39.3754628873        6.6620069866  W2        7875            0.0000000000
     21639      7213  TIP3      H2             32.6790803705       40.7165728873        6.1487569866  W2        7875            0.0000000000
     21640      7214  TIP3      OH2            32.5333903705       37.5453528873        6.5860369866  W2        7878            0.0000000000
     21641      7214  TIP3      H1             32.7158903705       37.0965028873        7.4115369866  W2        7878            0.0000000000
     21642      7214  TIP3      H2             31.9336803705       36.9607928873        6.1224969866  W2        7878            0.0000000000
     21643      7215  TIP3      OH2            18.0634003705       38.3607228873       11.1178769866  W2        7879            0.0000000000
     21644      7215  TIP3      H1             18.5085603705       37.5689728873       11.4198469866  W2        7879            0.0000000000
     21645      7215  TIP3      H2             18.5297003705       39.0772428873       11.5484369866  W2        7879            0.0000000000
     21646      7216  TIP3      OH2            34.4000103705       37.6131628873        3.1140669866  W2        7881            0.0000000000
     21647      7216  TIP3      H1             34.8122703705       36.8917328873        2.6388669866  W2        7881            0.0000000000
     21648      7216  TIP3      H2             35.0816603705       38.2826228873        3.1724969866  W2        7881            0.0000000000
     21649      7217  TIP3      OH2            16.6810803705       37.6179328873        6.2411369866  W2        7882            0.0000000000
     21650      7217  TIP3      H1             15.7559203705       37.8265928873        6.1116869866  W2        7882            0.0000000000
     21651      7217  TIP3      H2             17.1350703705       38.1020128873        5.5513669866  W2        7882            0.0000000000
     21652      7218  TIP3      OH2            16.6446203705       36.3558328873       14.5853869866  W2        7883            0.0000000000
     21653      7218  TIP3      H1             15.9796703705       36.1098628873       15.2284769866  W2        7883            0.0000000000
     21654      7218  TIP3      H2             16.2017503705       36.9778728873       14.0081869866  W2        7883            0.0000000000
     21655      7219  TIP3      OH2            33.3644003705       35.7798028873       16.2713769866  W2        7884            0.0000000000
     21656      7219  TIP3      H1             32.5517503705       36.1048328873       15.8838469866  W2        7884            0.0000000000
     21657      7219  TIP3      H2             33.5972503705       35.0196528873       15.7382869866  W2        7884            0.0000000000
     21658      7220  TIP3      OH2            26.7942503705       37.2288628873       10.5941969866  W2        7885            0.0000000000
     21659      7220  TIP3      H1             26.1199303705       36.5994228873       10.8497769866  W2        7885            0.0000000000
     21660      7220  TIP3      H2             27.3581703705       36.7447528873        9.9909869866  W2        7885            0.0000000000
     21661      7221  TIP3      OH2            31.9369703705       35.3362628873       10.7069069866  W2        7886            0.0000000000
     21662      7221  TIP3      H1             32.5407303705       35.8838028873       10.2050069866  W2        7886            0.0000000000
     21663      7221  TIP3      H2             31.0671703705       35.6553028873       10.4663169866  W2        7886            0.0000000000
     21664      7222  TIP3      OH2            33.6640103705       36.4751328873        9.0399969866  W2        7887            0.0000000000
     21665      7222  TIP3      H1             34.2757603705       35.9607028873        8.5133569866  W2        7887            0.0000000000
     21666      7222  TIP3      H2             34.0463503705       37.3523428873        9.0634369866  W2        7887            0.0000000000
     21667      7223  TIP3      OH2            19.1210003705       35.8628928873        8.4161869866  W2        7888            0.0000000000
     21668      7223  TIP3      H1             18.3439803705       35.6283828873        7.9087769866  W2        7888            0.0000000000
     21669      7223  TIP3      H2             19.6513603705       35.0661028873        8.4249869866  W2        7888            0.0000000000
     21670      7224  TIP3      OH2            17.9573403705       35.6607028873        4.2197969866  W2        7889            0.0000000000
     21671      7224  TIP3      H1             18.3964103705       36.2717528873        3.6281469866  W2        7889            0.0000000000
     21672      7224  TIP3      H2             17.3235803705       36.1991128873        4.6937969866  W2        7889            0.0000000000
     21673      7225  TIP3      OH2            23.7002603705       35.7896028873        8.2294969866  W2        7890            0.0000000000
     21674      7225  TIP3      H1             24.5746003705       36.1780328873        8.1999269866  W2        7890            0.0000000000
     21675      7225  TIP3      H2             23.5643403705       35.5743828873        9.1522169866  W2        7890            0.0000000000
     21676      7226  TIP3      OH2            29.2571003705       35.8195828873        9.8786669866  W2        7891            0.0000000000
     21677      7226  TIP3      H1             29.3332603705       35.9147428873        8.9292669866  W2        7891            0.0000000000
     21678      7226  TIP3      H2             28.9820203705       34.9118728873       10.0075769866  W2        7891            0.0000000000
     21679      7227  TIP3      OH2            30.6103603705       35.8453628873        5.5711669866  W2        7892            0.0000000000
     21680      7227  TIP3      H1             29.9074703705       36.4602828873        5.3613069866  W2        7892            0.0000000000
     21681      7227  TIP3      H2             30.1655003705       35.0080328873        5.7022569866  W2        7892            0.0000000000
     21682      7228  TIP3      OH2            19.8182503705       37.5768528873        2.6622069866  W2        7893            0.0000000000
     21683      7228  TIP3      H1             20.3095903705       36.9470928873        2.1347569866  W2        7893            0.0000000000
     21684      7228  TIP3      H2             20.4418803705       37.8727928873        3.3253269866  W2        7893            0.0000000000
     21685      7229  TIP3      OH2            24.8442603705       37.8700028873        5.1192569866  W2        7894            0.0000000000
     21686      7229  TIP3      H1             25.0223903705       37.2233228873        5.8021169866  W2        7894            0.0000000000
     21687      7229  TIP3      H2             24.7908803705       38.7037728873        5.5863669866  W2        7894            0.0000000000
     21688      7230  TIP3      OH2            39.4835503705       38.1200528873       13.8738969866  W2        7898            0.0000000000
     21689      7230  TIP3      H1             39.2647203705       38.6501128873       13.1074969866  W2        7898            0.0000000000
     21690      7230  TIP3      H2             38.8156403705       38.3466028873       14.5210369866  W2        7898            0.0000000000
     21691      7231  TIP3      OH2            39.0772803705       40.0122328873       11.8261169866  W2        7899            0.0000000000
     21692      7231  TIP3      H1             39.6909103705       40.6449928873       12.1993569866  W2        7899            0.0000000000
     21693      7231  TIP3      H2             39.5893503705       39.5397328873       11.1698069866  W2        7899            0.0000000000
     21694      7232  TIP3      OH2            35.2279203705       38.7309928873        8.9167069866  W2        7900            0.0000000000
     21695      7232  TIP3      H1             35.8586903705       38.7022028873        9.6360969866  W2        7900            0.0000000000
     21696      7232  TIP3      H2             35.6773503705       38.3058628873        8.1862969866  W2        7900            0.0000000000
     21697      7233  TIP3      OH2            36.5021303705       39.4771928873        4.3407469866  W2        7901            0.0000000000
     21698      7233  TIP3      H1             36.9763003705       40.0681828873        3.7558369866  W2        7901            0.0000000000
     21699      7233  TIP3      H2             35.7847703705       40.0074828873        4.6877569866  W2        7901            0.0000000000
     21700      7234  TIP3      OH2            39.7701703705       37.8671328873        7.5028869866  W2        7902            0.0000000000
     21701      7234  TIP3      H1             39.4531203705       36.9646628873        7.4674269866  W2        7902            0.0000000000
     21702      7234  TIP3      H2             40.5515803705       37.8688728873        6.9500469866  W2        7902            0.0000000000
     21703      7235  TIP3      OH2            37.7058003705       38.8408628873       15.8258669866  W2        7903            0.0000000000
     21704      7235  TIP3      H1             36.8130303705       39.1794028873       15.7582669866  W2        7903            0.0000000000
     21705      7235  TIP3      H2             37.6070803705       37.9854728873       16.2439469866  W2        7903            0.0000000000
     21706      7236  TIP3      OH2            38.3486403705       35.9793628873       11.1226469866  W2        7904            0.0000000000
     21707      7236  TIP3      H1             38.1196203705       36.0386128873       10.1951469866  W2        7904            0.0000000000
     21708      7236  TIP3      H2             37.9059803705       35.1879128873       11.4290569866  W2        7904            0.0000000000
     21709      7237  TIP3      OH2            36.9194003705       38.3607228873       11.1178769866  W2        7907            0.0000000000
     21710      7237  TIP3      H1             37.3645603705       37.5689728873       11.4198469866  W2        7907            0.0000000000
     21711      7237  TIP3      H2             37.3857003705       39.0772428873       11.5484369866  W2        7907            0.0000000000
     21712      7238  TIP3      OH2            35.5370803705       37.6179328873        6.2411369866  W2        7908            0.0000000000
     21713      7238  TIP3      H1             34.6119203705       37.8265928873        6.1116869866  W2        7908            0.0000000000
     21714      7238  TIP3      H2             35.9910703705       38.1020128873        5.5513669866  W2        7908            0.0000000000
     21715      7239  TIP3      OH2            35.5006203705       36.3558328873       14.5853869866  W2        7909            0.0000000000
     21716      7239  TIP3      H1             34.8356703705       36.1098628873       15.2284769866  W2        7909            0.0000000000
     21717      7239  TIP3      H2             35.0577503705       36.9778728873       14.0081869866  W2        7909            0.0000000000
     21718      7240  TIP3      OH2            37.9770003705       35.8628928873        8.4161869866  W2        7910            0.0000000000
     21719      7240  TIP3      H1             37.1999803705       35.6283828873        7.9087769866  W2        7910            0.0000000000
     21720      7240  TIP3      H2             38.5073603705       35.0661028873        8.4249869866  W2        7910            0.0000000000
     21721      7241  TIP3      OH2            36.8133403705       35.6607028873        4.2197969866  W2        7911            0.0000000000
     21722      7241  TIP3      H1             37.2524103705       36.2717528873        3.6281469866  W2        7911            0.0000000000
     21723      7241  TIP3      H2             36.1795803705       36.1991128873        4.6937969866  W2        7911            0.0000000000
     21724      7242  TIP3      OH2            38.6742503705       37.5768528873        2.6622069866  W2        7912            0.0000000000
     21725      7242  TIP3      H1             39.1655903705       36.9470928873        2.1347569866  W2        7912            0.0000000000
     21726      7242  TIP3      H2             39.2978803705       37.8727928873        3.3253269866  W2        7912            0.0000000000
