* GENERATED BY CHARMM-GUI (HTTP://WWW.CHARMM-GUI.ORG) V3.7 ON JUL, 04. 2026. JOB
* GENERATES LIPID PACKING USING BIG SPHERES
*  DATE:     7/ 4/26     15:49:22      CREATED BY USER: charmm-gui
*
       200  EXT
         1         1  POPE      POLO           38.3431678481       33.1902100399       12.0116674772  HEAD      1               0.0000000000
         2         2  POPE      POLO           14.0703403569       -7.6261061674       11.9969146529  HEAD      2               0.0000000000
         3         3  POPE      POLO          -25.5386046970       32.0234866670       12.0179763782  HEAD      3               0.0000000000
         4         4  POPE      POLO           22.7979300514       13.7399457759       11.8518044903  HEAD      4               0.0000000000
         5         5  POPE      POLO          -35.7872285413       -4.8843653776       11.9828004844  HEAD      5               0.0000000000
         6         6  POPE      POLO          -13.1678644113      -40.0532939341       12.0163878681  HEAD      6               0.0000000000
         7         7  POPE      POLO          -12.0120525151       -2.4876217791       11.9531284897  HEAD      7               0.0000000000
         8         8  POPE      POLO            0.7410890933      -10.2961285915       12.0481951022  HEAD      8               0.0000000000
         9         9  POPE      POLO          -32.8935864608      -12.7193244769       12.0541467557  HEAD      9               0.0000000000
        10        10  POPE      POLO          -20.7963151655       25.1944186406       11.9794271576  HEAD      10              0.0000000000
        11        11  POPE      POLO           28.7474277648       -2.0396084895       11.9830300159  HEAD      11              0.0000000000
        12        12  POPE      POLO          -23.2288315464      -26.4865811505       12.0246307536  HEAD      12              0.0000000000
        13        13  POPE      POLO           19.1975475641       21.5363198271       11.9912376177  HEAD      13              0.0000000000
        14        14  OYPE      POLO           31.3199518117      -10.1691668967       12.0612499134  HEAD      14              0.0000000000
        15        15  OYPE      POLO           39.6908239880       11.1766368340       11.8829301027  HEAD      15              0.0000000000
        16        16  OYPE      POLO          -11.7188623931       26.3780508161       11.9944873099  HEAD      16              0.0000000000
        17        17  OYPE      POLO          -17.7502034405      -32.9428086951       11.9869310036  HEAD      17              0.0000000000
        18        18  OYPE      POLO            6.2762192060       15.1268492650       12.0747074203  HEAD      18              0.0000000000
        19        19  OYPE      POLO           33.2413358814       26.5554945363       11.8711980956  HEAD      19              0.0000000000
        20        20  OYPE      POLO            3.0425135681      -37.8410004703       11.9752384429  HEAD      20              0.0000000000
        21        21  OYPE      POLO            6.7749261602      -28.9428086847       11.9046203857  HEAD      21              0.0000000000
        22        22  PYPG      POLO           18.6065975841      -37.3942796476       12.0780197168  HEAD      22              0.0000000000
        23        23  PYPG      POLO           11.4379540099      -21.7949090868       12.0793462144  HEAD      23              0.0000000000
        24        24  PYPG      POLO           -6.5653689709       20.0471400060       11.9297739867  HEAD      24              0.0000000000
        25        25  PYPG      POLO           31.3199534698       12.4692247560       11.9765128229  HEAD      25              0.0000000000
        26        26  PYPG      POLO          -37.7631173612      -19.4562913701       11.7390201394  HEAD      26              0.0000000000
        27        27  PYPG      POLO          -24.0795841534        6.0928029976       12.0224351253  HEAD      27              0.0000000000
        28        28  PYPG      POLO           -3.4416816418       -2.8590126218       11.8385646718  HEAD      28              0.0000000000
        29        29  PYPG      POLO           -6.3864410622      -24.2657212424       12.0236349671  HEAD      29              0.0000000000
        30        30  PYPG      POLO           20.3086496173       -1.1833199012       11.9969504968  HEAD      30              0.0000000000
        31        31  PVCL2     POLO          -24.6917400764       15.8068183248       11.9336341924  HEAD      31              0.0000000000
        32        32  PVCL2     POLO          -33.3924863811      -28.4692984512       11.9550686571  HEAD      32              0.0000000000
        33        33  QMPE      POLO           29.0645628956      -24.1929302704       12.0441603319  HEAD      33              0.0000000000
        34        34  QMPE      POLO          -12.0061553759      -17.2154372441       12.0406902004  HEAD      34              0.0000000000
        35        35  QMPE      POLO           10.7495040513      -36.0936655011       12.2087574499  HEAD      35              0.0000000000
        36        36  QMPE      POLO           39.8220855702      -11.3464974986       12.0146888823  HEAD      36              0.0000000000
        37        37  QMPE      POLO          -30.6585323916        1.8977194882       11.9547860438  HEAD      37              0.0000000000
        38        38  QMPE      POLO            3.0241640010      -21.6869776143       11.9975438399  HEAD      38              0.0000000000
        39        39  QMPE      POLO           20.3223436343      -22.7335765770       11.9651784672  HEAD      39              0.0000000000
        40        40  QMPE      POLO           25.8912294323      -16.5878443408       11.9975132416  HEAD      40              0.0000000000
        41        41  QMPE      POLO           27.9978255810       20.2413655626       12.1004075170  HEAD      41              0.0000000000
        42        42  QMPE      POLO          -21.3672363732       39.6506224821       12.1402186670  HEAD      42              0.0000000000
        43        43  QMPE      POLO          -16.9289249005       32.6847064767       12.0102185208  HEAD      43              0.0000000000
        44        44  QMPE      POLO          -25.8143503723      -34.4053757128       12.0113624376  HEAD      44              0.0000000000
        45        45  PMPE      POLO           -2.0209794839       13.0574781379       12.0230586728  HEAD      45              0.0000000000
        46        46  PMPE      POLO           20.7654114482       35.5150864894       12.0677861429  HEAD      46              0.0000000000
        47        47  PMPE      POLO            9.4805927524        7.7120070296       12.0654093424  HEAD      47              0.0000000000
        48        48  PMPE      POLO           16.9885279623      -15.2512256518       11.9484543228  HEAD      48              0.0000000000
        49        49  PMPE      POLO            8.2224832438      -13.9150112071       12.0232915078  HEAD      49              0.0000000000
        50        50  PMPE      POLO          -29.8532875332       39.5742198785       12.0397499556  HEAD      50              0.0000000000
        51        51  PMPE      POLO           -8.2384148279       34.0939926772       11.8758811344  HEAD      51              0.0000000000
        52        52  PMPE      POLO          -24.3688731034      -12.8133786462       11.8929751771  HEAD      52              0.0000000000
        53        53  PMPE      POLO           -7.6459468043        4.5066885023       12.1437328621  HEAD      53              0.0000000000
        54        54  PMPE      POLO           36.8821236928       -3.3890532739       12.0020321830  HEAD      54              0.0000000000
        55        55  PMPE      POLO          -37.7646760663       40.0941818348       11.9770371334  HEAD      55              0.0000000000
        56        56  PMPE      POLO           -1.3367669914      -30.6873504557       11.9638940119  HEAD      56              0.0000000000
        57        57  PMPE      POLO            5.7358677404       -4.1647139544       12.0665420153  HEAD      57              0.0000000000
        58        58  PMPE      POLO           12.2233150319        0.3791636941       11.9897359962  HEAD      58              0.0000000000
        59        59  PMPE      POLO           -9.6333563681      -32.1468788951       12.0546187103  HEAD      59              0.0000000000
        60        60  PMPE      POLO           29.4312157513       34.3832918133       11.9433950676  HEAD      60              0.0000000000
        61        61  PMPE      POLO           22.9990702643       -8.7948292150       11.8985047650  HEAD      61              0.0000000000
        62        62  PMPE      POLO          -38.6329239617        3.3664765383       11.9419075100  HEAD      62              0.0000000000
        63        63  PMPE      POLO          -38.5925134189       25.6135688965       11.9500859448  HEAD      63              0.0000000000
        64        64  PMPE      POLO          -19.8181417060      -19.3232005140       12.1251626191  HEAD      64              0.0000000000
        65        65  PMPE      POLO           26.0152700813        5.8561799170       11.9160095104  HEAD      65              0.0000000000
        66        66  PMPE      POLO          -16.6296518326       -9.9355311819       11.9344667671  HEAD      66              0.0000000000
        67        67  PMPE      POLO           17.8322319062        6.8101336373       11.9981564933  HEAD      67              0.0000000000
        68        68  PMPE      POLO           -3.5638378876      -16.7913861920       11.9244575472  HEAD      68              0.0000000000
        69        69  PMPE      POLO           39.5138908743      -33.6289766495       12.1019260003  HEAD      69              0.0000000000
        70        70  PMPE      POLO          -34.9892656054       17.7853523689       11.9984517984  HEAD      70              0.0000000000
        71        71  PMPE      POLO           24.2403261919       27.9379217962       11.9391979441  HEAD      71              0.0000000000
        72        72  PMPE      POLO           34.4450224512      -17.9713593415       11.9552671950  HEAD      72              0.0000000000
        73        73  PMPE      POLO           15.2699551344       29.4892655149       12.0618105537  HEAD      73              0.0000000000
        74        74  PMPE      POLO            0.6961513627       35.3516331457       11.9882138037  HEAD      74              0.0000000000
        75        75  PMPE      POLO          -15.3145888458       18.6754891399       12.1174366172  HEAD      75              0.0000000000
        76        76  PMPE      POLO          -10.6524786125       12.2234571062       12.0527537319  HEAD      76              0.0000000000
        77        77  PMPE      POLO           31.7027719033      -31.8796592482       12.2192879300  HEAD      77              0.0000000000
        78        78  PMPE      POLO            6.0468083003       28.9961388190       12.0719701648  HEAD      78              0.0000000000
        79        79  PMPE      POLO          -14.5159771407      -25.3097993849       11.9999241274  HEAD      79              0.0000000000
        80        80  PMPE      POLO           10.8523372868       22.2610468594       12.1529864938  HEAD      80              0.0000000000
        81        81  PMPE      POLO            1.9060783623       21.6785184540       11.9659949623  HEAD      81              0.0000000000
        82        82  PMPE      POLO           -8.0864516468       -9.7540383710       11.8767336744  HEAD      82              0.0000000000
        83        83  PMPE      POLO           -4.9885170896      -38.8872948298       11.9530176405  HEAD      83              0.0000000000
        84        84  PMPE      POLO           37.6736525790      -25.8193049326       11.9630307034  HEAD      84              0.0000000000
        85        85  PMPE      POLO           36.7967059899       18.9821166384       11.9691458395  HEAD      85              0.0000000000
        86        86  PMPE      POLO          -15.9353491824        6.0837379934       11.9362885323  HEAD      86              0.0000000000
        87        87  PMPE      POLO           15.2376273416      -29.4531788542       11.8665417630  HEAD      87              0.0000000000
        88        88  PMPE      POLO          -33.8885816299       32.4438120820       12.0408747516  HEAD      88              0.0000000000
        89        89  PMPE      POLO          -27.2998974497       -5.4122165339       12.0413708612  HEAD      89              0.0000000000
        90        90  PMPE      POLO          -28.5998844997      -19.8846505435       11.9297364529  HEAD      90              0.0000000000
        91        91  PMPG      POLO           23.5292750618      -30.5995242063       12.0125065566  HEAD      91              0.0000000000
        92        92  PMPG      POLO          -29.8621431220       24.7171221487       12.0923512399  HEAD      92              0.0000000000
        93        93  PMPG      POLO           14.5528374168       14.5031811995       11.9154041954  HEAD      93              0.0000000000
        94        94  PMPG      POLO          -19.9389119145       -1.6871345820       11.8988128714  HEAD      94              0.0000000000
        95        95  PMPG      POLO           10.3228367254       36.4788979460       12.1441469381  HEAD      95              0.0000000000
        96        96  PMPG      POLO           34.1764338964        4.3640524560       11.9934605932  HEAD      96              0.0000000000
        97        97  PMPG      POLO           26.5300598784      -38.7439273178       12.1327095018  HEAD      97              0.0000000000
        98        98  PMPG      POLO          -32.7168621232        9.8616664031       11.9983176690  HEAD      98              0.0000000000
        99        99  PMPG      POLO           -3.2005613466       27.8530474334       11.9490689547  HEAD      99              0.0000000000
       100       100  PMPG      POLO           34.5594205164      -40.2252679890       11.9679562161  HEAD      100             0.0000000000
       101       101  POPE      POLO          -23.8998980772      -38.7238629295      -12.0719266144  HEAD      101             0.0000000000
       102       102  POPE      POLO           -6.7769043571      -10.6459340278      -11.9820074421  HEAD      102             0.0000000000
       103       103  POPE      POLO           -3.0472303275       20.9156122060      -12.1092908356  HEAD      103             0.0000000000
       104       104  POPE      POLO            5.1997784092      -39.0690393153      -12.1085207620  HEAD      104             0.0000000000
       105       105  POPE      POLO           16.2087462189       -1.7862915927      -12.0576382831  HEAD      105             0.0000000000
       106       106  POPE      POLO            1.1023640721       -8.3521773298      -11.8903481132  HEAD      106             0.0000000000
       107       107  POPE      POLO           35.3483963392      -33.0628652265      -12.0054981702  HEAD      107             0.0000000000
       108       108  POPE      POLO          -37.2730960078      -21.0417034457      -11.9865054117  HEAD      108             0.0000000000
       109       109  POPE      POLO           40.3305940843       17.6577207096      -11.9725115671  HEAD      109             0.0000000000
       110       110  POPE      POLO          -29.3525347070      -17.6499230173      -11.9819876959  HEAD      110             0.0000000000
       111       111  POPE      POLO            5.4536606941      -30.5700922935      -12.0385987273  HEAD      111             0.0000000000
       112       112  POPE      POLO          -26.6822807014        8.0395452670      -11.9374647093  HEAD      112             0.0000000000
       113       113  POPE      POLO           25.3055933594       18.8307380950      -11.9642125738  HEAD      113             0.0000000000
       114       114  OYPE      POLO            8.7271513326       -5.8360947611      -12.1650320367  HEAD      114             0.0000000000
       115       115  OYPE      POLO          -10.3933078458       24.9390730297      -12.0369079824  HEAD      115             0.0000000000
       116       116  OYPE      POLO           33.1371581745       22.3081653082      -11.9416860797  HEAD      116             0.0000000000
       117       117  OYPE      POLO           13.1191181181      -26.9739098501      -11.9619809775  HEAD      117             0.0000000000
       118       118  OYPE      POLO           20.4794295627      -31.9914460685      -12.1225284830  HEAD      118             0.0000000000
       119       119  OYPE      POLO           23.1893717251       -6.7059897986      -12.0586118990  HEAD      119             0.0000000000
       120       120  OYPE      POLO          -36.4338212725      -12.6387722087      -12.0642016734  HEAD      120             0.0000000000
       121       121  OYPE      POLO           36.6510450766      -16.2554730212      -12.1044594632  HEAD      121             0.0000000000
       122       122  PYPG      POLO          -22.0084839405      -14.1627787484      -11.9563415257  HEAD      122             0.0000000000
       123       123  PYPG      POLO           -2.2814738763       37.6805574505      -12.1203221855  HEAD      123             0.0000000000
       124       124  PYPG      POLO           19.6085993420      -40.2179497070      -11.9907895559  HEAD      124             0.0000000000
       125       125  PYPG      POLO          -28.7981727379       -9.0995437257      -11.8948174637  HEAD      125             0.0000000000
       126       126  PYPG      POLO           24.5651349063       10.5298881125      -12.0412337078  HEAD      126             0.0000000000
       127       127  PYPG      POLO          -14.6554172276      -10.9523319517      -11.9960777001  HEAD      127             0.0000000000
       128       128  PYPG      POLO           -5.0453105346        7.2105316148      -11.8858178337  HEAD      128             0.0000000000
       129       129  PYPG      POLO            2.7462507977        7.3221118159      -11.9922364817  HEAD      129             0.0000000000
       130       130  PYPG      POLO           33.9331634455       30.5750317547      -11.9569371829  HEAD      130             0.0000000000
       131       131  PVCL2     POLO          -10.2477301033       14.8480203396      -12.0336895674  HEAD      131             0.0000000000
       132       132  PVCL2     POLO           -3.9661698788      -25.5537335879      -12.1320768160  HEAD      132             0.0000000000
       133       133  QMPE      POLO           32.3340263340       13.9763053530      -12.0195116587  HEAD      133             0.0000000000
       134       134  QMPE      POLO           18.2642815385       23.5046950839      -12.0165110138  HEAD      134             0.0000000000
       135       135  QMPE      POLO          -21.0645022797       -5.7642147807      -11.9548522884  HEAD      135             0.0000000000
       136       136  QMPE      POLO           17.6286978523       15.2942692042      -12.0248544686  HEAD      136             0.0000000000
       137       137  QMPE      POLO           -9.2611964553      -38.9419665643      -11.9251110066  HEAD      137             0.0000000000
       138       138  QMPE      POLO          -21.1515497378      -22.2567554477      -11.9966722153  HEAD      138             0.0000000000
       139       139  QMPE      POLO          -25.2331861161       25.0942204283      -12.0225524358  HEAD      139             0.0000000000
       140       140  QMPE      POLO           28.4453419529      -28.4224261294      -11.9561524474  HEAD      140             0.0000000000
       141       141  QMPE      POLO          -38.4617317434      -37.8576291656      -11.9041491492  HEAD      141             0.0000000000
       142       142  QMPE      POLO           34.3397634357       39.3488470534      -11.9188932437  HEAD      142             0.0000000000
       143       143  QMPE      POLO            3.1619853741       15.6310070599      -11.9757003863  HEAD      143             0.0000000000
       144       144  QMPE      POLO          -12.9341231606        5.3532641373      -11.9631152663  HEAD      144             0.0000000000
       145       145  PMPE      POLO          -30.1294659710      -25.9291184579      -12.0075622978  HEAD      145             0.0000000000
       146       146  PMPE      POLO          -10.2260574049       33.4197201720      -11.9654214647  HEAD      146             0.0000000000
       147       147  PMPE      POLO           25.8032866236       27.0907265599      -11.9042574620  HEAD      147             0.0000000000
       148       148  PMPE      POLO          -32.9298556516       21.1579196763      -11.8785551104  HEAD      148             0.0000000000
       149       149  PMPE      POLO          -12.7310850038       -3.0391435558      -12.0619179815  HEAD      149             0.0000000000
       150       150  PMPE      POLO          -35.8222043563       -4.2841479580      -11.9058101437  HEAD      150             0.0000000000
       151       151  PMPE      POLO          -18.0701758240       20.5743540008      -12.0353612949  HEAD      151             0.0000000000
       152       152  PMPE      POLO           30.5970805405       -2.9223052717      -11.9986822675  HEAD      152             0.0000000000
       153       153  PMPE      POLO           -3.1213921253       29.4114888075      -11.9437002907  HEAD      153             0.0000000000
       154       154  PMPE      POLO          -28.3978811794       -0.7577094057      -11.9887125147  HEAD      154             0.0000000000
       155       155  PMPE      POLO           21.1091324809      -23.6566134459      -12.0356162379  HEAD      155             0.0000000000
       156       156  PMPE      POLO           15.5002311023      -10.4275779807      -12.0836871936  HEAD      156             0.0000000000
       157       157  PMPE      POLO          -25.3535142896       16.7492428950      -11.9631186984  HEAD      157             0.0000000000
       158       158  PMPE      POLO            9.0439164471        2.3216868649      -12.0433946900  HEAD      158             0.0000000000
       159       159  PMPE      POLO           29.8938177440      -11.6926077922      -12.0054003737  HEAD      159             0.0000000000
       160       160  PMPE      POLO          -31.5509659315       38.2640856198      -11.9697070318  HEAD      160             0.0000000000
       161       161  PMPE      POLO          -17.6124194483       29.1171243047      -12.1255861212  HEAD      161             0.0000000000
       162       162  PMPE      POLO           21.9840718562      -15.2506580909      -11.9109008660  HEAD      162             0.0000000000
       163       163  PMPE      POLO           35.8830907936      -24.8085270725      -11.9845821814  HEAD      163             0.0000000000
       164       164  PMPE      POLO          -17.1156509719       37.5674461621      -12.0293886618  HEAD      164             0.0000000000
       165       165  PMPE      POLO           -0.6904710126      -16.4354401579      -11.8721331583  HEAD      165             0.0000000000
       166       166  PMPE      POLO           19.1497523791       32.2424403233      -12.0331478866  HEAD      166             0.0000000000
       167       167  PMPE      POLO           31.3677377948        5.4984373920      -11.9338987105  HEAD      167             0.0000000000
       168       168  PMPE      POLO            4.6541895348       33.0628488347      -12.1029755319  HEAD      168             0.0000000000
       169       169  PMPE      POLO           10.1347377934       11.1123185160      -11.9954704238  HEAD      169             0.0000000000
       170       170  PMPE      POLO           27.3243521670      -36.7664507293      -12.0219093434  HEAD      170             0.0000000000
       171       171  PMPE      POLO           38.3926599305        0.5635333866      -11.8578587249  HEAD      171             0.0000000000
       172       172  PMPE      POLO           23.7071357611        1.8151230397      -12.0045441163  HEAD      172             0.0000000000
       173       173  PMPE      POLO           12.7937402083      -35.4998764769      -11.9122811900  HEAD      173             0.0000000000
       174       174  PMPE      POLO          -33.5084508194       12.7484613791      -12.0837439063  HEAD      174             0.0000000000
       175       175  PMPE      POLO           10.7045246804       19.7334110526      -11.9365828643  HEAD      175             0.0000000000
       176       176  PMPE      POLO          -34.8978702361        4.2829926224      -11.9141215482  HEAD      176             0.0000000000
       177       177  PMPE      POLO           37.3792562784       -7.9425553823      -12.1402549455  HEAD      177             0.0000000000
       178       178  PMPE      POLO           29.0699354616      -19.8670696369      -11.8869062385  HEAD      178             0.0000000000
       179       179  PMPE      POLO          -19.1634547328       11.4597326673      -12.0136878811  HEAD      179             0.0000000000
       180       180  PMPE      POLO           14.0712663139      -18.7519009596      -12.1129483647  HEAD      180             0.0000000000
       181       181  PMPE      POLO           12.1698328742       36.7926746629      -11.9259552789  HEAD      181             0.0000000000
       182       182  PMPE      POLO          -38.0859488726      -29.2622793443      -12.0658973307  HEAD      182             0.0000000000
       183       183  PMPE      POLO           -1.8466024479      -34.8830094296      -12.0226245233  HEAD      183             0.0000000000
       184       184  PMPE      POLO           11.6812313838       28.4095197601      -11.9689892394  HEAD      184             0.0000000000
       185       185  PMPE      POLO          -39.4700245540       34.7667380261      -11.9545418711  HEAD      185             0.0000000000
       186       186  PMPE      POLO          -11.7774675522      -18.7553238587      -12.0148827468  HEAD      186             0.0000000000
       187       187  PMPE      POLO          -16.0653279645      -34.9715248626      -11.9511299803  HEAD      187             0.0000000000
       188       188  PMPE      POLO            7.5917208777      -13.8224943601      -12.0464335616  HEAD      188             0.0000000000
       189       189  PMPE      POLO            5.7516585339      -22.1859111100      -11.8987393078  HEAD      189             0.0000000000
       190       190  PMPE      POLO          -20.3439798384        2.4696311397      -12.1183582474  HEAD      190             0.0000000000
       191       191  PMPG      POLO            4.2386408574       24.7580696248      -12.0840592994  HEAD      191             0.0000000000
       192       192  PMPG      POLO          -23.0632769398      -30.2351469023      -11.9812113055  HEAD      192             0.0000000000
       193       193  PMPG      POLO          -30.8898962676      -34.0975087243      -11.9829865101  HEAD      193             0.0000000000
       194       194  PMPG      POLO          -39.6174571642       26.0937334698      -12.0335331610  HEAD      194             0.0000000000
       195       195  PMPG      POLO           39.1970354827        9.2317502533      -11.9363005521  HEAD      195             0.0000000000
       196       196  PMPG      POLO          -32.2092965442       29.8966140190      -12.0703388294  HEAD      196             0.0000000000
       197       197  PMPG      POLO          -24.6824421025       33.5482259550      -12.0697052994  HEAD      197             0.0000000000
       198       198  PMPG      POLO           26.6522199217       35.6021492096      -11.9920359037  HEAD      198             0.0000000000
       199       199  PMPG      POLO           17.0045825169        6.7361782203      -11.9888671842  HEAD      199             0.0000000000
       200       200  PMPG      POLO          -14.1688779645      -26.8646617674      -12.0062661992  HEAD      200             0.0000000000
